Title
81337
    1CHL1    C3    1   1.911   2.187  10.091  0.3785 -0.6814  0.4893
    1CHL1    H3    2   2.001   2.122  10.084 -0.0645 -1.4189  1.5521
    1CHL1    O3    3   1.870   2.218  10.215  0.5193 -0.1846  0.3856
    1CHL1   H3'    4   1.778   2.237  10.195  0.7269  2.8677  1.9684
    1CHL1    C4    5   1.953   2.322  10.018  0.5946  0.3972 -0.3079
    1CHL1   H4A    6   1.870   2.396  10.015  0.2025  0.0480  1.4629
    1CHL1   H4B    7   2.036   2.367  10.076  2.6192 -0.9776 -2.0782
    1CHL1    C5    8   1.991   2.282   9.873 -0.2812 -0.8245 -0.2765
    1CHL1    C6    9   2.114   2.300   9.841 -0.5604 -0.2354 -0.2895
    1CHL1    H6   10   2.186   2.348   9.909 -0.5538 -0.7467  0.0593
    1CHL1    C7   11   2.167   2.266   9.701 -0.4910  0.2404 -0.4708
    1CHL1   H7A   12   2.231   2.348   9.663 -1.5505  0.9383 -0.7462
    1CHL1   H7B   13   2.239   2.181   9.708  0.4560  1.0663 -0.1962
    1CHL1    C8   14   2.060   2.249   9.596  0.2452 -0.3456  0.1141
    1CHL1    H8   15   2.028   2.353   9.576  0.1464 -0.9133 -2.9020
    1CHL1   C14   16   2.109   2.190   9.458  0.7259  0.2829 -0.4040
    1CHL1   H14   17   2.152   2.091   9.481  1.4410  0.9563  1.2156
    1CHL1   C15   18   2.226   2.263   9.386 -0.4833 -0.2066  0.2256
    1CHL1  H15A   19   2.204   2.372   9.385  1.1728  0.1387 -0.2983
    1CHL1  H15B   20   2.324   2.242   9.434 -0.8239 -2.2199  0.0728
    1CHL1   C16   21   2.220   2.210   9.240  0.2660  0.9641 -0.0149
    1CHL1  H16A   22   2.215   2.296   9.171  0.4968  2.6588  2.0079
    1CHL1  H16B   23   2.305   2.145   9.211 -1.5671 -0.7230 -1.7577
    1CHL1   C17   24   2.091   2.116   9.236 -0.2745 -0.2297  0.4822
    1CHL1   H17   25   2.118   2.014   9.270 -0.9938  0.4183  3.1273
    1CHL1   C13   26   2.005   2.167   9.354  0.6883 -0.0686 -0.4989
    1CHL1   C18   27   1.940   2.304   9.322 -0.5183 -0.0387  0.0508
    1CHL1  H18A   28   2.017   2.383   9.308 -2.2053  1.9747  1.8754
    1CHL1  H18B   29   1.876   2.306   9.231 -0.2530  2.2991 -0.1208
    1CHL1  H18C   30   1.872   2.324   9.407 -2.7616  0.2403 -1.7690
    1CHL1   C12   31   1.903   2.069   9.411  0.2402  0.2968 -0.0557
    1CHL1  H12A   32   1.820   2.037   9.344  1.2747 -0.2190 -1.1209
    1CHL1  H12B   33   1.961   1.977   9.435 -0.8180 -0.1957  0.6231
    1CHL1   C11   34   1.836   2.121   9.539  0.2838 -0.3288 -0.5440
    1CHL1  H11A   35   1.764   2.205   9.528  1.1361  0.8066  1.9661
    1CHL1  H11B   36   1.770   2.040   9.575 -0.7229  0.3861 -0.7777
    1CHL1    C9   37   1.941   2.159   9.645  0.9928 -0.1413  0.1790
    1CHL1    H9   38   1.992   2.062   9.660  0.2710 -0.6499 -0.5774
    1CHL1   C10   39   1.882   2.214   9.777 -0.5642 -0.7073  0.8778
    1CHL1   C19   40   1.763   2.315   9.754  0.3463  0.0945  0.0543
    1CHL1  H19A   41   1.781   2.401   9.686  0.5893  0.0243  0.0302
    1CHL1  H19B   42   1.676   2.265   9.706  2.0316 -0.1004 -2.8651
    1CHL1  H19C   43   1.741   2.365   9.851 -2.1679 -0.5428 -0.1368
    1CHL1    C1   44   1.840   2.088   9.864  0.0858 -0.1302  0.2179
    1CHL1   H1A   45   1.762   2.041   9.800 -0.3319  1.6362 -0.6096
    1CHL1   H1B   46   1.919   2.010   9.872 -1.1038 -1.1196  2.6150
    1CHL1    C2   47   1.800   2.113  10.007 -0.1309  0.2903 -0.1769
    1CHL1   H2A   48   1.772   2.017  10.056 -1.6778  0.7261 -0.1926
    1CHL1   H2B   49   1.710   2.177  10.016  0.8656  1.8249 -0.9294
    1CHL1   C20   50   2.023   2.105   9.099 -0.2600 -0.5513 -0.2990
    1CHL1   H20   51   1.992   2.205   9.061  4.3842  0.7272 -1.0365
    1CHL1   C21   52   1.912   1.991   9.104  0.4790  0.3290 -0.2318
    1CHL1  H21A   53   1.816   2.046   9.115  0.0179 -0.9836  2.9656
    1CHL1  H21B   54   1.936   1.919   9.186  0.5668  1.4195  0.7132
    1CHL1  H21C   55   1.903   1.934   9.010  0.4175 -1.2108  0.6805
    1CHL1   C22   56   2.129   2.063   8.992 -0.4608  0.3112 -0.3158
    1CHL1  H22A   57   2.084   2.072   8.891  0.4432  2.5850 -0.5509
    1CHL1  H22B   58   2.226   2.117   8.992  0.5965 -1.5133 -1.5095
    1CHL1   C23   59   2.174   1.912   9.010  0.0695 -1.0998 -0.0698
    1CHL1  H23A   60   2.192   1.888   9.117  1.2849  2.6350  0.6281
    1CHL1  H23B   61   2.102   1.843   8.961  1.6925 -2.3029 -0.7957
    1CHL1   C24   62   2.307   1.889   8.941  0.4372 -0.5492  0.4089
    1CHL1  H24A   63   2.307   1.937   8.841  0.0597  0.1515  0.7454
    1CHL1  H24B   64   2.384   1.942   9.000 -0.0115 -0.8673  1.2888
    1CHL1   C25   65   2.374   1.747   8.925  0.3183 -0.1392  0.7570
    1CHL1   H25   66   2.390   1.703   9.026 -0.2677  1.2543  1.4779
    1CHL1   C26   67   2.290   1.644   8.843  0.3738  0.2019 -0.2004
    1CHL1  H26A   68   2.357   1.555   8.836  0.9602  0.6660 -0.5515
    1CHL1  H26B   69   2.195   1.619   8.895  0.4675  0.3676  0.0499
    1CHL1  H26C   70   2.269   1.670   8.737  1.6720 -1.1943 -0.8310
    1CHL1   C27   71   2.512   1.765   8.859 -0.4370 -0.0825 -0.5644
    1CHL1  H27A   72   2.496   1.827   8.769 -1.0707  1.6700  0.7246
    1CHL1  H27B   73   2.577   1.832   8.919  1.0247 -1.1786 -0.9078
    1CHL1  H27C   74   2.558   1.665   8.843 -0.8140 -0.7129  2.0357
    2CHL1    C3   75   2.684   6.773  10.089 -0.0225  0.3358  0.4871
    2CHL1    H3   76   2.789   6.779  10.055 -0.6000 -1.2903 -1.7566
    2CHL1    O3   77   2.675   6.797  10.226 -0.1382 -0.0339 -0.3479
    2CHL1   H3'   78   2.580   6.792  10.242 -0.3458 -0.3231 -1.6243
    2CHL1    C4   79   2.620   6.885  10.009 -0.5113 -0.4604  0.4828
    2CHL1   H4A   80   2.517   6.904  10.044 -2.0910 -3.7847 -2.0253
    2CHL1   H4B   81   2.665   6.983  10.033  1.3351 -0.6544 -1.9252
    2CHL1    C5   82   2.621   6.848   9.862  0.1887 -0.3915 -0.9471
    2CHL1    C6   83   2.690   6.928   9.779 -0.4101 -0.1550 -0.0018
    2CHL1    H6   84   2.749   7.012   9.816 -0.5555  0.0184 -0.1615
    2CHL1    C7   85   2.673   6.907   9.625 -0.4301 -0.1948  0.2153
    2CHL1   H7A   86   2.656   7.000   9.567  1.1470 -1.2058 -1.9666
    2CHL1   H7B   87   2.768   6.860   9.590 -1.0477 -3.6374  2.8827
    2CHL1    C8   88   2.555   6.815   9.576 -0.4800  0.1768  0.8182
    2CHL1    H8   89   2.465   6.879   9.590 -1.0898  0.4590 -3.5033
    2CHL1   C14   90   2.572   6.769   9.429 -0.2572  0.2810 -0.5412
    2CHL1   H14   91   2.664   6.708   9.440 -0.6031 -0.0765  0.4319
    2CHL1   C15   92   2.592   6.870   9.321  0.0096  0.2405 -0.3546
    2CHL1  H15A   93   2.526   6.959   9.330  0.3726  0.5024 -0.3071
    2CHL1  H15B   94   2.697   6.906   9.323  0.5777 -1.3239 -0.7760
    2CHL1   C16   95   2.559   6.792   9.193  0.2429 -0.8563  0.2192
    2CHL1  H16A   96   2.480   6.841   9.132  0.9260 -0.7910 -0.6336
    2CHL1  H16B   97   2.647   6.772   9.127  0.0402  1.6431 -0.8670
    2CHL1   C17   98   2.490   6.656   9.236  0.7810  0.4168  0.1556
    2CHL1   H17   99   2.571   6.580   9.230 -2.0270 -2.7086  0.0655
    2CHL1   C13  100   2.459   6.678   9.379  0.1658  0.2392  0.4611
    2CHL1   C18  101   2.319   6.752   9.385 -0.2966 -0.9421  0.0257
    2CHL1  H18A  102   2.299   6.818   9.298  2.4319  1.4737  1.1164
    2CHL1  H18B  103   2.243   6.672   9.375 -0.2389 -1.0653  0.5354
    2CHL1  H18C  104   2.290   6.800   9.481 -1.2859 -0.3740 -0.5534
    2CHL1   C12  105   2.460   6.555   9.473  0.0031  0.7287  0.3651
    2CHL1  H12A  106   2.398   6.467   9.445 -0.8539  1.3002  0.4354
    2CHL1  H12B  107   2.564   6.519   9.460 -0.4003 -0.5721  0.7284
    2CHL1   C11  108   2.443   6.594   9.615 -0.9051  0.1539  0.3171
    2CHL1  H11A  109   2.349   6.650   9.628 -0.3925  0.5414  2.6146
    2CHL1  H11B  110   2.447   6.505   9.682  0.1169 -0.0521 -0.0005
    2CHL1    C9  111   2.555   6.699   9.671  0.8888 -0.4996  0.9522
    2CHL1    H9  112   2.656   6.652   9.666  1.0121  0.0613 -3.2060
    2CHL1   C10  113   2.539   6.730   9.820 -0.7405  0.4105 -0.5347
    2CHL1   C19  114   2.393   6.758   9.854  0.2343 -0.5167 -0.6112
    2CHL1  H19A  115   2.372   6.761   9.963  0.7555 -0.7442 -0.5036
    2CHL1  H19B  116   2.358   6.855   9.815  0.4185  0.9940  2.8517
    2CHL1  H19C  117   2.337   6.667   9.824 -0.6686 -0.0297 -0.3960
    2CHL1    C1  118   2.601   6.610   9.901  0.1270  0.2541  0.1126
    2CHL1   H1A  119   2.532   6.524   9.888 -0.7686  1.0431 -0.4626
    2CHL1   H1B  120   2.696   6.572   9.857 -0.6429  0.3399 -1.6762
    2CHL1    C2  121   2.625   6.633  10.053 -0.7438 -0.3118  0.4478
    2CHL1   H2A  122   2.701   6.555  10.078  1.5165  1.1174 -1.7598
    2CHL1   H2B  123   2.524   6.617  10.096 -0.2990 -0.6389  1.3957
    2CHL1   C20  124   2.385   6.605   9.132  0.5250 -0.5033 -0.3174
    2CHL1   H20  125   2.304   6.682   9.133  0.9915 -0.0078  0.4545
    2CHL1   C21  126   2.336   6.469   9.178 -0.5206  0.0489 -0.1305
    2CHL1  H21A  127   2.270   6.429   9.099  0.9909 -1.4362 -0.6657
    2CHL1  H21B  128   2.268   6.482   9.266 -0.2746 -2.0025  0.3974
    2CHL1  H21C  129   2.421   6.400   9.196 -0.4160 -0.0593 -1.0401
    2CHL1   C22  130   2.439   6.596   8.983 -0.0868 -0.1231  0.5344
    2CHL1  H22A  131   2.531   6.534   8.978 -0.9093 -1.3650  0.6631
    2CHL1  H22B  132   2.362   6.540   8.925 -0.4364 -1.7191  2.4761
    2CHL1   C23  133   2.454   6.730   8.899  0.5740 -0.0399 -0.4667
    2CHL1  H23A  134   2.357   6.784   8.909  1.7570  2.0120  0.2402
    2CHL1  H23B  135   2.533   6.800   8.933  1.4366 -1.2754  0.1070
    2CHL1   C24  136   2.471   6.700   8.751 -0.1164  0.2535 -0.0216
    2CHL1  H24A  137   2.572   6.657   8.735 -0.5369 -0.2595 -1.3785
    2CHL1  H24B  138   2.401   6.621   8.717  0.1540  1.0311 -2.5044
    2CHL1   C25  139   2.450   6.823   8.657  0.5428  0.2088 -0.3716
    2CHL1   H25  140   2.368   6.887   8.695  0.8406  1.3818 -1.6516
    2CHL1   C26  141   2.577   6.905   8.636  0.1428 -0.0125 -0.6449
    2CHL1  H26A  142   2.565   6.993   8.569  4.0418 -0.5645 -2.1688
    2CHL1  H26B  143   2.621   6.937   8.733  0.5270 -1.3134 -0.3811
    2CHL1  H26C  144   2.665   6.854   8.591  0.4057 -0.1912  0.0699
    2CHL1   C27  145   2.409   6.770   8.515  0.3842 -0.0918 -0.1018
    2CHL1  H27A  146   2.482   6.697   8.473 -0.8750 -0.8223 -1.0554
    2CHL1  H27B  147   2.309   6.723   8.522 -0.4190  1.2651 -1.9653
    2CHL1  H27C  148   2.406   6.856   8.444  2.1234  1.4832  1.6794
    3CHL1    C3  149   2.908   6.159  10.171  0.0503 -0.2286  0.5889
    3CHL1    H3  150   3.017   6.138  10.166  0.3642  1.2964  0.8223
    3CHL1    O3  151   2.886   6.147  10.314 -0.0971  0.2237  0.4639
    3CHL1   H3'  152   2.791   6.151  10.327 -0.6410  0.0050 -2.9242
    3CHL1    C4  153   2.873   6.299  10.129 -0.5557  0.9682 -0.6216
    3CHL1   H4A  154   2.768   6.312  10.164 -0.8341  0.1718 -1.1357
    3CHL1   H4B  155   2.932   6.374  10.185  0.7964 -0.5308  0.0029
    3CHL1    C5  156   2.881   6.322   9.977  0.6389 -0.3051 -0.8780
    3CHL1    C6  157   2.941   6.432   9.936 -0.0470 -0.4061  0.5947
    3CHL1    H6  158   2.978   6.506  10.008 -1.4873  1.5715 -0.6321
    3CHL1    C7  159   2.964   6.465   9.794 -0.3353  0.4191 -0.5681
    3CHL1   H7A  160   2.924   6.566   9.770 -0.7018  0.6929  1.1227
    3CHL1   H7B  161   3.074   6.461   9.779 -0.2135 -0.5719  0.5481
    3CHL1    C8  162   2.902   6.365   9.690  0.1252 -0.8926 -0.1903
    3CHL1    H8  163   2.794   6.391   9.678  0.0713  0.7047  3.3484
    3CHL1   C14  164   2.969   6.380   9.552  0.1074 -0.2094  0.3251
    3CHL1   H14  165   3.074   6.349   9.572 -0.5941 -3.7160 -1.1058
    3CHL1   C15  166   2.978   6.515   9.479 -1.0285 -0.6518  0.0199
    3CHL1  H15A  167   2.883   6.573   9.475 -1.4352 -1.1465  2.0156
    3CHL1  H15B  168   3.046   6.579   9.539  0.1390 -3.3622  1.6282
    3CHL1   C16  169   3.033   6.481   9.339 -0.2768 -0.5753  0.6788
    3CHL1  H16A  170   2.979   6.539   9.261  2.2793 -0.6737 -1.2364
    3CHL1  H16B  171   3.140   6.511   9.340 -0.2426 -0.6327 -0.6184
    3CHL1   C17  172   3.014   6.324   9.330  0.3124 -0.0264 -0.6323
    3CHL1   H17  173   3.114   6.290   9.364  1.0849 -0.1700 -2.9403
    3CHL1   C13  174   2.921   6.280   9.447 -0.2238  0.1166  0.9829
    3CHL1   C18  175   2.773   6.303   9.420  0.2684  0.1801  0.1159
    3CHL1  H18A  176   2.746   6.399   9.371 -5.1127 -0.5333  1.3064
    3CHL1  H18B  177   2.741   6.228   9.345  2.2337  0.5405 -1.1204
    3CHL1  H18C  178   2.712   6.302   9.513 -1.6868  1.9089 -1.0894
    3CHL1   C12  179   2.939   6.141   9.502  0.0882  0.2708 -0.6573
    3CHL1  H12A  180   2.906   6.068   9.425 -3.0683  0.1371  0.7614
    3CHL1  H12B  181   3.044   6.115   9.528  0.1842  1.2211 -0.0612
    3CHL1   C11  182   2.866   6.117   9.637  0.0655 -0.7141  1.0238
    3CHL1  H11A  183   2.755   6.122   9.632  0.0533 -2.0224 -1.2500
    3CHL1  H11B  184   2.886   6.016   9.679  2.2595 -0.1161  1.5207
    3CHL1    C9  185   2.905   6.220   9.739 -0.5003 -0.2801 -0.0639
    3CHL1    H9  186   3.014   6.202   9.750 -0.4322 -0.6726 -1.3387
    3CHL1   C10  187   2.831   6.212   9.877  0.4099  0.8088  0.0772
    3CHL1   C19  188   2.671   6.225   9.868  0.1320  0.1775 -0.0339
    3CHL1  H19A  189   2.625   6.128   9.840  0.3282  0.9546 -3.2880
    3CHL1  H19B  190   2.625   6.251   9.965 -2.0298 -3.5182  0.0265
    3CHL1  H19C  191   2.644   6.306   9.797  0.4932  2.1169  1.9855
    3CHL1    C1  192   2.864   6.074   9.943 -0.3331  0.2484 -0.4140
    3CHL1   H1A  193   2.817   5.989   9.890  1.4101 -0.9928 -0.0253
    3CHL1   H1B  194   2.973   6.051   9.940 -0.2489  0.8090 -1.8417
    3CHL1    C2  195   2.830   6.063  10.092  0.1307 -0.3333 -0.3001
    3CHL1   H2A  196   2.843   5.958  10.124 -0.0645 -0.4323 -0.5443
    3CHL1   H2B  197   2.727   6.093  10.118  0.4781 -1.9239  3.1707
    3CHL1   C20  198   2.990   6.268   9.192  0.1114 -0.0569  0.6144
    3CHL1   H20  199   2.951   6.166   9.211 -0.0169  0.1017  1.1946
    3CHL1   C21  200   3.123   6.253   9.121 -0.5565  0.4252 -0.6930
    3CHL1  H21A  201   3.200   6.202   9.182  0.2793  1.2976 -0.9948
    3CHL1  H21B  202   3.157   6.350   9.077 -1.1376  0.5312 -0.9188
    3CHL1  H21C  203   3.113   6.187   9.032  2.2014 -0.1120 -0.6582
    3CHL1   C22  204   2.893   6.354   9.105 -0.6175 -0.3701  0.1925
    3CHL1  H22A  205   2.809   6.378   9.174 -1.0633 -3.0114  0.6178
    3CHL1  H22B  206   2.941   6.447   9.069  0.7976 -1.6526 -1.2963
    3CHL1   C23  207   2.851   6.277   8.980 -1.0471  0.0403 -0.5474
    3CHL1  H23A  208   2.935   6.279   8.906 -2.2828  2.1131 -1.9367
    3CHL1  H23B  209   2.830   6.171   9.005 -1.0076 -0.2503 -1.7044
    3CHL1   C24  210   2.722   6.329   8.915  0.6210  0.4731 -0.0694
    3CHL1  H24A  211   2.654   6.372   8.991  0.0811  1.1972 -0.9573
    3CHL1  H24B  212   2.763   6.409   8.849 -0.5684  2.7525  1.8773
    3CHL1   C25  213   2.653   6.225   8.821 -0.3407  0.5414  0.1550
    3CHL1   H25  214   2.638   6.128   8.872  0.2758  0.1013 -0.4991
    3CHL1   C26  215   2.510   6.264   8.791 -0.4185 -0.8082 -0.1692
    3CHL1  H26A  216   2.524   6.362   8.741 -2.9286 -0.3032  0.0431
    3CHL1  H26B  217   2.462   6.188   8.726 -0.7246 -2.0656  1.4962
    3CHL1  H26C  218   2.444   6.283   8.878 -0.8437  2.1303 -1.0964
    3CHL1   C27  219   2.743   6.196   8.692 -0.0199  0.1130 -0.6973
    3CHL1  H27A  220   2.685   6.131   8.623 -4.2026  2.2419  0.6133
    3CHL1  H27B  221   2.756   6.289   8.633  0.6901  0.9902  0.8323
    3CHL1  H27C  222   2.837   6.144   8.718  0.4373  0.7869 -0.9780
    4CHL1    C3  223   2.884   1.653  10.750  0.3642  0.1547 -0.3427
    4CHL1    H3  224   2.956   1.570  10.737  0.0915  0.1494 -1.8976
    4CHL1    O3  225   2.882   1.693  10.892  0.5551 -0.3374 -0.3458
    4CHL1   H3'  226   2.974   1.713  10.912  0.6313 -0.1363 -0.8893
    4CHL1    C4  227   2.910   1.768  10.655  0.1382  0.6642  1.1589
    4CHL1   H4A  228   2.821   1.831  10.676  1.1533  2.6006 -0.1677
    4CHL1   H4B  229   3.005   1.819  10.681  1.0198 -0.9177  1.1015
    4CHL1    C5  230   2.913   1.717  10.513  0.3711 -0.0715 -0.4363
    4CHL1    C6  231   3.021   1.723  10.435  0.1674  0.2835 -0.7754
    4CHL1    H6  232   3.115   1.766  10.474  1.0620 -0.2680 -2.2787
    4CHL1    C7  233   3.016   1.690  10.291 -0.7480  0.3912  0.3842
    4CHL1   H7A  234   3.077   1.765  10.237 -1.3551 -1.4757 -3.0574
    4CHL1   H7B  235   3.061   1.590  10.273  0.0748  0.8825 -0.3392
    4CHL1    C8  236   2.871   1.681  10.226 -0.4431 -0.0931 -0.1590
    4CHL1    H8  237   2.828   1.783  10.217 -0.1674 -0.0720 -1.3149
    4CHL1   C14  238   2.883   1.616  10.092 -0.0004 -0.0107  0.7311
    4CHL1   H14  239   2.919   1.513  10.113  0.3309  0.1306  0.8522
    4CHL1   C15  240   2.977   1.675   9.989 -0.5820 -0.2811  0.8176
    4CHL1  H15A  241   2.979   1.786  10.002 -0.4588  0.1929 -2.7612
    4CHL1  H15B  242   3.080   1.638  10.010  0.1360  1.3591  0.3632
    4CHL1   C16  243   2.926   1.625   9.852 -0.1416 -0.2506 -0.5108
    4CHL1  H16A  244   2.893   1.715   9.796 -1.8533 -0.2519  0.4470
    4CHL1  H16B  245   2.996   1.568   9.787 -1.7405 -5.0630  1.7523
    4CHL1   C17  246   2.798   1.541   9.884  0.1480 -0.3844 -0.2141
    4CHL1   H17  247   2.824   1.438   9.914  0.5468 -0.5904 -1.2691
    4CHL1   C13  248   2.746   1.590  10.021  0.1924 -0.3444  0.4884
    4CHL1   C18  249   2.667   1.720   9.994 -0.8245 -0.3594  0.8102
    4CHL1  H18A  250   2.656   1.774  10.091 -1.6932  0.5050  0.2371
    4CHL1  H18B  251   2.720   1.789   9.925  0.7028 -1.3802  0.9461
    4CHL1  H18C  252   2.565   1.696   9.957 -0.4136 -0.4729 -0.2515
    4CHL1   C12  253   2.670   1.496  10.114 -0.1023  0.0591 -0.2165
    4CHL1  H12A  254   2.567   1.475  10.080 -0.0571 -2.0804  0.8977
    4CHL1  H12B  255   2.720   1.400  10.137 -1.6235 -0.4717  0.8680
    4CHL1   C11  256   2.647   1.561  10.251  0.4863 -0.7237  0.4121
    4CHL1  H11A  257   2.582   1.651  10.245  1.0883 -0.1515  2.2081
    4CHL1  H11B  258   2.603   1.496  10.329  0.3397 -0.8475  0.2246
    4CHL1    C9  259   2.783   1.601  10.321  0.0221 -0.3823  0.3499
    4CHL1    H9  260   2.839   1.508  10.342  0.4265 -0.7980 -2.3897
    4CHL1   C10  261   2.775   1.665  10.463  0.1828  0.0649 -0.5056
    4CHL1   C19  262   2.674   1.781  10.456  0.4376 -0.2302 -0.8452
    4CHL1  H19A  263   2.698   1.855  10.376 -1.0071  1.5650  0.3543
    4CHL1  H19B  264   2.574   1.750  10.419  0.4900 -1.2887 -0.1136
    4CHL1  H19C  265   2.665   1.839  10.550  0.9332 -2.1073  0.3777
    4CHL1    C1  266   2.718   1.556  10.569  0.1036 -0.0557  0.0157
    4CHL1   H1A  267   2.608   1.557  10.553  0.3604  1.4492 -1.8600
    4CHL1   H1B  268   2.754   1.454  10.543  2.5418  0.1383  2.4746
    4CHL1    C2  269   2.749   1.593  10.717 -0.1620 -0.4380 -0.6107
    4CHL1   H2A  270   2.731   1.503  10.780 -0.4883  0.0777  0.0507
    4CHL1   H2B  271   2.673   1.671  10.742 -1.6547 -2.1914  0.4778
    4CHL1   C20  272   2.697   1.535   9.759 -0.9226 -0.4106 -0.6373
    4CHL1   H20  273   2.626   1.621   9.760 -0.9047 -0.3979 -0.3529
    4CHL1   C21  274   2.618   1.403   9.768  0.9621 -0.0649 -0.5943
    4CHL1  H21A  275   2.680   1.313   9.787  1.1736  0.2094  0.0232
    4CHL1  H21B  276   2.568   1.383   9.671  0.9947 -2.1871 -0.1914
    4CHL1  H21C  277   2.542   1.406   9.848  0.8088 -1.7075 -0.6588
    4CHL1   C22  278   2.791   1.536   9.627 -0.1687  0.3129  0.2446
    4CHL1  H22A  279   2.834   1.638   9.620  0.2944  0.0057 -1.5866
    4CHL1  H22B  280   2.869   1.457   9.635  0.0650  0.3346 -1.5797
    4CHL1   C23  281   2.705   1.530   9.494 -0.1795 -0.1715 -0.6100
    4CHL1  H23A  282   2.654   1.432   9.480 -1.2497  0.2102  0.4318
    4CHL1  H23B  283   2.631   1.613   9.495  0.7905  0.7010 -0.1463
    4CHL1   C24  284   2.797   1.567   9.367 -0.0041 -0.0228 -0.6338
    4CHL1  H24A  285   2.865   1.651   9.393 -0.6604  0.7530 -1.4116
    4CHL1  H24B  286   2.868   1.486   9.339 -1.8996 -0.7393 -3.4957
    4CHL1   C25  287   2.717   1.609   9.237  0.1223 -0.3896 -0.7682
    4CHL1   H25  288   2.663   1.704   9.256 -0.0610 -0.3897 -1.2886
    4CHL1   C26  289   2.815   1.629   9.119  0.6493  0.6230 -0.8158
    4CHL1  H26A  290   2.769   1.675   9.029 -1.1287 -1.4308 -1.0184
    4CHL1  H26B  291   2.899   1.690   9.158  1.1249  1.0202 -2.4162
    4CHL1  H26C  292   2.871   1.536   9.096 -1.2803 -0.4677 -1.2186
    4CHL1   C27  293   2.607   1.504   9.207  0.1763  0.3229  0.7968
    4CHL1  H27A  294   2.552   1.530   9.114 -0.8797 -1.9753  0.7371
    4CHL1  H27B  295   2.654   1.404   9.192  2.8300  1.8376 -1.3678
    4CHL1  H27C  296   2.536   1.498   9.292 -1.0131 -2.3955 -0.3210
    5CHL1    C3  297   3.466   6.455  10.181  0.3325 -0.3571  0.5130
    5CHL1    H3  298   3.357   6.445  10.197  0.3183  0.4110  0.8865
    5CHL1    O3  299   3.538   6.428  10.300  0.2495  0.3886  0.1917
    5CHL1   H3'  300   3.625   6.408  10.264  0.7005  0.5316  1.1821
    5CHL1    C4  301   3.505   6.335  10.087 -0.0650 -0.1677  0.1489
    5CHL1   H4A  302   3.611   6.305  10.100 -0.5210 -2.3822 -1.1355
    5CHL1   H4B  303   3.442   6.246  10.107  0.5080 -0.6739 -0.2763
    5CHL1    C5  304   3.482   6.369   9.938  0.2164 -1.0445 -0.3694
    5CHL1    C6  305   3.416   6.286   9.852  1.0334  0.4533 -0.8649
    5CHL1    H6  306   3.370   6.204   9.908  2.1951  0.2246 -0.2281
    5CHL1    C7  307   3.401   6.298   9.696  1.0313  0.0636  0.1503
    5CHL1   H7A  308   3.423   6.200   9.649 -1.0851 -0.6193  0.5667
    5CHL1   H7B  309   3.293   6.311   9.678  0.9526  2.7628  2.1902
    5CHL1    C8  310   3.486   6.419   9.645  0.0106  0.2597 -0.2841
    5CHL1    H8  311   3.588   6.377   9.634  0.3041  0.6400  0.9220
    5CHL1   C14  312   3.445   6.459   9.499  0.4335  0.1158 -0.0436
    5CHL1   H14  313   3.351   6.518   9.508 -1.0065 -1.5542 -3.2287
    5CHL1   C15  314   3.430   6.357   9.388  0.0065  0.9788 -0.2037
    5CHL1  H15A  315   3.506   6.276   9.396 -1.4495 -0.2698  1.5585
    5CHL1  H15B  316   3.326   6.317   9.395 -0.7281  2.4020 -2.5102
    5CHL1   C16  317   3.459   6.424   9.255  0.1551  0.0048 -0.5731
    5CHL1  H16A  318   3.546   6.377   9.205 -0.1603  0.4810 -1.5824
    5CHL1  H16B  319   3.372   6.403   9.190 -1.4913  0.4278  1.4180
    5CHL1   C17  320   3.487   6.571   9.293  0.2579 -0.1890 -0.4796
    5CHL1   H17  321   3.388   6.620   9.301  0.5043  0.0351  1.5589
    5CHL1   C13  322   3.545   6.561   9.438  0.6141 -0.6857  1.2712
    5CHL1   C18  323   3.692   6.502   9.436 -0.1393  0.3259  0.7019
    5CHL1  H18A  324   3.731   6.500   9.540 -0.3730  1.1493  0.8077
    5CHL1  H18B  325   3.681   6.404   9.385  0.1366  0.5659  0.1768
    5CHL1  H18C  326   3.766   6.560   9.377  0.7934  0.4832  2.0159
    5CHL1   C12  327   3.547   6.690   9.515  0.1449  0.1885 -0.2367
    5CHL1  H12A  328   3.617   6.769   9.480 -1.1224  1.7238  0.6318
    5CHL1  H12B  329   3.444   6.733   9.504  0.1271  0.3368  0.4702
    5CHL1   C11  330   3.565   6.664   9.671 -0.6218  0.3976 -0.6250
    5CHL1  H11A  331   3.671   6.631   9.682 -0.7465 -0.6764 -2.3772
    5CHL1  H11B  332   3.542   6.758   9.725  1.0838  1.4580 -1.6648
    5CHL1    C9  333   3.481   6.543   9.737  0.0380  0.5486 -0.0725
    5CHL1    H9  334   3.375   6.577   9.746  0.6055  1.9975  1.5172
    5CHL1   C10  335   3.528   6.505   9.884  0.4646 -0.5739  0.2968
    5CHL1   C19  336   3.686   6.504   9.893  0.3620  0.1782 -0.4712
    5CHL1  H19A  337   3.728   6.447   9.808 -1.8035 -0.6324 -1.0240
    5CHL1  H19B  338   3.729   6.606   9.901  2.3053 -0.5912 -0.8919
    5CHL1  H19C  339   3.727   6.457   9.985  3.2764  0.6616 -1.4654
    5CHL1    C1  340   3.477   6.609   9.975  0.3414  0.1471  0.1617
    5CHL1   H1A  341   3.500   6.713   9.945  3.5934 -0.1265  1.5755
    5CHL1   H1B  342   3.366   6.600   9.971  0.3113 -0.0534  1.2482
    5CHL1    C2  343   3.509   6.590  10.125 -0.4933  0.4993  0.2731
    5CHL1   H2A  344   3.451   6.654  10.195  0.1354  1.9960 -0.5341
    5CHL1   H2B  345   3.619   6.597  10.139 -0.2069 -0.8788 -1.2089
    5CHL1   C20  346   3.572   6.643   9.184  0.2837 -0.2136 -0.1252
    5CHL1   H20  347   3.680   6.616   9.189  0.7737  1.3213 -1.7963
    5CHL1   C21  348   3.572   6.797   9.206  0.1428 -0.1541  0.1014
    5CHL1  H21A  349   3.631   6.817   9.298 -0.3015 -0.1644  0.3915
    5CHL1  H21B  350   3.469   6.839   9.211  0.8165  1.6634 -0.8360
    5CHL1  H21C  351   3.631   6.846   9.125 -1.0198 -1.3158 -1.4898
    5CHL1   C22  352   3.526   6.619   9.040  0.3681 -0.2238  0.0235
    5CHL1  H22A  353   3.588   6.694   8.986 -0.5842  0.5184 -0.0681
    5CHL1  H22B  354   3.553   6.515   9.012 -1.9162 -1.0125  0.6572
    5CHL1   C23  355   3.384   6.665   9.009 -0.0615  0.0643  0.1536
    5CHL1  H23A  356   3.320   6.609   9.081 -0.7663  0.9140  0.1885
    5CHL1  H23B  357   3.368   6.769   9.044 -0.3829 -0.0423  0.3215
    5CHL1   C24  358   3.333   6.635   8.863  0.3690  0.1098 -0.4768
    5CHL1  H24A  359   3.403   6.684   8.793  0.9849 -0.5583 -0.3373
    5CHL1  H24B  360   3.327   6.524   8.851  0.0813  0.0615  0.0913
    5CHL1   C25  361   3.196   6.703   8.830  0.3135 -0.1001 -0.8096
    5CHL1   H25  362   3.211   6.812   8.843  0.5371 -0.0532 -1.4075
    5CHL1   C26  363   3.164   6.695   8.679  0.1378  0.1291  0.2890
    5CHL1  H26A  364   3.143   6.591   8.644 -1.0357  0.9059 -1.3823
    5CHL1  H26B  365   3.072   6.756   8.665  2.3834  3.8392  1.3855
    5CHL1  H26C  366   3.251   6.735   8.623  1.9659 -2.4408  1.2099
    5CHL1   C27  367   3.082   6.647   8.919 -0.4103 -0.3399  0.4255
    5CHL1  H27A  368   2.997   6.614   8.856  0.9601 -0.0386 -1.6423
    5CHL1  H27B  369   3.116   6.559   8.979 -2.2345 -0.3699  1.4544
    5CHL1  H27C  370   3.051   6.722   8.995  1.1109 -0.7005  1.4350
    6CHL1    C3  371   1.515   3.783  10.398 -0.3799  0.3006  0.1026
    6CHL1    H3  372   1.408   3.804  10.372 -0.0735 -0.4222 -1.8395
    6CHL1    O3  373   1.541   3.799  10.538  0.2512 -0.0340 -0.2392
    6CHL1   H3'  374   1.509   3.716  10.575  1.9408 -0.4944  0.2379
    6CHL1    C4  375   1.544   3.639  10.365 -0.2078  0.3112  0.1005
    6CHL1   H4A  376   1.644   3.594  10.385 -1.1090 -1.4372  0.7397
    6CHL1   H4B  377   1.482   3.565  10.418  0.0604  0.4087  0.5525
    6CHL1    C5  378   1.537   3.615  10.216  0.1726 -0.1125 -0.4349
    6CHL1    C6  379   1.466   3.508  10.164 -0.4630 -0.4370  0.7301
    6CHL1    H6  380   1.409   3.441  10.231 -1.1772  1.3322  1.9503
    6CHL1    C7  381   1.454   3.488  10.017  0.1093  0.2845  0.3451
    6CHL1   H7A  382   1.471   3.382   9.986 -0.2641 -0.2695  2.0177
    6CHL1   H7B  383   1.356   3.515   9.972  0.6180 -1.3189 -1.8440
    6CHL1    C8  384   1.559   3.569   9.932 -0.0626 -0.4293 -0.5594
    6CHL1    H8  385   1.660   3.526   9.949  0.5392  1.0031 -0.4428
    6CHL1   C14  386   1.525   3.574   9.786  0.5848  0.2730 -0.0794
    6CHL1   H14  387   1.427   3.622   9.766 -0.2591 -1.9464 -1.4643
    6CHL1   C15  388   1.513   3.436   9.715 -0.1454 -0.1846 -0.2858
    6CHL1  H15A  389   1.599   3.372   9.743 -1.4185 -1.5227  0.6193
    6CHL1  H15B  390   1.422   3.384   9.753  1.3244 -1.7008  1.2378
    6CHL1   C16  391   1.521   3.472   9.567 -0.1090 -0.0034 -0.0891
    6CHL1  H16A  392   1.594   3.403   9.520 -1.3075 -0.4867 -1.2725
    6CHL1  H16B  393   1.429   3.459   9.507  0.2544  0.2293 -0.6999
    6CHL1   C17  394   1.583   3.616   9.558  0.7770  0.4694  0.1369
    6CHL1   H17  395   1.499   3.688   9.550 -0.2533 -0.5858  1.3158
    6CHL1   C13  396   1.628   3.653   9.699  0.1974 -0.1939  0.3414
    6CHL1   C18  397   1.778   3.599   9.710 -0.8336  0.5403 -0.7455
    6CHL1  H18A  398   1.774   3.499   9.661  0.5214 -0.0300  0.2678
    6CHL1  H18B  399   1.849   3.660   9.650  0.7008  0.3054  0.8094
    6CHL1  H18C  400   1.819   3.607   9.813 -2.3920  0.2623 -0.0873
    6CHL1   C12  401   1.620   3.799   9.745  0.8827 -0.6034 -0.2221
    6CHL1  H12A  402   1.694   3.859   9.688 -0.4670 -1.7662 -3.2892
    6CHL1  H12B  403   1.518   3.837   9.722  1.6910  0.4613 -2.1540
    6CHL1   C11  404   1.653   3.815   9.892 -0.2240 -0.6262  0.3011
    6CHL1  H11A  405   1.762   3.801   9.903  0.0154 -1.3786 -2.6725
    6CHL1  H11B  406   1.634   3.923   9.910  0.7952 -0.0170 -2.0477
    6CHL1    C9  407   1.569   3.716   9.980  0.5541 -0.3168 -0.0031
    6CHL1    H9  408   1.465   3.755   9.973  0.9973  0.9799  0.4938
    6CHL1   C10  409   1.610   3.715  10.133  0.7962 -0.3529  0.3522
    6CHL1   C19  410   1.766   3.694  10.147  0.5879 -0.2074 -0.6087
    6CHL1  H19A  411   1.798   3.598  10.100 -2.9508 -0.8080 -1.8973
    6CHL1  H19B  412   1.812   3.777  10.088 -1.0966  1.0755 -0.1376
    6CHL1  H19C  413   1.789   3.696  10.256  1.6243  1.8136 -0.8392
    6CHL1    C1  414   1.572   3.857  10.181 -0.4381  0.5678  0.1953
    6CHL1   H1A  415   1.628   3.936  10.127  0.3324  0.3993  0.7476
    6CHL1   H1B  416   1.468   3.886  10.155 -0.9472 -0.0490  1.4739
    6CHL1    C2  417   1.604   3.878  10.322  0.0494  0.6135 -0.6987
    6CHL1   H2A  418   1.566   3.975  10.361  0.2464  1.0192 -1.5058
    6CHL1   H2B  419   1.712   3.861  10.343 -0.2078  1.1832  1.1373
    6CHL1   C20  420   1.678   3.644   9.439  0.4250  0.4636 -0.3802
    6CHL1   H20  421   1.772   3.585   9.435  0.5901  0.6645  0.4833
    6CHL1   C21  422   1.723   3.788   9.426 -0.4231 -0.0107 -0.1308
    6CHL1  H21A  423   1.786   3.802   9.336  1.1714 -1.6112  0.6962
    6CHL1  H21B  424   1.785   3.821   9.513  1.4032  1.0148 -1.7680
    6CHL1  H21C  425   1.637   3.855   9.407 -0.4070 -0.1186 -0.5719
    6CHL1   C22  426   1.606   3.608   9.306  0.5670  0.9034  0.7133
    6CHL1  H22A  427   1.587   3.498   9.307  1.8032  0.6459 -1.3620
    6CHL1  H22B  428   1.502   3.647   9.296 -1.0269 -3.2864 -0.0165
    6CHL1   C23  429   1.691   3.616   9.182  0.3549 -0.4061 -0.2072
    6CHL1  H23A  430   1.751   3.708   9.162 -1.5634  0.7632 -0.7474
    6CHL1  H23B  431   1.763   3.532   9.187 -0.2338 -0.8942  0.0431
    6CHL1   C24  432   1.603   3.593   9.066 -0.4563  0.1913 -0.7427
    6CHL1  H24A  433   1.550   3.495   9.069 -0.7340  0.2765 -2.5450
    6CHL1  H24B  434   1.526   3.673   9.062  1.3086  1.9489  0.0329
    6CHL1   C25  435   1.675   3.595   8.933 -0.4415  0.2633  0.6214
    6CHL1   H25  436   1.735   3.689   8.929 -0.2618  0.0887 -0.9571
    6CHL1   C26  437   1.760   3.463   8.916 -0.1515 -0.7786  0.2257
    6CHL1  H26A  438   1.808   3.460   8.816 -1.4722 -0.0038 -0.4509
    6CHL1  H26B  439   1.836   3.445   8.995 -2.0858 -0.6853  2.1699
    6CHL1  H26C  440   1.686   3.381   8.906 -1.3769  0.6970 -3.6349
    6CHL1   C27  441   1.580   3.604   8.812  0.4558 -0.8731  0.3356
    6CHL1  H27A  442   1.517   3.695   8.811 -2.2493 -2.6516  1.9942
    6CHL1  H27B  443   1.651   3.605   8.726 -0.0696  1.2952 -0.1044
    6CHL1  H27C  444   1.506   3.522   8.821 -2.9693  2.0372 -0.2384
    7CHL1    C3  445   4.555   0.276  10.349 -0.1787  0.5946  0.2942
    7CHL1    H3  446   4.611   0.371  10.336 -1.8134  1.7151  1.3155
    7CHL1    O3  447   4.575   0.246  10.485  0.1987 -0.0387 -0.1926
    7CHL1   H3'  448   4.537   0.158  10.495 -0.0197  0.4185  3.7320
    7CHL1    C4  449   4.409   0.311  10.321  0.3590 -0.6061 -0.3949
    7CHL1   H4A  450   4.352   0.218  10.346  1.2108 -1.3825 -1.2940
    7CHL1   H4B  451   4.380   0.390  10.393 -0.2972 -1.2010 -0.0053
    7CHL1    C5  452   4.387   0.347  10.174  0.2485  0.4494 -0.3377
    7CHL1    C6  453   4.344   0.468  10.141 -0.1672  0.5205  0.2278
    7CHL1    H6  454   4.313   0.531  10.226 -0.7227 -1.0683  1.2067
    7CHL1    C7  455   4.318   0.518  10.003 -0.3262  0.2175  0.2301
    7CHL1   H7A  456   4.216   0.558   9.984 -1.0920 -2.3869 -1.3418
    7CHL1   H7B  457   4.374   0.613   9.992  0.6658 -0.4311 -0.4187
    7CHL1    C8  458   4.337   0.417   9.894 -0.9001  0.7566 -0.1577
    7CHL1    H8  459   4.244   0.358   9.882 -0.8772  0.0265  2.8047
    7CHL1   C14  460   4.382   0.481   9.762  0.2862 -0.3631  0.2500
    7CHL1   H14  461   4.484   0.518   9.786  1.2223 -1.8063 -1.4222
    7CHL1   C15  462   4.307   0.614   9.727 -0.2816  0.0476  1.0346
    7CHL1  H15A  463   4.199   0.592   9.740 -0.8320  0.0095 -3.0235
    7CHL1  H15B  464   4.357   0.700   9.775  2.7172 -1.2847  0.4106
    7CHL1   C16  465   4.326   0.625   9.576  0.1659 -0.5375 -0.1208
    7CHL1  H16A  466   4.224   0.633   9.531  0.0774  0.4153  0.2205
    7CHL1  H16B  467   4.387   0.712   9.545 -0.1390  0.1892  1.2847
    7CHL1   C17  468   4.411   0.506   9.534 -0.2770 -0.2245 -0.1037
    7CHL1   H17  469   4.518   0.532   9.550 -0.3637 -0.3828  0.7731
    7CHL1   C13  470   4.381   0.390   9.639  1.3290  0.7977  0.0773
    7CHL1   C18  471   4.248   0.325   9.611  0.1919 -0.2178 -0.3924
    7CHL1  H18A  472   4.176   0.401   9.575  0.2569  1.7330  3.2608
    7CHL1  H18B  473   4.260   0.250   9.530 -1.8742 -0.6003 -0.3647
    7CHL1  H18C  474   4.200   0.282   9.702 -2.2207  0.5698 -1.2432
    7CHL1   C12  475   4.496   0.287   9.671  0.3704  0.3551 -0.6961
    7CHL1  H12A  476   4.489   0.206   9.595  0.0193 -2.1496  1.9444
    7CHL1  H12B  477   4.597   0.334   9.666  1.0784 -1.1179 -0.5067
    7CHL1   C11  478   4.478   0.229   9.814 -0.1637  0.1801 -0.2259
    7CHL1  H11A  479   4.394   0.158   9.802  1.4026 -1.7891  0.1682
    7CHL1  H11B  480   4.570   0.175   9.846 -0.0938  0.4587  0.0502
    7CHL1    C9  481   4.448   0.318   9.928 -0.8647 -0.1153 -0.6170
    7CHL1    H9  482   4.540   0.381   9.934  0.0124 -1.3009 -1.2860
    7CHL1   C10  483   4.438   0.243  10.067 -0.2293  0.3036  0.3780
    7CHL1   C19  484   4.338   0.127  10.057 -0.9738 -0.1365  0.3452
    7CHL1  H19A  485   4.314   0.081  10.155  1.5879 -2.4397 -0.0341
    7CHL1  H19B  486   4.250   0.143   9.991 -1.1063  0.4276  0.6553
    7CHL1  H19C  487   4.402   0.048  10.011  0.9512  0.4394  1.9943
    7CHL1    C1  488   4.580   0.198  10.118 -0.4375  0.2749  0.0876
    7CHL1   H1A  489   4.623   0.117  10.054 -0.4057 -1.1326  1.8381
    7CHL1   H1B  490   4.650   0.282  10.100 -1.0882  0.5706 -1.0980
    7CHL1    C2  491   4.596   0.157  10.262  0.2460 -0.4501 -0.3047
    7CHL1   H2A  492   4.700   0.126  10.285  0.1953 -0.8607 -0.6259
    7CHL1   H2B  493   4.531   0.070  10.287  2.5936 -1.7556  1.5226
    7CHL1   C20  494   4.400   0.462   9.385  0.4628  0.2343  0.0796
    7CHL1   H20  495   4.298   0.420   9.376 -0.1622  1.4232  1.4323
    7CHL1   C21  496   4.514   0.362   9.337 -0.6244  0.1450 -0.2731
    7CHL1  H21A  497   4.470   0.304   9.253  0.9444  1.0007 -1.7189
    7CHL1  H21B  498   4.543   0.290   9.417 -0.2124  1.6831  0.9880
    7CHL1  H21C  499   4.610   0.408   9.305 -0.6660  0.5926  0.2419
    7CHL1   C22  500   4.405   0.581   9.290 -0.3073  0.3261  0.2146
    7CHL1  H22A  501   4.334   0.663   9.315 -2.5552 -0.9685 -1.6649
    7CHL1  H22B  502   4.505   0.622   9.264  0.7268 -1.1980  1.6971
    7CHL1   C23  503   4.352   0.540   9.151 -0.5131  0.3811  0.1100
    7CHL1  H23A  504   4.424   0.462   9.118 -0.7558  1.0820 -2.1743
    7CHL1  H23B  505   4.254   0.489   9.156  0.3802 -1.7928 -3.2362
    7CHL1   C24  506   4.359   0.647   9.036 -0.1940 -0.1837 -0.4135
    7CHL1  H24A  507   4.274   0.718   9.049 -2.1330 -2.3665 -0.6209
    7CHL1  H24B  508   4.455   0.701   9.042 -1.4090  1.9899  0.1970
    7CHL1   C25  509   4.341   0.592   8.895  0.1700 -0.3861  0.0419
    7CHL1   H25  510   4.249   0.530   8.888 -0.4225  0.4788  0.0563
    7CHL1   C26  511   4.313   0.699   8.793  0.3904 -0.3767  0.0962
    7CHL1  H26A  512   4.373   0.791   8.811 -1.3686  0.9111 -0.4819
    7CHL1  H26B  513   4.311   0.665   8.687 -0.2778 -0.4531  0.1330
    7CHL1  H26C  514   4.208   0.735   8.798  0.7420  0.2913  5.4953
    7CHL1   C27  515   4.456   0.509   8.843  0.5483  0.4658 -0.2522
    7CHL1  H27A  516   4.459   0.521   8.732 -4.0958 -0.2424 -0.5391
    7CHL1  H27B  517   4.551   0.550   8.882  0.7291 -0.4352  0.2753
    7CHL1  H27C  518   4.447   0.401   8.866 -0.6073  1.2200  3.0205
    8CHL1    C3  519   5.207   1.833  10.190  0.7778 -0.9787  0.2757
    8CHL1    H3  520   5.300   1.808  10.135  0.4210 -0.1263 -0.7340
    8CHL1    O3  521   5.242   1.836  10.327  0.2648 -0.0988 -0.0742
    8CHL1   H3'  522   5.157   1.841  10.371  0.0470 -0.3604 -0.4561
    8CHL1    C4  523   5.149   1.970  10.153  0.6256 -0.4061  0.0323
    8CHL1   H4A  524   5.055   1.979  10.211 -1.7014 -0.0843 -3.6102
    8CHL1   H4B  525   5.219   2.054  10.176 -1.8715  1.0655  2.4607
    8CHL1    C5  526   5.095   1.972  10.009  0.6358  0.6037 -0.1632
    8CHL1    C6  527   5.143   2.063   9.923  0.1630  0.4412 -0.4249
    8CHL1    H6  528   5.216   2.134   9.963 -0.2718  0.6720 -0.0378
    8CHL1    C7  529   5.108   2.069   9.780  0.3829 -0.5826  0.0915
    8CHL1   H7A  530   5.092   2.173   9.744  3.3025 -0.3399 -0.6156
    8CHL1   H7B  531   5.190   2.032   9.715 -0.6216 -2.7873  0.0074
    8CHL1    C8  532   4.975   1.983   9.749 -0.3323 -0.5049  0.9294
    8CHL1    H8  533   4.888   2.041   9.787 -1.2329 -1.3889  0.2457
    8CHL1   C14  534   4.964   1.962   9.598 -0.4973 -0.6223 -0.1514
    8CHL1   H14  535   5.054   1.901   9.575 -0.1110 -1.4898  3.3546
    8CHL1   C15  536   4.991   2.083   9.502 -0.1670 -0.2615  0.0162
    8CHL1  H15A  537   4.935   2.173   9.535 -1.8942 -1.7367  1.1970
    8CHL1  H15B  538   5.098   2.110   9.511  0.1387 -1.9274  1.6303
    8CHL1   C16  539   4.955   2.022   9.368  0.2743  1.0060 -0.1299
    8CHL1  H16A  540   4.886   2.091   9.316 -2.4389 -2.6840 -1.6086
    8CHL1  H16B  541   5.044   1.989   9.310  1.4955 -0.3178  2.3778
    8CHL1   C17  542   4.884   1.886   9.385 -0.2556  0.1865 -0.7638
    8CHL1   H17  543   4.966   1.813   9.368 -0.5798 -0.6260  1.0484
    8CHL1   C13  544   4.854   1.875   9.539 -0.1305 -1.0368  0.3333
    8CHL1   C18  545   4.726   1.953   9.572 -0.0968  0.9459  0.7413
    8CHL1  H18A  546   4.719   1.978   9.680  1.5324  0.6070  0.9284
    8CHL1  H18B  547   4.717   2.043   9.507 -0.4066  0.2010 -0.2475
    8CHL1  H18C  548   4.630   1.899   9.559  1.6576 -2.2367  0.6384
    8CHL1   C12  549   4.851   1.743   9.615  0.0875  0.1092 -0.1302
    8CHL1  H12A  550   4.771   1.672   9.584 -0.9644  0.1641  2.3528
    8CHL1  H12B  551   4.947   1.699   9.581 -0.6351 -1.6376  0.0345
    8CHL1   C11  552   4.867   1.751   9.770  0.0011 -0.2659 -0.7640
    8CHL1  H11A  553   4.767   1.788   9.801 -1.2082 -1.3127 -3.2142
    8CHL1  H11B  554   4.878   1.655   9.825  4.4452  0.2867 -0.5594
    8CHL1    C9  555   4.982   1.848   9.815 -0.5466  0.7149 -0.0255
    8CHL1    H9  556   5.075   1.798   9.781 -0.8064 -0.1580  0.5554
    8CHL1   C10  557   5.000   1.852   9.964 -0.6142  0.5300 -0.2257
    8CHL1   C19  558   4.866   1.891  10.029 -0.0860 -0.7324  0.1740
    8CHL1  H19A  559   4.804   1.800  10.044 -0.7458 -0.4316 -0.7105
    8CHL1  H19B  560   4.868   1.939  10.129 -1.6068 -0.3270  0.0190
    8CHL1  H19C  561   4.818   1.968   9.966  0.6515 -1.7463 -1.6625
    8CHL1    C1  562   5.059   1.719  10.015  0.1781  0.5085 -0.0211
    8CHL1   H1A  563   4.974   1.647  10.023 -0.5912  1.6042  1.9057
    8CHL1   H1B  564   5.135   1.673   9.948 -0.9200 -1.9352  0.3501
    8CHL1    C2  565   5.105   1.722  10.164  0.2103  0.5986  0.2412
    8CHL1   H2A  566   5.142   1.622  10.195 -0.1973 -0.4534 -2.5057
    8CHL1   H2B  567   5.006   1.729  10.214 -0.1689 -4.2825  0.4365
    8CHL1   C20  568   4.775   1.850   9.277 -0.1501  0.1825 -0.7840
    8CHL1   H20  569   4.690   1.916   9.302 -1.2648 -1.3883 -0.3577
    8CHL1   C21  570   4.737   1.702   9.279  0.3207 -0.7134  0.8716
    8CHL1  H21A  571   4.694   1.665   9.375  1.7555 -0.4263  1.6398
    8CHL1  H21B  572   4.836   1.657   9.257  0.8650 -0.5210  2.8001
    8CHL1  H21C  573   4.663   1.676   9.200  2.1885 -1.8201 -0.5603
    8CHL1   C22  574   4.825   1.896   9.133 -0.6475  0.5292 -0.8959
    8CHL1  H22A  575   4.819   2.007   9.134 -0.5981  0.5544  1.4422
    8CHL1  H22B  576   4.932   1.867   9.119 -0.0318  1.8652  0.8589
    8CHL1   C23  577   4.745   1.853   9.012 -0.7649  0.0081  0.5730
    8CHL1  H23A  578   4.757   1.744   8.998 -0.2405  0.2808 -1.3333
    8CHL1  H23B  579   4.642   1.893   9.014 -0.6073  0.6046 -1.4215
    8CHL1   C24  580   4.805   1.916   8.884 -0.1198  0.3382 -0.3290
    8CHL1  H24A  581   4.809   2.026   8.897  0.5224  0.5253 -1.9992
    8CHL1  H24B  582   4.910   1.879   8.886 -0.1274  0.3665  1.5963
    8CHL1   C25  583   4.747   1.859   8.755 -0.2370  0.0107  0.4568
    8CHL1   H25  584   4.691   1.764   8.772  0.2209 -0.4498 -0.5652
    8CHL1   C26  585   4.638   1.953   8.701  0.0650  0.1329  0.1045
    8CHL1  H26A  586   4.598   1.919   8.603  0.1902  2.9766 -0.9868
    8CHL1  H26B  587   4.552   1.967   8.770 -1.0871  0.8125 -1.4443
    8CHL1  H26C  588   4.689   2.050   8.682 -0.8046  0.8025  1.1195
    8CHL1   C27  589   4.847   1.836   8.634 -0.0774  0.1395 -0.0753
    8CHL1  H27A  590   4.927   1.768   8.668 -1.0593 -2.1353 -2.1358
    8CHL1  H27B  591   4.798   1.794   8.543 -0.5015 -0.6891  0.5322
    8CHL1  H27C  592   4.886   1.939   8.620  0.1410  0.2014  0.9557
    9CHL1    C3  593   0.685   4.777  10.303 -0.1116 -0.0411 -0.3685
    9CHL1    H3  594   0.591   4.828  10.272  0.0578 -0.4255 -1.5450
    9CHL1    O3  595   0.686   4.755  10.443 -0.0307 -0.2554  1.0570
    9CHL1   H3'  596   0.778   4.750  10.471  0.7732  0.7045 -1.2121
    9CHL1    C4  597   0.710   4.638  10.241  0.0242  0.1187  0.0200
    9CHL1   H4A  598   0.786   4.579  10.295 -1.3607 -1.4796  0.2686
    9CHL1   H4B  599   0.616   4.582  10.260 -0.3595  0.6318 -0.3317
    9CHL1    C5  600   0.742   4.644  10.093  0.4436  0.1180  0.4052
    9CHL1    C6  601   0.693   4.550  10.012  0.1559 -0.2173 -0.4323
    9CHL1    H6  602   0.621   4.474  10.047 -1.9078  1.5257 -0.7895
    9CHL1    C7  603   0.724   4.545   9.863  0.2335  0.3645 -0.1291
    9CHL1   H7A  604   0.762   4.444   9.834 -0.1281 -0.7636  3.0765
    9CHL1   H7B  605   0.632   4.576   9.810 -0.2606 -2.1653 -0.8233
    9CHL1    C8  606   0.825   4.649   9.807  1.0674  0.6167 -0.4671
    9CHL1    H8  607   0.925   4.602   9.819  0.9060  0.3685 -0.1066
    9CHL1   C14  608   0.792   4.682   9.660  0.1051 -0.4446 -0.4914
    9CHL1   H14  609   0.692   4.729   9.660  0.8045  1.0965 -1.4749
    9CHL1   C15  610   0.787   4.554   9.571  0.4062  0.9675 -0.3388
    9CHL1  H15A  611   0.864   4.480   9.601  0.5299  0.3745 -2.0593
    9CHL1  H15B  612   0.688   4.505   9.579  1.0293 -0.4443 -1.0338
    9CHL1   C16  613   0.815   4.605   9.424  0.2610  0.1057  0.2476
    9CHL1  H16A  614   0.900   4.548   9.380  1.4903  2.5925 -0.7273
    9CHL1  H16B  615   0.727   4.592   9.357  0.8672  1.3374 -0.8261
    9CHL1   C17  616   0.836   4.760   9.446  0.5004 -0.6617 -0.3970
    9CHL1   H17  617   0.734   4.803   9.450  1.3555  1.4299  0.2044
    9CHL1   C13  618   0.888   4.773   9.591  0.7128  1.1838  0.0301
    9CHL1   C18  619   1.034   4.706   9.594  0.1742 -0.4242 -0.3904
    9CHL1  H18A  620   1.025   4.597   9.575  0.1970 -0.5953  0.5237
    9CHL1  H18B  621   1.092   4.768   9.522  0.7935  1.8977  1.9943
    9CHL1  H18C  622   1.082   4.723   9.693 -1.2618  1.6066  0.0101
    9CHL1   C12  623   0.892   4.904   9.674  0.5325 -0.8144 -0.6450
    9CHL1  H12A  624   0.973   4.969   9.634  0.0857  0.5093  0.5403
    9CHL1  H12B  625   0.792   4.951   9.661  0.9326  0.8598  1.8401
    9CHL1   C11  626   0.917   4.884   9.825 -0.2436  0.0382 -0.3155
    9CHL1  H11A  627   1.021   4.850   9.845 -0.3224  0.2286  0.4475
    9CHL1  H11B  628   0.916   4.990   9.858 -2.2990  0.6323 -2.2281
    9CHL1    C9  629   0.822   4.786   9.895  0.2388 -0.3755  0.3348
    9CHL1    H9  630   0.714   4.814   9.896  0.1720 -0.5752 -0.6392
    9CHL1   C10  631   0.836   4.752  10.045  0.3657  0.1755 -0.0600
    9CHL1   C19  632   0.984   4.721  10.069  0.2070  0.1271  0.4627
    9CHL1  H19A  633   1.060   4.800  10.049 -0.6974  1.1241  0.9155
    9CHL1  H19B  634   0.986   4.688  10.175 -0.3081  0.3925  0.5554
    9CHL1  H19C  635   1.018   4.634  10.010  2.8678 -0.8043  3.2276
    9CHL1    C1  636   0.811   4.888  10.125 -0.1373  0.6665 -0.0794
    9CHL1   H1A  637   0.900   4.949  10.101  1.0120 -0.3372  1.5022
    9CHL1   H1B  638   0.721   4.931  10.077  0.6259  0.4509 -1.7180
    9CHL1    C2  639   0.806   4.870  10.275 -0.3585  0.7748 -0.3910
    9CHL1   H2A  640   0.792   4.964  10.332  2.5110  1.6552 -1.0609
    9CHL1   H2B  641   0.896   4.819  10.316 -1.1473 -1.2751 -1.1497
    9CHL1   C20  642   0.911   4.833   9.335 -0.2493  0.4888  0.1287
    9CHL1   H20  643   1.021   4.819   9.342 -0.1484  0.1683 -1.8018
    9CHL1   C21  644   0.881   4.985   9.335  0.2450 -0.0768  0.3305
    9CHL1  H21A  645   0.915   5.017   9.436 -0.1487  1.6852 -0.0844
    9CHL1  H21B  646   0.773   5.008   9.335  0.2233 -0.1258  1.9258
    9CHL1  H21C  647   0.933   5.043   9.256 -0.4899 -0.1825 -0.2269
    9CHL1   C22  648   0.893   4.781   9.195 -0.2651  0.0769  0.0761
    9CHL1  H22A  649   0.957   4.837   9.123 -0.7093 -0.2541 -0.5805
    9CHL1  H22B  650   0.925   4.675   9.197 -0.9758 -0.1324  1.7230
    9CHL1   C23  651   0.749   4.796   9.133 -0.5171  0.0687 -0.1462
    9CHL1  H23A  652   0.671   4.751   9.198 -0.3254 -0.3958 -0.2379
    9CHL1  H23B  653   0.718   4.903   9.130  1.4980  0.6514 -0.8555
    9CHL1   C24  654   0.745   4.727   8.996 -0.0843 -0.0264 -0.2522
    9CHL1  H24A  655   0.815   4.779   8.927 -2.3971  0.1866 -2.4717
    9CHL1  H24B  656   0.775   4.620   8.991  0.2056 -0.0839  1.9052
    9CHL1   C25  657   0.613   4.742   8.914 -0.0106 -0.7100 -0.4202
    9CHL1   H25  658   0.571   4.843   8.932 -0.7578 -1.2596  1.0426
    9CHL1   C26  659   0.650   4.727   8.761  0.2838  0.2322  0.6006
    9CHL1  H26A  660   0.561   4.747   8.698 -1.4829  1.9943  3.5295
    9CHL1  H26B  661   0.721   4.808   8.735 -0.4031  0.6162 -0.0949
    9CHL1  H26C  662   0.685   4.624   8.741  0.0275  0.2391  0.1039
    9CHL1   C27  663   0.527   4.622   8.946 -0.1317 -0.5684 -0.1677
    9CHL1  H27A  664   0.567   4.528   8.903  0.3553 -0.4551  0.0198
    9CHL1  H27B  665   0.538   4.611   9.057  0.1420 -0.6796 -0.2065
    9CHL1  H27C  666   0.421   4.644   8.921  0.1554 -0.7876 -1.6200
   10CHL1    C3  667   0.627   1.879  10.014 -0.4058  0.2395 -0.2642
   10CHL1    H3  668   0.552   1.957   9.991 -0.9282 -0.6705 -1.7316
   10CHL1    O3  669   0.670   1.897  10.146 -0.0322  0.2398 -0.0363
   10CHL1   H3'  670   0.586   1.900  10.191  0.4130  2.8180  0.7369
   10CHL1    C4  671   0.563   1.740  10.000  0.0781 -0.6656 -0.3876
   10CHL1   H4A  672   0.641   1.665  10.027  0.4057  0.5830  2.3413
   10CHL1   H4B  673   0.480   1.731  10.074  1.0685 -2.0253  0.5795
   10CHL1    C5  674   0.507   1.731   9.853 -0.4256  0.7040 -0.6330
   10CHL1    C6  675   0.376   1.727   9.828  0.1619 -0.7134 -0.3465
   10CHL1    H6  676   0.301   1.732   9.909  0.0751 -2.1851 -0.3231
   10CHL1    C7  677   0.320   1.722   9.687  0.1938 -0.4140  0.0323
   10CHL1   H7A  678   0.237   1.648   9.693  0.6288 -0.8581  0.7398
   10CHL1   H7B  679   0.276   1.821   9.660 -1.1358 -0.9519  0.1769
   10CHL1    C8  680   0.430   1.684   9.585 -0.5302 -0.0465  0.0773
   10CHL1    H8  681   0.453   1.578   9.609 -1.6646 -0.3498 -0.1544
   10CHL1   C14  682   0.378   1.708   9.445 -0.2140 -0.4375  0.0456
   10CHL1   H14  683   0.363   1.817   9.429  1.3828 -0.5086 -2.1292
   10CHL1   C15  684   0.235   1.649   9.412 -0.0914 -0.6345 -0.3847
   10CHL1  H15A  685   0.217   1.547   9.453  1.0226 -0.6052  0.2013
   10CHL1  H15B  686   0.167   1.721   9.463  0.4541 -0.9963  0.8965
   10CHL1   C16  687   0.240   1.646   9.253 -1.2931 -0.4967 -0.0958
   10CHL1  H16A  688   0.207   1.544   9.222 -2.1031  0.0525 -1.0809
   10CHL1  H16B  689   0.163   1.720   9.223 -0.9366  0.8071  2.0596
   10CHL1   C17  690   0.379   1.683   9.206  0.4752  0.0824  0.0635
   10CHL1   H17  691   0.370   1.792   9.187 -1.7182 -0.1556 -0.4018
   10CHL1   C13  692   0.468   1.666   9.329 -0.2712 -0.2188 -0.0823
   10CHL1   C18  693   0.506   1.517   9.345 -0.7196  0.2263 -0.7171
   10CHL1  H18A  694   0.408   1.466   9.360 -0.7982  0.9481  1.2882
   10CHL1  H18B  695   0.559   1.473   9.257 -1.3278 -1.4474 -0.2605
   10CHL1  H18C  696   0.568   1.489   9.432 -2.3270 -2.6329 -0.4421
   10CHL1   C12  697   0.593   1.760   9.340 -0.3462  0.0780  0.1271
   10CHL1  H12A  698   0.662   1.733   9.257 -0.9698  0.9556 -0.7037
   10CHL1  H12B  699   0.570   1.866   9.316 -0.7698  0.0897  0.5975
   10CHL1   C11  700   0.655   1.746   9.480 -0.5044 -0.7887  0.0773
   10CHL1  H11A  701   0.687   1.640   9.481 -0.3618 -0.7429  0.5448
   10CHL1  H11B  702   0.748   1.807   9.493  0.4660 -1.5731 -2.7764
   10CHL1    C9  703   0.557   1.774   9.599 -0.3778  0.5743  0.1100
   10CHL1    H9  704   0.524   1.879   9.585  0.7501  1.2239  2.0499
   10CHL1   C10  705   0.613   1.751   9.741  0.6458  0.0721  0.0613
   10CHL1   C19  706   0.715   1.629   9.745 -0.5089 -0.2546 -0.8784
   10CHL1  H19A  707   0.780   1.618   9.655  0.2338 -2.1692 -0.1368
   10CHL1  H19B  708   0.776   1.638   9.837 -0.3078  0.2100 -1.0587
   10CHL1  H19C  709   0.657   1.534   9.754 -1.2725  0.1346 -1.6614
   10CHL1    C1  710   0.704   1.880   9.770  0.7136  0.2961  0.0902
   10CHL1   H1A  711   0.792   1.881   9.701  0.8728 -1.4763  0.2331
   10CHL1   H1B  712   0.644   1.971   9.747  0.6135  0.5786  1.4666
   10CHL1    C2  713   0.746   1.890   9.917  0.3894  0.0519 -0.6410
   10CHL1   H2A  714   0.776   1.996   9.936 -2.1757  1.1427 -2.2644
   10CHL1   H2B  715   0.825   1.821   9.952  1.0580  0.9243 -0.4016
   10CHL1   C20  716   0.404   1.622   9.072  0.6192  0.4364 -0.2287
   10CHL1   H20  717   0.393   1.512   9.078 -0.0025  0.5420  0.6370
   10CHL1   C21  718   0.541   1.646   9.021  0.2462  0.3082 -0.1082
   10CHL1  H21A  719   0.567   1.753   9.033  1.4536 -0.0412  0.4135
   10CHL1  H21B  720   0.561   1.625   8.914 -0.1424  0.7740 -0.2737
   10CHL1  H21C  721   0.615   1.588   9.080 -1.0920 -2.5229 -1.0917
   10CHL1   C22  722   0.300   1.666   8.967  0.3477  0.3216  1.0508
   10CHL1  H22A  723   0.199   1.672   9.013 -0.0814  1.3947  0.0125
   10CHL1  H22B  724   0.317   1.772   8.937  0.1955  0.5669  1.8362
   10CHL1   C23  725   0.312   1.605   8.827 -0.2444  0.6796  0.5391
   10CHL1  H23A  726   0.409   1.640   8.786  1.1850 -2.2376  1.3382
   10CHL1  H23B  727   0.313   1.494   8.832  0.2309  0.5683 -1.5450
   10CHL1   C24  728   0.196   1.638   8.733  0.0904 -0.3934 -0.1813
   10CHL1  H24A  729   0.188   1.749   8.725  0.1165 -0.4543 -1.1383
   10CHL1  H24B  730   0.214   1.628   8.624  1.6037  1.6379 -0.1470
   10CHL1   C25  731   0.054   1.581   8.774  0.2481  0.0009  1.1180
   10CHL1   H25  732   0.039   1.599   8.883 -1.3011 -0.3034  0.9742
   10CHL1   C26  733  -0.052   1.641   8.690  0.4314  0.0801 -0.1970
   10CHL1  H26A  734  -0.043   1.596   8.589 -1.1607 -1.3693  0.2757
   10CHL1  H26B  735  -0.151   1.608   8.730 -0.2406  1.4259 -0.7353
   10CHL1  H26C  736  -0.041   1.751   8.678  1.8318  0.0315  0.5314
   10CHL1   C27  737   0.047   1.430   8.759  0.7171 -0.3980 -0.9160
   10CHL1  H27A  738   0.117   1.380   8.830  0.9097  1.3485  0.1526
   10CHL1  H27B  739  -0.053   1.385   8.776  0.3859  0.1220 -1.4631
   10CHL1  H27C  740   0.068   1.394   8.656  0.1063 -3.1641 -0.1322
   11CHL1    C3  741   2.487   5.068  10.112 -0.1374 -0.1583 -0.3339
   11CHL1    H3  742   2.593   5.036  10.101  0.1004  0.7077 -0.6653
   11CHL1    O3  743   2.457   5.063  10.249 -0.7078 -0.1791 -1.1310
   11CHL1   H3'  744   2.487   4.977  10.278  0.8495 -0.0387 -2.2549
   11CHL1    C4  745   2.471   5.213  10.071  0.5963 -0.5889  0.5828
   11CHL1   H4A  746   2.375   5.255  10.109  1.3330  0.9983  0.7429
   11CHL1   H4B  747   2.533   5.280  10.133 -0.9276  0.7822  0.6758
   11CHL1    C5  748   2.494   5.237   9.925 -0.6502  0.3065  0.0301
   11CHL1    C6  749   2.588   5.326   9.883  1.1258 -0.1080  0.2737
   11CHL1    H6  750   2.643   5.382   9.961 -0.2671  0.6725  0.7186
   11CHL1    C7  751   2.609   5.356   9.743  0.2542 -0.4888  0.7145
   11CHL1   H7A  752   2.601   5.466   9.730 -1.6155 -0.5244  1.4402
   11CHL1   H7B  753   2.713   5.333   9.713  0.0175 -0.2469 -0.3258
   11CHL1    C8  754   2.513   5.289   9.643  0.7864  0.1105 -0.2188
   11CHL1    H8  755   2.422   5.352   9.657  1.1912  0.7335 -0.3929
   11CHL1   C14  756   2.560   5.295   9.498 -0.0628 -0.3897  0.2470
   11CHL1   H14  757   2.659   5.244   9.504 -0.3963 -0.8867  1.9067
   11CHL1   C15  758   2.626   5.426   9.436 -0.2322  0.5365  0.2757
   11CHL1  H15A  759   2.568   5.519   9.452  0.4582  0.7746  1.3849
   11CHL1  H15B  760   2.729   5.436   9.477 -0.2503 -0.4610  0.5715
   11CHL1   C16  761   2.627   5.393   9.280  0.8310 -0.1894 -0.3089
   11CHL1  H16A  762   2.568   5.478   9.239 -1.2519 -1.6369 -0.3826
   11CHL1  H16B  763   2.732   5.395   9.245  0.4879  0.3455 -1.3413
   11CHL1   C17  764   2.568   5.246   9.271 -0.4248  0.4783 -0.1863
   11CHL1   H17  765   2.652   5.176   9.288 -0.2438  0.8853  0.6086
   11CHL1   C13  766   2.482   5.225   9.396 -1.0881  0.2758 -0.8367
   11CHL1   C18  767   2.349   5.295   9.367 -0.6356 -0.1080  0.3809
   11CHL1  H18A  768   2.364   5.405   9.353 -0.7024 -0.3702 -2.0121
   11CHL1  H18B  769   2.300   5.250   9.278  1.6262 -1.3281 -0.2662
   11CHL1  H18C  770   2.282   5.285   9.455 -0.6334  0.0673  0.4049
   11CHL1   C12  771   2.457   5.079   9.447 -1.2116 -0.4478 -0.1234
   11CHL1  H12A  772   2.386   5.023   9.382 -0.8986 -1.1128  0.1104
   11CHL1  H12B  773   2.552   5.023   9.451 -1.6554 -1.0901  1.9339
   11CHL1   C11  774   2.388   5.074   9.584 -0.4769  0.3309  0.4574
   11CHL1  H11A  775   2.286   5.117   9.579 -0.9491 -0.4528  2.6167
   11CHL1  H11B  776   2.361   4.970   9.611 -1.5425  1.0382  2.2118
   11CHL1    C9  777   2.474   5.148   9.689  1.1518 -0.5332  0.3482
   11CHL1    H9  778   2.565   5.085   9.699  1.9026  0.4750  0.0053
   11CHL1   C10  779   2.414   5.146   9.832 -0.3879 -0.7433 -0.0681
   11CHL1   C19  780   2.268   5.202   9.834 -0.1017  0.4369  0.3506
   11CHL1  H19A  781   2.269   5.300   9.782  0.5645  0.0545 -0.3667
   11CHL1  H19B  782   2.197   5.131   9.786  2.6958 -3.7027  2.0429
   11CHL1  H19C  783   2.238   5.215   9.940  1.8114  0.1266  0.9521
   11CHL1    C1  784   2.413   4.996   9.887 -0.1852 -0.1404 -0.1147
   11CHL1   H1A  785   2.335   4.944   9.828  0.5533 -0.9800 -0.3533
   11CHL1   H1B  786   2.512   4.953   9.861 -1.1598 -1.5150 -1.6089
   11CHL1    C2  787   2.394   4.974  10.038  0.1580 -0.9356  0.1540
   11CHL1   H2A  788   2.394   4.868  10.070  0.4247 -1.0788 -0.3279
   11CHL1   H2B  789   2.292   5.005  10.071 -0.0972  1.3932 -2.6352
   11CHL1   C20  790   2.503   5.211   9.129  0.0403  0.3627 -0.2504
   11CHL1   H20  791   2.426   5.291   9.123  0.8999  1.1398 -1.2234
   11CHL1   C21  792   2.437   5.066   9.115 -0.6068 -0.7696  0.4503
   11CHL1  H21A  793   2.352   5.051   9.185 -1.6689  2.0961 -0.1581
   11CHL1  H21B  794   2.517   4.992   9.134  0.7952  0.2954 -1.1576
   11CHL1  H21C  795   2.400   5.051   9.011 -0.0950  0.1477  0.1357
   11CHL1   C22  796   2.603   5.230   9.009 -0.1282  0.7224  0.4030
   11CHL1  H22A  797   2.663   5.321   9.031  0.6684  0.6195 -1.2721
   11CHL1  H22B  798   2.667   5.140   9.018 -0.9516  0.2122  1.2305
   11CHL1   C23  799   2.531   5.259   8.874  0.5094  0.3040 -0.1993
   11CHL1  H23A  800   2.464   5.174   8.852 -1.8490  1.4600  2.1691
   11CHL1  H23B  801   2.480   5.357   8.888  0.5644  0.5299 -1.5494
   11CHL1   C24  802   2.639   5.268   8.765  0.5478  0.4946  0.3371
   11CHL1  H24A  803   2.676   5.373   8.760 -0.3223  0.7819 -0.3251
   11CHL1  H24B  804   2.721   5.195   8.777  1.5784  1.4043 -1.0775
   11CHL1   C25  805   2.572   5.258   8.622  0.3620  1.1078 -0.1300
   11CHL1   H25  806   2.518   5.161   8.616 -0.0803  1.4472 -1.8165
   11CHL1   C26  807   2.466   5.363   8.598 -0.0948 -0.6929  0.6963
   11CHL1  H26A  808   2.512   5.464   8.595 -3.1637  0.7955  2.2958
   11CHL1  H26B  809   2.408   5.351   8.504 -1.3502  2.1983  1.0687
   11CHL1  H26C  810   2.379   5.371   8.665 -0.4034 -0.7123  0.2997
   11CHL1   C27  811   2.677   5.270   8.508  0.3679 -0.4012  0.3909
   11CHL1  H27A  812   2.634   5.264   8.406  4.2919 -0.8042 -1.3155
   11CHL1  H27B  813   2.731   5.367   8.517  2.5291 -1.6989  1.9323
   11CHL1  H27C  814   2.748   5.185   8.499  0.5514 -0.2858  0.7239
   12CHL1    C3  815   5.941   1.062  10.153  0.1944 -0.2460 -0.3062
   12CHL1    H3  816   6.016   1.138  10.123  0.3700  0.4467  1.8176
   12CHL1    O3  817   5.969   1.022  10.287  0.5590  0.1637  0.5255
   12CHL1   H3'  818   5.922   0.940  10.306  1.2091 -0.3373 -0.0131
   12CHL1    C4  819   5.811   1.139  10.134 -0.1313 -0.0684  0.5284
   12CHL1   H4A  820   5.728   1.081  10.180 -1.2462  2.4695  1.7501
   12CHL1   H4B  821   5.811   1.228  10.199  0.0450  1.2365 -1.2173
   12CHL1    C5  822   5.796   1.183   9.990  0.7038 -0.0302  0.4653
   12CHL1    C6  823   5.796   1.315   9.955 -0.9269 -0.5099  1.1040
   12CHL1    H6  824   5.805   1.387  10.038  0.5243 -1.8732  2.1750
   12CHL1    C7  825   5.765   1.375   9.822  0.7442  0.0486  0.2024
   12CHL1   H7A  826   5.694   1.458   9.841  0.1668 -0.2650 -0.5515
   12CHL1   H7B  827   5.853   1.424   9.776  0.7415 -0.5739 -0.4724
   12CHL1    C8  828   5.713   1.269   9.727 -0.2003  0.4301 -0.3366
   12CHL1    H8  829   5.610   1.241   9.759  0.4651 -0.2215  1.2927
   12CHL1   C14  830   5.718   1.321   9.581 -0.1302 -0.0855  0.0836
   12CHL1   H14  831   5.825   1.327   9.554 -0.8437  1.5030 -2.5941
   12CHL1   C15  832   5.655   1.455   9.557 -0.0424  0.0987  0.1744
   12CHL1  H15A  833   5.558   1.458   9.612  1.9116 -1.3884  3.8983
   12CHL1  H15B  834   5.710   1.543   9.597  0.2203  0.5476 -1.1582
   12CHL1   C16  835   5.632   1.457   9.401 -0.2404 -0.2353  0.6542
   12CHL1  H16A  836   5.529   1.489   9.379  0.2950 -0.1401 -1.8248
   12CHL1  H16B  837   5.699   1.531   9.353  1.2458 -2.7821 -1.3887
   12CHL1   C17  838   5.669   1.312   9.353 -0.4035 -0.9060 -0.2159
   12CHL1   H17  839   5.777   1.311   9.329 -0.5067 -0.1007 -0.7463
   12CHL1   C13  840   5.662   1.224   9.482  1.0965 -0.1416  0.0104
   12CHL1   C18  841   5.512   1.180   9.514 -0.4206  0.4488  0.2624
   12CHL1  H18A  842   5.483   1.094   9.450  0.2600  0.2548  0.2171
   12CHL1  H18B  843   5.504   1.150   9.620 -1.1500  0.3964  0.1983
   12CHL1  H18C  844   5.448   1.269   9.495  0.3140  0.9865  0.2888
   12CHL1   C12  845   5.741   1.099   9.487  0.1364  0.2378  0.0132
   12CHL1  H12A  846   5.688   1.026   9.422  1.2879  0.0407 -0.7120
   12CHL1  H12B  847   5.845   1.117   9.454  0.8882 -2.0866  1.0318
   12CHL1   C11  848   5.742   1.036   9.632 -0.3300  0.1183 -0.2592
   12CHL1  H11A  849   5.639   1.000   9.655 -1.1696  0.8776 -2.6591
   12CHL1  H11B  850   5.799   0.941   9.641  0.0987  0.4259  0.2909
   12CHL1    C9  851   5.790   1.135   9.739 -0.4697 -0.4181  0.2872
   12CHL1    H9  852   5.896   1.154   9.713 -0.6566  4.0599  2.2548
   12CHL1   C10  853   5.788   1.071   9.885  0.5899  0.6631 -0.3252
   12CHL1   C19  854   5.656   0.986   9.914  0.3853 -0.3339  0.8721
   12CHL1  H19A  855   5.570   1.038   9.867  0.2210  0.0938  1.6369
   12CHL1  H19B  856   5.671   0.883   9.875 -0.4648 -0.2833  0.3987
   12CHL1  H19C  857   5.622   0.973  10.018 -0.2397  0.4484  0.7679
   12CHL1    C1  858   5.915   0.983   9.920  0.5249  0.2642  0.4777
   12CHL1   H1A  859   5.916   0.901   9.845 -1.0119  3.1519 -2.8634
   12CHL1   H1B  860   6.010   1.038   9.901 -0.3911  1.8393  0.3818
   12CHL1    C2  861   5.938   0.934  10.065 -0.5170 -0.8701  0.8501
   12CHL1   H2A  862   6.030   0.873  10.066 -0.6346 -1.0222  2.2159
   12CHL1   H2B  863   5.857   0.869  10.104  0.1303 -1.5625  1.0347
   12CHL1   C20  864   5.594   1.280   9.222 -0.6057  0.5554 -0.7574
   12CHL1   H20  865   5.485   1.279   9.241 -0.4765  4.5125  0.5653
   12CHL1   C21  866   5.641   1.141   9.180  0.7025  0.5446  0.4813
   12CHL1  H21A  867   5.620   1.123   9.072 -2.0997 -0.0471  1.0832
   12CHL1  H21B  868   5.587   1.063   9.237  2.5622 -2.0395 -1.1805
   12CHL1  H21C  869   5.746   1.113   9.200 -0.3179 -1.7396  2.9026
   12CHL1   C22  870   5.617   1.385   9.113  0.3902  0.0724 -0.3492
   12CHL1  H22A  871   5.609   1.490   9.151  2.2145  0.3206 -0.6056
   12CHL1  H22B  872   5.718   1.373   9.070  0.3911  0.5483 -0.4831
   12CHL1   C23  873   5.524   1.370   8.992  0.8936 -0.3126  0.6629
   12CHL1  H23A  874   5.562   1.282   8.935  0.3897 -0.6906  0.9093
   12CHL1  H23B  875   5.421   1.351   9.027  0.9195 -1.2435  0.2633
   12CHL1   C24  876   5.527   1.473   8.881 -0.1534 -0.1927 -0.0767
   12CHL1  H24A  877   5.466   1.441   8.794  0.3638 -0.2354 -0.4272
   12CHL1  H24B  878   5.485   1.569   8.918  2.7668  0.7945  0.7922
   12CHL1   C25  879   5.667   1.516   8.840 -0.2855  0.3892 -0.0963
   12CHL1   H25  880   5.714   1.549   8.935  0.6087 -2.5532  0.5518
   12CHL1   C26  881   5.757   1.408   8.777 -0.0961  0.1091 -0.0977
   12CHL1  H26A  882   5.713   1.382   8.679  1.0403  2.3720 -1.2391
   12CHL1  H26B  883   5.854   1.459   8.758  0.4113 -1.5132 -1.9677
   12CHL1  H26C  884   5.766   1.316   8.839 -0.0761  0.9247  1.1460
   12CHL1   C27  885   5.645   1.630   8.743 -0.7360 -0.2854 -0.3457
   12CHL1  H27A  886   5.571   1.605   8.664 -1.5549 -1.2938  0.7277
   12CHL1  H27B  887   5.613   1.727   8.788 -2.5342  0.1443 -2.4566
   12CHL1  H27C  888   5.738   1.650   8.685 -2.6831  0.5847 -3.3059
   13CHL1    C3  889   4.667   3.257   9.803  0.0922  0.0725 -0.2546
   13CHL1    H3  890   4.678   3.346   9.738  0.1822  0.5681  0.4240
   13CHL1    O3  891   4.630   3.286   9.937 -0.7844 -0.4457 -0.5032
   13CHL1   H3'  892   4.645   3.206   9.986  0.5248 -0.0080 -0.1681
   13CHL1    C4  893   4.558   3.167   9.730 -0.4209  0.0906 -0.5263
   13CHL1   H4A  894   4.548   3.068   9.780 -0.6452  0.6319  0.5322
   13CHL1   H4B  895   4.456   3.209   9.741 -0.6203  0.1772 -2.6039
   13CHL1    C5  896   4.593   3.149   9.581 -0.4728  0.6308 -0.9184
   13CHL1    C6  897   4.508   3.184   9.486  0.0534 -0.5651  0.4801
   13CHL1    H6  898   4.408   3.218   9.517  0.3794  1.6556 -0.8128
   13CHL1    C7  899   4.531   3.169   9.340  0.3769 -0.2121 -0.4637
   13CHL1   H7A  900   4.436   3.138   9.293 -0.0916 -0.3458  0.5553
   13CHL1   H7B  901   4.561   3.270   9.304 -0.2530  1.2201  2.8535
   13CHL1    C8  902   4.646   3.068   9.317 -0.1765  0.1494  0.0268
   13CHL1    H8  903   4.602   2.969   9.340  1.7457 -0.4802  1.1839
   13CHL1   C14  904   4.688   3.080   9.170 -0.0266  1.0866 -0.6336
   13CHL1   H14  905   4.731   3.182   9.154 -0.7230  1.8508  2.1423
   13CHL1   C15  906   4.574   3.068   9.060 -0.1676 -0.4106 -0.1127
   13CHL1  H15A  907   4.503   2.986   9.083  0.8683 -1.3665 -0.2544
   13CHL1  H15B  908   4.534   3.170   9.047 -0.3758 -0.0241  3.0565
   13CHL1   C16  909   4.669   3.030   8.940  0.5490  0.1403  0.0473
   13CHL1  H16A  910   4.637   2.931   8.901  0.5440 -0.3494  1.3018
   13CHL1  H16B  911   4.664   3.102   8.855 -2.6120 -0.5250 -0.3825
   13CHL1   C17  912   4.818   3.003   8.983 -0.8378 -0.6793  0.1560
   13CHL1   H17  913   4.869   3.101   8.966  1.9414 -1.8710  1.3217
   13CHL1   C13  914   4.803   2.978   9.136 -0.1973 -0.3269  0.0123
   13CHL1   C18  915   4.748   2.833   9.160  0.1884 -0.2895 -0.0844
   13CHL1  H18A  916   4.830   2.762   9.137 -0.5246 -0.5371 -2.0006
   13CHL1  H18B  917   4.731   2.815   9.268  1.4621 -2.9259 -0.2927
   13CHL1  H18C  918   4.662   2.798   9.099 -0.0923  0.6248 -0.2219
   13CHL1   C12  919   4.927   3.004   9.225 -0.1983 -0.8724  0.0252
   13CHL1  H12A  920   4.993   2.915   9.222  2.8048  1.2636  0.6938
   13CHL1  H12B  921   4.988   3.092   9.195  1.9330 -2.3900 -0.2083
   13CHL1   C11  922   4.890   3.013   9.383  0.2795  0.0671  0.1125
   13CHL1  H11A  923   4.877   2.907   9.411  3.1915  0.3017  2.6356
   13CHL1  H11B  924   4.975   3.050   9.445 -0.3432  3.6192 -1.0052
   13CHL1    C9  925   4.765   3.101   9.410  0.2242 -0.0610 -0.2825
   13CHL1    H9  926   4.799   3.206   9.399  0.2204  0.1481  1.5332
   13CHL1   C10  927   4.731   3.092   9.561 -0.2569 -0.1714 -0.1669
   13CHL1   C19  928   4.731   2.942   9.615 -0.3025 -0.6820 -0.2350
   13CHL1  H19A  929   4.671   2.882   9.543  1.0311 -0.9662 -1.1158
   13CHL1  H19B  930   4.835   2.905   9.612 -0.5893 -1.5089 -0.0990
   13CHL1  H19C  931   4.698   2.936   9.721  1.2354  3.2469  0.5490
   13CHL1    C1  932   4.844   3.171   9.647 -0.0021  0.2275  0.2631
   13CHL1   H1A  933   4.940   3.115   9.643  0.3268  0.5426  2.6376
   13CHL1   H1B  934   4.841   3.270   9.597 -1.0957 -0.3321 -0.8011
   13CHL1    C2  935   4.805   3.185   9.792 -0.2550  0.1136 -0.3699
   13CHL1   H2A  936   4.889   3.239   9.840  2.2503 -2.6730 -1.4767
   13CHL1   H2B  937   4.815   3.092   9.852 -2.0157  0.1083 -0.0392
   13CHL1   C20  938   4.892   2.899   8.896 -0.2559  0.2578 -0.2478
   13CHL1   H20  939   4.851   2.796   8.884 -0.8963  0.6080 -1.0878
   13CHL1   C21  940   5.030   2.855   8.967 -0.2556  0.1881  0.0993
   13CHL1  H21A  941   5.093   2.792   8.900 -1.3192  0.3847 -1.0878
   13CHL1  H21B  942   5.016   2.792   9.058  1.5527  0.2017  0.4061
   13CHL1  H21C  943   5.091   2.941   9.001 -0.8432 -0.0062  1.6987
   13CHL1   C22  944   4.911   2.962   8.761 -0.5401  0.2785  0.8513
   13CHL1  H22A  945   4.809   2.986   8.722  0.1389 -0.0387 -1.1851
   13CHL1  H22B  946   4.957   3.063   8.767 -1.3449  0.6865  0.2616
   13CHL1   C23  947   5.003   2.883   8.669  0.2940  0.0070  0.8589
   13CHL1  H23A  948   5.102   2.877   8.720  0.8104 -2.5950 -0.3854
   13CHL1  H23B  949   4.962   2.781   8.653  0.9247 -0.1892  0.4918
   13CHL1   C24  950   5.048   2.941   8.536  0.1993 -0.2687 -0.3611
   13CHL1  H24A  951   4.954   2.960   8.480  0.2537 -3.5069 -1.6936
   13CHL1  H24B  952   5.098   3.038   8.554 -1.1727  0.8139 -2.1322
   13CHL1   C25  953   5.137   2.841   8.457 -0.1117  0.4587  0.8813
   13CHL1   H25  954   5.197   2.795   8.538 -0.1792 -0.9158  0.1739
   13CHL1   C26  955   5.068   2.734   8.379  0.5649  0.1224 -0.1541
   13CHL1  H26A  956   5.136   2.701   8.297  2.9439 -0.7589  2.1179
   13CHL1  H26B  957   5.038   2.652   8.448 -1.8895  1.3696  0.2998
   13CHL1  H26C  958   4.976   2.767   8.325 -1.1229 -1.2573  1.8129
   13CHL1   C27  959   5.219   2.923   8.364  0.1526  0.5229  0.1352
   13CHL1  H27A  960   5.159   2.968   8.282  1.6434  2.7748  0.2390
   13CHL1  H27B  961   5.254   3.018   8.410 -2.9980  1.8795 -0.1452
   13CHL1  H27C  962   5.310   2.873   8.324  0.6016  1.7302 -0.3711
   14CHL1    C3  963   4.311   6.430  10.358  0.0783  0.4338  0.3788
   14CHL1    H3  964   4.215   6.486  10.354 -1.6383 -2.2142  2.5592
   14CHL1    O3  965   4.324   6.370  10.484 -0.2028 -0.4536 -0.3488
   14CHL1   H3'  966   4.394   6.307  10.471 -0.9937 -1.0437 -1.8068
   14CHL1    C4  967   4.291   6.314  10.261 -0.3599 -0.2236  0.3694
   14CHL1   H4A  968   4.372   6.238  10.267 -0.2712 -0.2658 -1.0539
   14CHL1   H4B  969   4.202   6.251  10.285 -0.4844  0.2656  1.1817
   14CHL1    C5  970   4.285   6.357  10.119  0.9591  0.4484  0.1642
   14CHL1    C6  971   4.179   6.325  10.032  0.2274 -0.7681  0.5158
   14CHL1    H6  972   4.095   6.264  10.069 -0.8492  0.1677 -0.3821
   14CHL1    C7  973   4.175   6.349   9.884 -0.0378 -0.9305 -0.1187
   14CHL1   H7A  974   4.159   6.250   9.838 -1.5768 -1.5860  1.7539
   14CHL1   H7B  975   4.085   6.412   9.867  0.3556 -0.2880  0.1324
   14CHL1    C8  976   4.313   6.405   9.837 -0.1605 -0.2655  0.3694
   14CHL1    H8  977   4.383   6.320   9.823  1.6117  1.1469  0.5844
   14CHL1   C14  978   4.292   6.473   9.705  0.5556  0.2003  0.7393
   14CHL1   H14  979   4.232   6.563   9.728  1.2660  0.3215  2.2569
   14CHL1   C15  980   4.218   6.405   9.589 -0.4001  0.2845 -0.9819
   14CHL1  H15A  981   4.258   6.301   9.579  1.4402  0.8962 -0.1591
   14CHL1  H15B  982   4.111   6.395   9.615  0.0830 -2.5737  0.1238
   14CHL1   C16  983   4.237   6.492   9.462 -0.0618 -0.3509  0.4354
   14CHL1  H16A  984   4.267   6.436   9.372 -1.3545 -0.8685  0.3251
   14CHL1  H16B  985   4.147   6.555   9.445  0.5448 -0.3619 -3.1657
   14CHL1   C17  986   4.349   6.595   9.508  0.4630  0.2401 -0.4919
   14CHL1   H17  987   4.286   6.685   9.521 -0.5431 -0.3749 -1.0042
   14CHL1   C13  988   4.410   6.540   9.640 -0.4088 -0.2126  0.7321
   14CHL1   C18  989   4.524   6.437   9.597 -0.4953 -0.1343 -0.6115
   14CHL1  H18A  990   4.499   6.387   9.502 -1.3166 -0.5606 -0.1687
   14CHL1  H18B  991   4.623   6.487   9.584 -0.6403 -0.1865 -1.9849
   14CHL1  H18C  992   4.534   6.375   9.689  0.4849  1.8019  0.6472
   14CHL1   C12  993   4.470   6.645   9.730  0.6095 -0.2955 -0.2377
   14CHL1  H12A  994   4.557   6.699   9.687  1.3756 -0.0875  1.5227
   14CHL1  H12B  995   4.397   6.725   9.753  1.2888 -0.3522  2.2616
   14CHL1   C11  996   4.494   6.582   9.871 -0.2761  0.1142  0.1295
   14CHL1  H11A  997   4.582   6.515   9.864 -2.0629 -2.1888 -0.7082
   14CHL1  H11B  998   4.522   6.663   9.943 -1.2617  0.7451 -0.1888
   14CHL1    C9  999   4.376   6.500   9.936  0.8926 -0.2275 -0.4211
   14CHL1    H9 1000   4.308   6.586   9.955  0.3648 -0.9726  1.1798
   14CHL1   C10 1001   4.407   6.442  10.077 -0.4417  0.2487 -0.5412
   14CHL1   C19 1002   4.523   6.340  10.065  0.0011  0.3477 -0.1201
   14CHL1  H19A 1003   4.606   6.394  10.014 -0.6890  1.6481  0.1116
   14CHL1  H19B 1004   4.552   6.298  10.164 -1.8038  1.0275  0.7187
   14CHL1  H19C 1005   4.499   6.254   9.999  1.7890 -0.3767  0.1271
   14CHL1    C1 1006   4.433   6.559  10.181 -0.6653  0.4996 -0.0908
   14CHL1   H1A 1007   4.528   6.611  10.160 -0.0424  0.6591  2.8664
   14CHL1   H1B 1008   4.340   6.617  10.164 -0.1624  1.2954 -0.1425
   14CHL1    C2 1009   4.437   6.511  10.324  0.1641  0.1426 -0.0306
   14CHL1   H2A 1010   4.461   6.593  10.394  1.3912  1.4477 -1.9310
   14CHL1   H2B 1011   4.530   6.450  10.328 -0.0552 -0.3073 -1.3577
   14CHL1   C20 1012   4.442   6.634   9.387 -0.2632 -0.3365  0.4619
   14CHL1   H20 1013   4.481   6.538   9.347 -1.1339 -0.9168  0.9847
   14CHL1   C21 1014   4.551   6.732   9.419 -0.2729  0.2119 -0.4033
   14CHL1  H21A 1015   4.520   6.833   9.454  1.1895  0.8165 -0.7754
   14CHL1  H21B 1016   4.614   6.748   9.328 -0.9469  0.9436 -0.7492
   14CHL1  H21C 1017   4.626   6.692   9.491  1.3893  0.7639 -1.7776
   14CHL1   C22 1018   4.367   6.693   9.260  0.6440  0.0919 -0.5922
   14CHL1  H22A 1019   4.289   6.622   9.225  1.6668 -1.9510  1.1419
   14CHL1  H22B 1020   4.307   6.781   9.289  3.5869  2.2480 -0.8043
   14CHL1   C23 1021   4.453   6.728   9.141  0.4337  0.8147 -0.6599
   14CHL1  H23A 1022   4.516   6.817   9.162  1.6563 -0.7019  2.2953
   14CHL1  H23B 1023   4.520   6.641   9.125  1.0875  0.8248  1.7577
   14CHL1   C24 1024   4.360   6.759   9.016 -0.4754  0.0286  0.2183
   14CHL1  H24A 1025   4.296   6.670   8.995  0.1595 -0.1542 -0.9851
   14CHL1  H24B 1026   4.284   6.831   9.052  1.7175  2.0277  0.9623
   14CHL1   C25 1027   4.435   6.792   8.879  0.3561 -0.0130 -0.3109
   14CHL1   H25 1028   4.470   6.898   8.882 -0.4884  0.3297 -1.9388
   14CHL1   C26 1029   4.559   6.707   8.876  0.3464  0.4659  0.5398
   14CHL1  H26A 1030   4.620   6.717   8.968  0.5461  0.2586  0.4304
   14CHL1  H26B 1031   4.524   6.601   8.874 -2.0454  1.1875  2.1575
   14CHL1  H26C 1032   4.625   6.729   8.789 -0.9320 -0.1506 -0.6219
   14CHL1   C27 1033   4.343   6.779   8.764  0.0894 -0.0556 -0.2096
   14CHL1  H27A 1034   4.323   6.671   8.744  1.4586 -0.4290  0.4094
   14CHL1  H27B 1035   4.251   6.837   8.788  0.5920  0.4480  0.5034
   14CHL1  H27C 1036   4.384   6.826   8.672  0.4403  1.5881  0.7698
   15CHL1    C3 1037   3.996   5.275  10.061  0.0778  0.6618  0.1573
   15CHL1    H3 1038   4.034   5.174  10.035 -1.7877  0.5561 -2.3554
   15CHL1    O3 1039   3.968   5.269  10.200  0.0678  0.1033  0.5280
   15CHL1   H3' 1040   3.885   5.222  10.215 -0.2475  0.0689 -1.2958
   15CHL1    C4 1041   4.097   5.384  10.025 -0.6932  0.6612 -0.4925
   15CHL1   H4A 1042   4.044   5.472  10.067  0.3627  0.7653  0.6392
   15CHL1   H4B 1043   4.187   5.375  10.089 -0.3185  0.2897 -1.0602
   15CHL1    C5 1044   4.121   5.404   9.877  0.1485 -0.1288  0.0575
   15CHL1    C6 1045   4.245   5.398   9.826 -0.9934  0.4544 -0.7556
   15CHL1    H6 1046   4.336   5.392   9.887 -1.1014 -1.4693 -0.7504
   15CHL1    C7 1047   4.270   5.427   9.684 -0.1278  0.3335 -0.8303
   15CHL1   H7A 1048   4.360   5.492   9.673  0.5255 -0.1779  1.1415
   15CHL1   H7B 1049   4.305   5.333   9.635 -1.2158 -0.1208 -0.7495
   15CHL1    C8 1050   4.160   5.486   9.597  0.2852  0.7230 -0.2172
   15CHL1    H8 1051   4.143   5.593   9.620 -0.9987  0.0344  2.3380
   15CHL1   C14 1052   4.188   5.460   9.450  0.0771 -0.4194 -0.2757
   15CHL1   H14 1053   4.205   5.350   9.441 -1.3834 -0.7028  0.2926
   15CHL1   C15 1054   4.317   5.523   9.386  0.1233 -1.1410 -0.6362
   15CHL1  H15A 1055   4.336   5.621   9.434 -0.4536 -1.3822  0.1071
   15CHL1  H15B 1056   4.399   5.452   9.409  0.2120 -0.2302  2.0387
   15CHL1   C16 1057   4.293   5.540   9.238  0.4536  0.1812 -1.0511
   15CHL1  H16A 1058   4.295   5.645   9.202 -1.3955  0.7354  0.3841
   15CHL1  H16B 1059   4.366   5.486   9.174 -1.0532 -0.1305 -2.5135
   15CHL1   C17 1060   4.140   5.481   9.216  0.3968 -0.9394  0.1172
   15CHL1   H17 1061   4.146   5.373   9.194  0.4756 -0.7341 -0.8769
   15CHL1   C13 1062   4.077   5.504   9.356 -0.4819  0.0065 -0.4862
   15CHL1   C18 1063   4.051   5.656   9.375  0.1428  0.4622  0.1698
   15CHL1  H18A 1064   4.009   5.685   9.474 -2.1748 -1.5819 -0.1880
   15CHL1  H18B 1065   4.143   5.718   9.380  2.1276 -2.5184  2.1147
   15CHL1  H18C 1066   3.985   5.693   9.294  0.1609  1.7131  0.7043
   15CHL1   C12 1067   3.957   5.421   9.397  1.0789 -0.5479  0.2878
   15CHL1  H12A 1068   3.874   5.447   9.328 -0.9385 -2.1029  2.0817
   15CHL1  H12B 1069   3.980   5.316   9.368 -1.3625 -1.0850  0.2357
   15CHL1   C11 1070   3.914   5.447   9.543 -0.6866  0.2398  0.5785
   15CHL1  H11A 1071   3.875   5.551   9.551 -2.4501 -0.3111 -0.5823
   15CHL1  H11B 1072   3.822   5.391   9.570  0.8087 -1.9513  1.2822
   15CHL1    C9 1073   4.035   5.411   9.635  1.0578  0.2944  0.2198
   15CHL1    H9 1074   4.059   5.303   9.620  2.1770  0.3981  1.1899
   15CHL1   C10 1075   3.999   5.421   9.786 -0.1453 -0.6771 -0.4394
   15CHL1   C19 1076   3.943   5.565   9.811  0.4261 -0.1735  0.3468
   15CHL1  H19A 1077   4.008   5.651   9.783  0.6335 -0.7947 -1.1311
   15CHL1  H19B 1078   3.856   5.590   9.746 -0.9085 -1.6234  1.5316
   15CHL1  H19C 1079   3.918   5.574   9.919  0.2772 -2.6553  0.5485
   15CHL1    C1 1080   3.891   5.317   9.829  0.3566 -0.3117  0.6018
   15CHL1   H1A 1081   3.797   5.336   9.773 -0.0541 -2.9855  0.3028
   15CHL1   H1B 1082   3.925   5.219   9.787  0.3992  0.6772 -1.7616
   15CHL1    C2 1083   3.870   5.307   9.984 -0.2148  1.0317  0.4504
   15CHL1   H2A 1084   3.794   5.227  10.000 -1.1956  1.5388 -1.4819
   15CHL1   H2B 1085   3.821   5.399  10.022 -0.8539  0.8763  0.0199
   15CHL1   C20 1086   4.068   5.547   9.099  0.6190  0.1513 -0.2509
   15CHL1   H20 1087   4.079   5.657   9.110  0.9651  0.2234 -1.2101
   15CHL1   C21 1088   3.920   5.507   9.078  0.4805  0.0949  0.6993
   15CHL1  H21A 1089   3.850   5.558   9.148  2.1886  0.5695  2.1192
   15CHL1  H21B 1090   3.912   5.397   9.080  2.2707 -0.0758 -0.2678
   15CHL1  H21C 1091   3.892   5.538   8.975  0.8899 -1.2886  0.1634
   15CHL1   C22 1092   4.143   5.529   8.960 -0.4103 -0.3916 -0.8054
   15CHL1  H22A 1093   4.227   5.457   8.970 -0.2040 -0.0309  0.1684
   15CHL1  H22B 1094   4.079   5.483   8.882 -1.8377  1.8965 -1.0305
   15CHL1   C23 1095   4.214   5.652   8.905 -0.5764  0.6776  1.0189
   15CHL1  H23A 1096   4.232   5.729   8.983  1.6127  0.5047  0.7273
   15CHL1  H23B 1097   4.306   5.636   8.845 -0.6774  2.1299  0.4332
   15CHL1   C24 1098   4.118   5.726   8.810  0.2715  0.5107  0.1822
   15CHL1  H24A 1099   4.103   5.670   8.715 -1.4044 -1.2314  1.4141
   15CHL1  H24B 1100   4.014   5.733   8.848 -0.3408 -1.4994 -1.0270
   15CHL1   C25 1101   4.154   5.877   8.781 -1.0569  0.1828 -0.0955
   15CHL1   H25 1102   4.176   5.928   8.878 -1.6015  0.6017 -0.1918
   15CHL1   C26 1103   4.281   5.880   8.694  0.6368 -0.5999 -0.2263
   15CHL1  H26A 1104   4.375   5.849   8.744  0.7082  2.1618  1.4740
   15CHL1  H26B 1105   4.259   5.820   8.603 -2.2825  1.3907 -0.9219
   15CHL1  H26C 1106   4.290   5.985   8.657  0.0375  0.2411  1.9084
   15CHL1   C27 1107   4.039   5.947   8.710  0.4311  0.0169 -0.0338
   15CHL1  H27A 1108   4.062   6.055   8.701  0.1447  0.0999  0.2218
   15CHL1  H27B 1109   4.005   5.909   8.611 -1.5355 -0.0426  0.6328
   15CHL1  H27C 1110   3.953   5.954   8.780  0.2476  0.7218 -0.3293
   16CHL1    C3 1111   4.846   5.953  10.080  0.3669  0.1640 -0.1567
   16CHL1    H3 1112   4.940   6.006  10.105  1.1195 -1.4057  0.4258
   16CHL1    O3 1113   4.786   5.922  10.206 -0.3146  0.3188  0.0144
   16CHL1   H3' 1114   4.727   5.848  10.188  0.7369 -0.6857  0.6537
   16CHL1    C4 1115   4.755   6.038   9.986  0.1114 -1.2018 -0.2103
   16CHL1   H4A 1116   4.661   5.980   9.995  0.6844 -1.7730  2.4786
   16CHL1   H4B 1117   4.728   6.131  10.039  0.3438 -2.4963  2.2262
   16CHL1    C5 1118   4.801   6.044   9.843  0.3388  0.7198  0.5330
   16CHL1    C6 1119   4.804   6.170   9.789  0.5613 -0.5923 -0.5403
   16CHL1    H6 1120   4.780   6.250   9.861  0.4157 -0.6312 -0.5465
   16CHL1    C7 1121   4.851   6.198   9.643  0.1815  0.2797  0.2793
   16CHL1   H7A 1122   4.790   6.267   9.581  1.2738  0.6909 -0.3508
   16CHL1   H7B 1123   4.953   6.242   9.642  0.5741 -0.5935  1.1102
   16CHL1    C8 1124   4.857   6.060   9.564 -0.1740  0.1961 -0.2478
   16CHL1    H8 1125   4.750   6.034   9.547 -0.7974 -0.4732  4.1756
   16CHL1   C14 1126   4.928   6.081   9.433  0.0002 -0.5612 -0.1910
   16CHL1   H14 1127   5.030   6.116   9.458  0.4064  0.3564 -2.9503
   16CHL1   C15 1128   4.882   6.191   9.343 -0.0779 -0.1018  0.0845
   16CHL1  H15A 1129   4.772   6.178   9.338 -0.4023  1.4624  2.3065
   16CHL1  H15B 1130   4.904   6.290   9.390  1.3740 -0.8772  1.0692
   16CHL1   C16 1131   4.954   6.170   9.212 -0.6681  0.7297  0.2186
   16CHL1  H16A 1132   4.891   6.184   9.121 -1.3526  0.0655  0.5851
   16CHL1  H16B 1133   5.041   6.239   9.211  0.1940 -0.3379 -0.4339
   16CHL1   C17 1134   5.028   6.023   9.227 -0.3069  0.4344  0.0467
   16CHL1   H17 1135   5.132   6.054   9.250 -1.0009  4.2679 -1.4599
   16CHL1   C13 1136   4.955   5.953   9.345  0.0871  0.3090 -0.4911
   16CHL1   C18 1137   4.820   5.891   9.310 -0.3075 -0.3275  0.1582
   16CHL1  H18A 1138   4.752   5.889   9.398  1.1466 -2.4359  1.2783
   16CHL1  H18B 1139   4.769   5.951   9.232  1.4131  1.6863  0.5637
   16CHL1  H18C 1140   4.833   5.784   9.281 -0.9715  0.1347 -1.9231
   16CHL1   C12 1141   5.046   5.871   9.435  0.2606 -0.2928  0.4209
   16CHL1  H12A 1142   5.085   5.779   9.387  2.5797  1.4971 -1.2215
   16CHL1  H12B 1143   5.134   5.928   9.471  0.9512 -0.0711 -1.5826
   16CHL1   C11 1144   4.981   5.835   9.568  0.2428 -0.2882 -0.5316
   16CHL1  H11A 1145   4.897   5.771   9.534 -0.0764 -1.1758  1.8236
   16CHL1  H11B 1146   5.045   5.776   9.636 -0.7110 -1.5199 -0.6869
   16CHL1    C9 1147   4.932   5.957   9.646 -0.2196  1.1588 -0.6952
   16CHL1    H9 1148   5.022   6.014   9.677  1.5936 -1.1098 -1.6772
   16CHL1   C10 1149   4.853   5.915   9.773 -0.0410  0.2627  0.4604
   16CHL1   C19 1150   4.738   5.813   9.742 -0.4106 -0.3137  0.3519
   16CHL1  H19A 1151   4.785   5.713   9.736  1.8908  0.6051  2.2469
   16CHL1  H19B 1152   4.670   5.813   9.830 -1.4097 -0.4639 -0.4144
   16CHL1  H19C 1153   4.688   5.849   9.649  0.2235  3.4579  1.3833
   16CHL1    C1 1154   4.945   5.840   9.873 -0.8566  0.3876  0.4309
   16CHL1   H1A 1155   4.981   5.743   9.833 -0.4194  0.4806  0.5983
   16CHL1   H1B 1156   5.037   5.901   9.884  1.0035 -2.4508  1.3359
   16CHL1    C2 1157   4.888   5.814  10.013  0.0643 -1.1904  0.5481
   16CHL1   H2A 1158   4.962   5.761  10.077  0.2994 -1.9953 -0.3695
   16CHL1   H2B 1159   4.796   5.756   9.993  1.1881 -2.4360 -1.1593
   16CHL1   C20 1160   5.039   5.938   9.099 -0.0816 -0.3859  0.2935
   16CHL1   H20 1161   4.934   5.932   9.062 -0.3698  1.8673  0.6866
   16CHL1   C21 1162   5.091   5.792   9.119  0.3006 -0.2742  0.1142
   16CHL1  H21A 1163   5.195   5.803   9.155 -0.0723  1.0558  0.8385
   16CHL1  H21B 1164   5.097   5.733   9.025  1.9353 -0.6726  0.4680
   16CHL1  H21C 1165   5.024   5.729   9.180 -2.6974  2.7411  0.1067
   16CHL1   C22 1166   5.128   6.017   8.993 -0.4655 -0.1942  0.7781
   16CHL1  H22A 1167   5.097   6.123   8.986  1.1417  0.2255 -0.2989
   16CHL1  H22B 1168   5.227   6.026   9.043 -0.6775  2.2131  0.8150
   16CHL1   C23 1169   5.142   5.962   8.847  0.4786  0.7209  0.1038
   16CHL1  H23A 1170   5.180   5.858   8.854 -0.1804  0.5505  1.3981
   16CHL1  H23B 1171   5.046   5.962   8.791  0.7519 -0.9634 -0.4169
   16CHL1   C24 1172   5.229   6.062   8.770  0.1514  0.0735 -0.5524
   16CHL1  H24A 1173   5.166   6.153   8.779  0.2688 -0.0734  2.0277
   16CHL1  H24B 1174   5.327   6.082   8.818 -0.6352 -0.2616  1.2155
   16CHL1   C25 1175   5.253   6.032   8.629  0.1740 -0.5922  0.6948
   16CHL1   H25 1176   5.236   5.923   8.618  1.6671 -0.5624 -2.5460
   16CHL1   C26 1177   5.150   6.097   8.534 -0.6974 -0.6261  0.0497
   16CHL1  H26A 1178   5.174   6.067   8.430 -1.2957  0.3795 -0.3841
   16CHL1  H26B 1179   5.046   6.069   8.558 -0.7775  0.7993  1.5444
   16CHL1  H26C 1180   5.163   6.207   8.547  1.3064 -0.3204 -3.8153
   16CHL1   C27 1181   5.401   6.044   8.583  0.0282  0.0581  0.3651
   16CHL1  H27A 1182   5.432   6.141   8.538  0.2975  0.2052  0.8657
   16CHL1  H27B 1183   5.469   6.040   8.670 -0.7331  0.0186  0.9587
   16CHL1  H27C 1184   5.414   5.960   8.511  0.3023 -0.3547  0.8990
   17CHL1    C3 1185   1.205   2.463  10.261  0.2921  0.2663  0.1911
   17CHL1    H3 1186   1.220   2.355  10.237 -1.6026  0.3123 -1.3212
   17CHL1    O3 1187   1.223   2.469  10.399  0.2527  0.0932 -0.5574
   17CHL1   H3' 1188   1.187   2.555  10.423 -0.1231  0.6565 -3.0233
   17CHL1    C4 1189   1.307   2.562  10.194 -0.0126  0.5560 -1.2483
   17CHL1   H4A 1190   1.278   2.662  10.235  0.0239 -0.8414  2.4365
   17CHL1   H4B 1191   1.406   2.530  10.232 -0.0774  1.2636 -0.4689
   17CHL1    C5 1192   1.292   2.558  10.046 -0.5081  0.9776  0.0043
   17CHL1    C6 1193   1.397   2.531   9.968 -0.2546 -0.0223 -0.1104
   17CHL1    H6 1194   1.497   2.510  10.011  0.1044  1.4167 -0.2109
   17CHL1    C7 1195   1.381   2.540   9.825  0.0844  0.0364  0.6728
   17CHL1   H7A 1196   1.476   2.577   9.780  0.7448 -0.6399  1.4890
   17CHL1   H7B 1197   1.375   2.435   9.788 -1.0222  0.2375  0.2541
   17CHL1    C8 1198   1.254   2.618   9.770 -0.2738 -0.5347  0.1575
   17CHL1    H8 1199   1.277   2.724   9.792  2.2763 -0.5841 -2.0873
   17CHL1   C14 1200   1.235   2.593   9.616  0.1741 -0.9114  0.8503
   17CHL1   H14 1201   1.228   2.483   9.608  0.7417 -0.8348 -1.0686
   17CHL1   C15 1202   1.356   2.629   9.529 -0.2322 -0.2601  0.5111
   17CHL1  H15A 1203   1.391   2.734   9.540 -0.4834  0.0848 -1.7233
   17CHL1  H15B 1204   1.440   2.557   9.530  0.0951  0.1156  2.9264
   17CHL1   C16 1205   1.290   2.624   9.385 -1.0742 -1.1250 -0.1151
   17CHL1  H16A 1206   1.331   2.708   9.326  0.1208 -0.7120  1.2598
   17CHL1  H16B 1207   1.302   2.527   9.332 -1.3069 -1.2997  0.1464
   17CHL1   C17 1208   1.134   2.617   9.413 -0.7216  0.0256 -0.4888
   17CHL1   H17 1209   1.116   2.508   9.422 -0.2430  0.1486  2.3402
   17CHL1   C13 1210   1.110   2.664   9.554  0.5003  0.0064  0.3475
   17CHL1   C18 1211   1.116   2.814   9.565 -0.1611  0.4467 -0.3189
   17CHL1  H18A 1212   1.135   2.851   9.668  2.4174 -2.8990  0.4964
   17CHL1  H18B 1213   1.200   2.853   9.504  1.1236 -0.6833  0.6784
   17CHL1  H18C 1214   1.024   2.861   9.524  1.4334  1.7958 -2.4366
   17CHL1   C12 1215   0.992   2.598   9.621  0.1125  0.2774  0.3123
   17CHL1  H12A 1216   0.891   2.641   9.604 -0.2595 -0.6817  0.1115
   17CHL1  H12B 1217   0.989   2.488   9.608 -2.0367  0.2640  0.7041
   17CHL1   C11 1218   1.010   2.629   9.778  0.4559 -0.0246 -0.2483
   17CHL1  H11A 1219   1.009   2.739   9.795 -1.3857  0.1238 -1.1983
   17CHL1  H11B 1220   0.922   2.594   9.836  0.5462 -0.2210 -0.2283
   17CHL1    C9 1221   1.131   2.572   9.846 -0.4510  0.4761 -0.8617
   17CHL1    H9 1222   1.129   2.462   9.833 -0.6444  0.3281  0.3562
   17CHL1   C10 1223   1.146   2.588  10.004 -0.1989 -0.0405  0.0907
   17CHL1   C19 1224   1.118   2.733  10.041 -0.0061 -0.1793 -0.2589
   17CHL1  H19A 1225   1.012   2.758  10.021 -0.9453 -4.0775 -0.4231
   17CHL1  H19B 1226   1.135   2.760  10.148  2.9012 -0.7252 -0.5533
   17CHL1  H19C 1227   1.186   2.800   9.984 -1.6393  0.1951 -1.8168
   17CHL1    C1 1228   1.039   2.496  10.080  0.1084  0.8357  1.0383
   17CHL1   H1A 1229   0.939   2.536  10.053  0.4035  0.0858 -1.2928
   17CHL1   H1B 1230   1.044   2.400  10.024 -0.6923  1.4363 -0.0877
   17CHL1    C2 1231   1.058   2.491  10.227  0.3800 -0.0263 -0.4413
   17CHL1   H2A 1232   0.986   2.421  10.274 -0.9771  1.2810 -0.5345
   17CHL1   H2B 1233   1.042   2.588  10.279 -0.0889 -0.3612  0.0574
   17CHL1   C20 1234   1.051   2.681   9.301 -0.0023 -0.0222  0.3457
   17CHL1   H20 1235   1.074   2.789   9.299  1.5368 -0.3143  1.2229
   17CHL1   C21 1236   0.899   2.667   9.322 -0.8689 -0.0354 -0.3407
   17CHL1  H21A 1237   0.875   2.566   9.362 -0.2563  0.4370  1.2490
   17CHL1  H21B 1238   0.837   2.687   9.231  0.3213 -0.9116 -1.3659
   17CHL1  H21C 1239   0.858   2.737   9.397 -0.3030  0.8683 -0.8583
   17CHL1   C22 1240   1.090   2.617   9.159  0.1046  0.4595 -0.4228
   17CHL1  H22A 1241   1.201   2.606   9.151  0.2282  0.4454  1.0781
   17CHL1  H22B 1242   1.051   2.513   9.154  2.0441 -0.2968 -0.3729
   17CHL1   C23 1243   1.024   2.710   9.047  0.3444  0.5195  0.2718
   17CHL1  H23A 1244   0.924   2.665   9.031 -0.3191  2.3385 -0.8758
   17CHL1  H23B 1245   1.005   2.809   9.096 -0.8420 -0.2058  1.3196
   17CHL1   C24 1246   1.101   2.714   8.914  0.7879  0.5261  0.8371
   17CHL1  H24A 1247   1.202   2.751   8.938  2.1450 -1.5421 -1.4956
   17CHL1  H24B 1248   1.109   2.613   8.868  0.7031  0.8582  0.0839
   17CHL1   C25 1249   1.033   2.801   8.801 -0.6490 -0.7808  0.3392
   17CHL1   H25 1250   0.937   2.751   8.775 -1.6844  2.2104 -1.7971
   17CHL1   C26 1251   1.020   2.944   8.847  0.2587  0.2233 -0.5843
   17CHL1  H26A 1252   1.121   2.981   8.874 -0.1399  0.0276  1.1929
   17CHL1  H26B 1253   0.973   2.999   8.762 -0.6530 -1.5939 -1.2829
   17CHL1  H26C 1254   0.955   2.953   8.937  0.2294  0.7496 -0.6577
   17CHL1   C27 1255   1.120   2.789   8.677  0.7891  1.3446  0.3581
   17CHL1  H27A 1256   1.083   2.705   8.615 -0.4087  0.4265  2.2659
   17CHL1  H27B 1257   1.125   2.880   8.614 -0.8532 -0.2965 -2.1928
   17CHL1  H27C 1258   1.219   2.762   8.721  0.1717 -1.7047 -0.0482
   18CHL1    C3 1259   0.267   1.309  10.224  0.1042  0.0235  0.3173
   18CHL1    H3 1260   0.343   1.379  10.183 -1.4636  1.9013  0.5304
   18CHL1    O3 1261   0.320   1.280  10.353  0.8161 -0.3451  0.8310
   18CHL1   H3' 1262   0.252   1.226  10.395  2.3947 -2.6745  0.5319
   18CHL1    C4 1263   0.126   1.373  10.234  0.2639 -0.3211 -0.7835
   18CHL1   H4A 1264   0.063   1.291  10.276  0.2926  0.2206  0.3311
   18CHL1   H4B 1265   0.142   1.454  10.309 -1.0193 -1.4912  0.7871
   18CHL1    C5 1266   0.089   1.409  10.098 -0.4030 -0.0896  0.6533
   18CHL1    C6 1267   0.052   1.540  10.077 -0.4645  0.6611 -0.0063
   18CHL1    H6 1268   0.067   1.606  10.163 -0.0467 -0.5738  0.8893
   18CHL1    C7 1269   0.018   1.588   9.942 -0.4076 -0.0083  0.2362
   18CHL1   H7A 1270  -0.064   1.661   9.962 -1.3479 -1.4185  1.7176
   18CHL1   H7B 1271   0.103   1.642   9.895 -0.4065  0.4375  0.7435
   18CHL1    C8 1272  -0.026   1.479   9.846  0.4772  0.0577 -0.4747
   18CHL1    H8 1273  -0.123   1.441   9.885  0.0068  1.4994 -0.2144
   18CHL1   C14 1274  -0.054   1.528   9.704 -0.5143  0.7361  0.1875
   18CHL1   H14 1275   0.039   1.579   9.671  0.1525 -0.8939 -0.4722
   18CHL1   C15 1276  -0.151   1.639   9.688  0.4185 -0.3748  0.0817
   18CHL1  H15A 1277  -0.243   1.621   9.747  1.2669  0.6346  1.7783
   18CHL1  H15B 1278  -0.100   1.735   9.713  3.4432 -1.7627 -0.5290
   18CHL1   C16 1279  -0.177   1.647   9.533  0.5639 -0.4163  0.3146
   18CHL1  H16A 1280  -0.287   1.651   9.519  0.6302 -2.1616 -0.8555
   18CHL1  H16B 1281  -0.131   1.739   9.490 -0.1830  0.6287  1.7089
   18CHL1   C17 1282  -0.121   1.519   9.471 -0.4169  0.0712 -0.0780
   18CHL1   H17 1283  -0.016   1.541   9.442  0.4495 -1.8778  1.4165
   18CHL1   C13 1284  -0.094   1.427   9.599 -0.1779 -0.4959  0.6689
   18CHL1   C18 1285  -0.234   1.367   9.642 -0.0188  0.2844  0.1766
   18CHL1  H18A 1286  -0.263   1.292   9.566 -0.4331  1.3838 -0.7715
   18CHL1  H18B 1287  -0.226   1.319   9.742 -1.2042 -1.9303 -0.7733
   18CHL1  H18C 1288  -0.314   1.444   9.632 -0.3273 -0.2290 -1.3814
   18CHL1   C12 1289   0.018   1.322   9.594  0.4249 -0.2244  0.0343
   18CHL1  H12A 1290  -0.011   1.234   9.533  0.4309  0.3690 -0.8299
   18CHL1  H12B 1291   0.108   1.371   9.551 -0.9667  0.4086 -2.2008
   18CHL1   C11 1292   0.041   1.254   9.735  0.5235 -0.0831  0.0088
   18CHL1  H11A 1293  -0.054   1.201   9.757 -0.5836  1.1374 -1.7336
   18CHL1  H11B 1294   0.135   1.194   9.738  0.4031 -0.2298  2.0579
   18CHL1    C9 1295   0.067   1.356   9.854  0.1189  0.7146  0.2464
   18CHL1    H9 1296   0.168   1.399   9.837  0.1291  1.4770  2.1066
   18CHL1   C10 1297   0.087   1.291   9.989  0.2053 -0.7257 -0.1750
   18CHL1   C19 1298  -0.032   1.194  10.018 -0.0996 -0.5479 -0.1518
   18CHL1  H19A 1299  -0.038   1.116   9.939  0.0775  0.4750 -1.1928
   18CHL1  H19B 1300  -0.022   1.158  10.123 -0.9243 -1.5133 -0.4038
   18CHL1  H19C 1301  -0.130   1.243  10.005 -0.5950 -1.4249  0.2835
   18CHL1    C1 1302   0.225   1.215   9.998 -0.3831  0.8026  0.9029
   18CHL1   H1A 1303   0.216   1.123   9.936  0.5780  0.4809  1.2453
   18CHL1   H1B 1304   0.305   1.278   9.955 -0.0839 -0.1574  0.0311
   18CHL1    C2 1305   0.259   1.179  10.146 -0.4987 -0.1087  0.3112
   18CHL1   H2A 1306   0.357   1.128  10.144 -0.2235  0.3102  2.5995
   18CHL1   H2B 1307   0.186   1.108  10.190 -2.1062  2.0980  1.3236
   18CHL1   C20 1308  -0.201   1.467   9.356  0.4707  0.2252 -0.5742
   18CHL1   H20 1309  -0.297   1.433   9.401 -0.1357 -0.8379 -2.5632
   18CHL1   C21 1310  -0.138   1.341   9.290 -0.7402  0.6453 -0.4548
   18CHL1  H21A 1311  -0.205   1.311   9.208 -0.8694 -0.9062  0.1906
   18CHL1  H21B 1312  -0.147   1.261   9.366  1.5166 -0.3229 -1.1593
   18CHL1  H21C 1313  -0.029   1.341   9.269 -0.9735 -0.2531 -1.6471
   18CHL1   C22 1314  -0.220   1.573   9.255  0.1104 -0.2261 -0.0534
   18CHL1  H22A 1315  -0.220   1.679   9.290  1.2536  0.3591 -1.7850
   18CHL1  H22B 1316  -0.129   1.567   9.192 -0.4144 -0.8281 -0.7589
   18CHL1   C23 1317  -0.351   1.556   9.164 -0.7889  0.2551 -0.7595
   18CHL1  H23A 1318  -0.355   1.466   9.099  1.6637  0.1040 -0.7301
   18CHL1  H23B 1319  -0.432   1.559   9.240 -0.3032 -0.6802 -0.2014
   18CHL1   C24 1320  -0.366   1.679   9.063 -0.2125 -0.4128 -0.0910
   18CHL1  H24A 1321  -0.407   1.757   9.131 -0.5864 -3.0221  2.7747
   18CHL1  H24B 1322  -0.271   1.708   9.014 -0.3231 -1.1431 -0.7665
   18CHL1   C25 1323  -0.476   1.657   8.956  0.8875 -0.4180  0.7437
   18CHL1   H25 1324  -0.569   1.626   9.007 -1.0270  0.6620 -1.9954
   18CHL1   C26 1325  -0.496   1.798   8.900 -0.3554  0.3904 -0.4313
   18CHL1  H26A 1326  -0.581   1.814   8.830  1.0028  0.3655 -2.1511
   18CHL1  H26B 1327  -0.503   1.872   8.982 -5.0420  0.9172 -1.1397
   18CHL1  H26C 1328  -0.399   1.826   8.853  0.7880 -2.8207 -0.0717
   18CHL1   C27 1329  -0.435   1.551   8.849  0.0058  0.2617 -0.2355
   18CHL1  H27A 1330  -0.499   1.565   8.760  1.3112  1.7436 -0.9708
   18CHL1  H27B 1331  -0.328   1.547   8.819 -0.3507 -1.7077 -1.3606
   18CHL1  H27C 1332  -0.450   1.448   8.888  1.4514 -0.1777 -0.7913
   19CHL1    C3 1333   3.533   4.787  10.028 -0.1189  0.2355 -0.2200
   19CHL1    H3 1334   3.489   4.696   9.983  0.0338  1.0991 -2.1585
   19CHL1    O3 1335   3.527   4.770  10.165 -0.4279  0.5851 -0.0600
   19CHL1   H3' 1336   3.451   4.822  10.190 -0.6534  1.0575 -1.6310
   19CHL1    C4 1337   3.683   4.793   9.990 -0.5854 -0.1063 -0.3141
   19CHL1   H4A 1338   3.729   4.884  10.033  0.4170 -0.0381 -1.5030
   19CHL1   H4B 1339   3.729   4.698  10.024 -2.5941 -0.9613  0.0932
   19CHL1    C5 1340   3.684   4.786   9.836 -0.2200  0.4731 -0.7595
   19CHL1    C6 1341   3.744   4.692   9.757 -0.4731  0.3594  0.1505
   19CHL1    H6 1342   3.805   4.618   9.812 -0.5663  0.5116  0.4595
   19CHL1    C7 1343   3.755   4.695   9.608 -0.5278  0.3115  0.1093
   19CHL1   H7A 1344   3.859   4.674   9.577 -0.3842 -0.5128  1.1499
   19CHL1   H7B 1345   3.698   4.610   9.565 -0.7222  0.5895 -0.1898
   19CHL1    C8 1346   3.712   4.825   9.548 -0.8407 -0.1952 -0.4883
   19CHL1    H8 1347   3.801   4.889   9.570 -0.0703 -1.6804  0.7676
   19CHL1   C14 1348   3.686   4.807   9.397 -0.0399 -0.0390 -0.4335
   19CHL1   H14 1349   3.596   4.744   9.381  0.0469 -0.1559 -0.4579
   19CHL1   C15 1350   3.787   4.729   9.309  1.0978 -1.0553  0.2862
   19CHL1  H15A 1351   3.886   4.760   9.349 -0.3180  1.2303  2.1875
   19CHL1  H15B 1352   3.779   4.619   9.314  1.7401 -1.1473 -0.7851
   19CHL1   C16 1353   3.753   4.778   9.164 -0.6243 -0.3740 -0.2868
   19CHL1  H16A 1354   3.843   4.828   9.123 -1.9514  3.0347  0.7641
   19CHL1  H16B 1355   3.712   4.694   9.104 -0.7427 -1.4485  1.2746
   19CHL1   C17 1356   3.638   4.887   9.179  0.6189  1.1784  0.3394
   19CHL1   H17 1357   3.538   4.841   9.185  0.5073  1.4206  0.3478
   19CHL1   C13 1358   3.655   4.943   9.327  0.0960  0.1346 -0.5553
   19CHL1   C18 1359   3.770   5.045   9.325  0.2892  0.3751 -0.4553
   19CHL1  H18A 1360   3.806   5.056   9.430  2.0901  1.9926 -1.2106
   19CHL1  H18B 1361   3.849   5.007   9.257  0.0732  0.6519 -0.8649
   19CHL1  H18C 1362   3.739   5.141   9.278  2.4913  1.2506 -0.1709
   19CHL1   C12 1363   3.534   5.005   9.390 -0.6556  0.1458 -0.2200
   19CHL1  H12A 1364   3.522   5.106   9.345  0.0553  0.6241  0.6437
   19CHL1  H12B 1365   3.443   4.946   9.366 -1.0041  0.4726  0.2797
   19CHL1   C11 1366   3.537   5.020   9.545  0.0498  0.1234  0.3387
   19CHL1  H11A 1367   3.611   5.102   9.558 -2.2483  2.5091 -1.2411
   19CHL1  H11B 1368   3.440   5.054   9.586  1.0898  2.8966  0.5989
   19CHL1    C9 1369   3.597   4.892   9.618  0.6663  0.6605 -0.2919
   19CHL1    H9 1370   3.512   4.824   9.600  0.1299  1.2877 -0.1336
   19CHL1   C10 1371   3.611   4.906   9.774  0.9326 -0.6425  0.8699
   19CHL1   C19 1372   3.704   5.027   9.801 -0.8984  0.0940 -0.4021
   19CHL1  H19A 1373   3.799   5.004   9.747  0.1048  0.9106  0.9847
   19CHL1  H19B 1374   3.663   5.120   9.757 -4.1517 -1.4403 -0.7165
   19CHL1  H19C 1375   3.728   5.043   9.908  0.9328 -3.6916 -0.1637
   19CHL1    C1 1376   3.469   4.925   9.828 -0.3715 -0.2235  0.1760
   19CHL1   H1A 1377   3.424   5.023   9.801  0.2219  0.0998  0.3565
   19CHL1   H1B 1378   3.406   4.844   9.785 -0.7073  0.4773 -0.6606
   19CHL1    C2 1379   3.460   4.915   9.982 -0.7930  0.4501  0.5695
   19CHL1   H2A 1380   3.354   4.922  10.013 -0.8931 -2.3305  0.9856
   19CHL1   H2B 1381   3.517   4.996  10.032 -2.2501  0.8413  1.6246
   19CHL1   C20 1382   3.642   4.977   9.058  0.2020  0.2215 -0.2770
   19CHL1   H20 1383   3.734   5.038   9.054  2.2168 -2.6231  0.8012
   19CHL1   C21 1384   3.513   5.057   9.058 -0.0184  0.3780  0.3172
   19CHL1  H21A 1385   3.502   5.118   8.965  0.1294  0.6004  0.4470
   19CHL1  H21B 1386   3.504   5.138   9.133  1.3213  1.5501 -0.7707
   19CHL1  H21C 1387   3.423   4.994   9.072 -0.6755  1.6122  1.8089
   19CHL1   C22 1388   3.668   4.903   8.918  0.6748  0.5962  0.7923
   19CHL1  H22A 1389   3.769   4.860   8.912 -0.0669 -1.0745  0.0578
   19CHL1  H22B 1390   3.595   4.819   8.912  0.7882  0.6210 -1.1969
   19CHL1   C23 1391   3.637   4.977   8.784 -0.3133  0.8335  0.3172
   19CHL1  H23A 1392   3.655   4.900   8.706  0.3940  0.8360  0.4797
   19CHL1  H23B 1393   3.532   5.012   8.779 -0.5621 -0.1711 -2.0356
   19CHL1   C24 1394   3.729   5.108   8.759 -0.3086 -0.4960  0.3251
   19CHL1  H24A 1395   3.717   5.168   8.851  1.9918 -0.7541  0.8176
   19CHL1  H24B 1396   3.833   5.068   8.758 -1.1151 -2.7066  1.1185
   19CHL1   C25 1397   3.698   5.185   8.628  0.0983  0.0995 -0.5746
   19CHL1   H25 1398   3.594   5.225   8.630 -0.0281 -0.2585  2.1219
   19CHL1   C26 1399   3.786   5.308   8.620 -0.1527 -0.2474  0.0287
   19CHL1  H26A 1400   3.771   5.357   8.521 -1.1205  2.3165  1.3947
   19CHL1  H26B 1401   3.767   5.379   8.704  0.0475  0.8461 -0.8272
   19CHL1  H26C 1402   3.892   5.274   8.615  0.4601  1.7670 -2.5123
   19CHL1   C27 1403   3.694   5.100   8.494  0.1822 -0.2437  0.6282
   19CHL1  H27A 1404   3.638   5.005   8.500 -0.0016 -0.2734 -1.3026
   19CHL1  H27B 1405   3.640   5.163   8.420  0.1092  0.5170  1.3143
   19CHL1  H27C 1406   3.797   5.092   8.452 -1.3091 -0.1885 -3.3161
   20CHL1    C3 1407   5.755   5.295  10.222 -0.3439 -0.3569 -0.2003
   20CHL1    H3 1408   5.668   5.230  10.197 -0.8598 -0.8316  2.6649
   20CHL1    O3 1409   5.760   5.321  10.356  0.0321 -0.4444 -0.1708
   20CHL1   H3' 1410   5.829   5.386  10.372  0.1518 -0.5527 -0.2493
   20CHL1    C4 1411   5.886   5.237  10.172 -0.9831 -0.9283 -0.6693
   20CHL1   H4A 1412   5.969   5.306  10.197 -0.2727 -1.1997 -2.2113
   20CHL1   H4B 1413   5.902   5.138  10.220  0.4633 -0.6723 -0.6212
   20CHL1    C5 1414   5.877   5.216  10.021  0.5977 -0.4873  0.0560
   20CHL1    C6 1415   5.900   5.102   9.960 -0.2164 -0.4808 -0.2337
   20CHL1    H6 1416   5.928   5.017  10.023  1.5299 -0.0499 -0.3916
   20CHL1    C7 1417   5.894   5.080   9.807  0.2650 -0.4066 -0.3034
   20CHL1   H7A 1418   5.978   5.016   9.774  1.2047  1.0324 -0.7311
   20CHL1   H7B 1419   5.802   5.029   9.770 -0.3552  1.5905 -1.5936
   20CHL1    C8 1420   5.893   5.216   9.732  0.5471 -0.2168 -0.5015
   20CHL1    H8 1421   5.993   5.262   9.721 -0.2593  1.2858 -1.9263
   20CHL1   C14 1422   5.836   5.186   9.586 -0.0715 -0.0738 -0.3254
   20CHL1   H14 1423   5.730   5.166   9.613  0.4017 -1.2019  0.8019
   20CHL1   C15 1424   5.893   5.068   9.509 -0.0656  0.1356  0.0077
   20CHL1  H15A 1425   6.004   5.069   9.517 -0.1361  1.1540  1.0192
   20CHL1  H15B 1426   5.841   4.979   9.550  0.3739 -1.0321 -1.8863
   20CHL1   C16 1427   5.849   5.094   9.366 -0.2576 -0.4603  0.1151
   20CHL1  H16A 1428   5.930   5.073   9.293 -0.3581 -2.2085  0.4994
   20CHL1  H16B 1429   5.773   5.020   9.332 -1.1815  0.5195  0.0083
   20CHL1   C17 1430   5.794   5.237   9.357  0.7713 -0.4789 -0.1394
   20CHL1   H17 1431   5.684   5.218   9.359  1.0274 -1.9696  0.6242
   20CHL1   C13 1432   5.841   5.305   9.491 -0.2126 -0.5112  0.3999
   20CHL1   C18 1433   5.986   5.358   9.477 -0.1107  0.5989 -0.0526
   20CHL1  H18A 1434   6.042   5.372   9.572  1.7630 -1.5473 -0.7965
   20CHL1  H18B 1435   6.051   5.289   9.419  0.2627  0.5077  0.4743
   20CHL1  H18C 1436   5.990   5.460   9.432 -1.2733  0.5109 -0.3795
   20CHL1   C12 1437   5.756   5.413   9.554 -0.3537  0.2280  0.4590
   20CHL1  H12A 1438   5.746   5.491   9.476 -3.4550 -1.4753 -0.9462
   20CHL1  H12B 1439   5.654   5.375   9.577  1.4653 -3.5607  2.8922
   20CHL1   C11 1440   5.805   5.452   9.695  0.2486  0.1810 -0.8065
   20CHL1  H11A 1441   5.907   5.496   9.699  0.7408 -1.0997  1.9809
   20CHL1  H11B 1442   5.744   5.525   9.751  0.9431 -0.5232  0.8966
   20CHL1    C9 1443   5.811   5.326   9.794 -0.5192 -0.0175  0.5027
   20CHL1    H9 1444   5.709   5.281   9.790 -0.1767 -0.6317 -1.7805
   20CHL1   C10 1445   5.845   5.350   9.946  0.8259 -0.5438 -0.2634
   20CHL1   C19 1446   5.966   5.444   9.943 -0.1488 -0.3850 -0.1368
   20CHL1  H19A 1447   6.052   5.379   9.916  0.8537  1.0051 -0.3315
   20CHL1  H19B 1448   5.965   5.539   9.886 -0.4988  0.0523  0.5854
   20CHL1  H19C 1449   5.989   5.470  10.049 -2.5998  0.5497  0.1828
   20CHL1    C1 1450   5.723   5.417  10.004  0.0155 -0.5528  0.6729
   20CHL1   H1A 1451   5.727   5.519   9.960  1.1505 -2.2026 -3.2222
   20CHL1   H1B 1452   5.632   5.372   9.959 -0.3427  1.3773 -0.5770
   20CHL1    C2 1453   5.726   5.431  10.151 -0.0489 -0.0423  0.2806
   20CHL1   H2A 1454   5.628   5.466  10.189  0.5936  1.5777  0.4725
   20CHL1   H2B 1455   5.802   5.504  10.186 -0.5073 -1.1023  3.6538
   20CHL1   C20 1456   5.831   5.302   9.221  0.2372 -0.5059 -0.3801
   20CHL1   H20 1457   5.939   5.328   9.218  0.1480  0.0736  1.1178
   20CHL1   C21 1458   5.768   5.443   9.215 -0.1802 -0.6541 -0.0204
   20CHL1  H21A 1459   5.806   5.487   9.120  1.9612  1.6365  1.8292
   20CHL1  H21B 1460   5.817   5.510   9.289 -1.0545 -0.6234  0.5334
   20CHL1  H21C 1461   5.659   5.451   9.235 -0.3889 -0.1680 -1.3055
   20CHL1   C22 1462   5.790   5.210   9.107  0.3936  0.4055  0.7762
   20CHL1  H22A 1463   5.830   5.107   9.119 -0.3214  0.1205  0.7360
   20CHL1  H22B 1464   5.682   5.188   9.111 -0.1511  2.3435 -1.7670
   20CHL1   C23 1465   5.832   5.269   8.960 -0.5957  0.0483 -0.4628
   20CHL1  H23A 1466   5.790   5.371   8.951 -2.1190 -0.2871  2.2296
   20CHL1  H23B 1467   5.942   5.275   8.949 -0.5902 -2.3590 -2.1910
   20CHL1   C24 1468   5.777   5.193   8.837 -0.8204 -0.0163  0.4227
   20CHL1  H24A 1469   5.802   5.086   8.851 -1.2749 -0.0527  0.9995
   20CHL1  H24B 1470   5.667   5.178   8.838 -0.6495 -1.3270 -0.0001
   20CHL1   C25 1471   5.835   5.237   8.703 -0.6321 -0.1435  0.3605
   20CHL1   H25 1472   5.835   5.346   8.681  0.5783 -0.0228  0.9347
   20CHL1   C26 1473   5.988   5.202   8.696  0.3862  0.6332  0.2720
   20CHL1  H26A 1474   6.009   5.094   8.706  2.0136  0.9061 -0.0891
   20CHL1  H26B 1475   6.030   5.253   8.607 -0.2184  2.3022  0.9142
   20CHL1  H26C 1476   6.037   5.253   8.782 -0.1363 -0.8339  1.4624
   20CHL1   C27 1477   5.760   5.168   8.588  0.0169 -0.0981  0.7702
   20CHL1  H27A 1478   5.821   5.185   8.496  0.6968 -0.2249  1.1899
   20CHL1  H27B 1479   5.759   5.058   8.598  1.8866 -0.1888  0.1960
   20CHL1  H27C 1480   5.664   5.223   8.575 -1.1961 -2.3441  0.0924
   21CHL1    C3 1481   5.883   1.836  10.327  0.2954  0.4244  0.4908
   21CHL1    H3 1482   5.806   1.912  10.350  0.0272 -0.4197  2.4960
   21CHL1    O3 1483   5.941   1.782  10.444  0.1894 -0.7886 -0.3712
   21CHL1   H3' 1484   5.943   1.861  10.498 -1.6039  0.3085 -1.8600
   21CHL1    C4 1485   5.825   1.722  10.249  0.0536 -0.5605  0.5807
   21CHL1   H4A 1486   5.905   1.649  10.225 -0.9543 -1.6585  0.5061
   21CHL1   H4B 1487   5.753   1.672  10.318  0.2038  0.4017  1.4505
   21CHL1    C5 1488   5.760   1.780  10.127 -0.6378 -1.2486 -0.6909
   21CHL1    C6 1489   5.623   1.764  10.108  0.3447  0.4352  0.2477
   21CHL1    H6 1490   5.560   1.718  10.186 -0.0486  1.3813  0.5003
   21CHL1    C7 1491   5.551   1.807   9.985 -0.1597 -0.6934  0.1048
   21CHL1   H7A 1492   5.483   1.723   9.960  0.0116 -1.0526  0.8219
   21CHL1   H7B 1493   5.485   1.896   9.991 -1.6353 -1.5507 -2.6232
   21CHL1    C8 1494   5.649   1.839   9.864  0.1408  0.7754  0.0531
   21CHL1    H8 1495   5.690   1.743   9.824 -0.1056  0.0256  1.5800
   21CHL1   C14 1496   5.576   1.901   9.746  0.5565  0.1675 -0.5126
   21CHL1   H14 1497   5.531   1.997   9.779  0.0512 -0.0923 -0.4532
   21CHL1   C15 1498   5.454   1.830   9.695  0.7335 -0.1156  0.5735
   21CHL1  H15A 1499   5.466   1.721   9.677  0.3875 -0.1360  0.4561
   21CHL1  H15B 1500   5.365   1.850   9.758  0.9425  3.2697 -0.0936
   21CHL1   C16 1501   5.421   1.903   9.563  0.2153 -0.2157  0.4532
   21CHL1  H16A 1502   5.412   1.823   9.486  0.4922 -0.1059  0.3082
   21CHL1  H16B 1503   5.329   1.964   9.569 -0.5766 -1.4379  1.0805
   21CHL1   C17 1504   5.546   1.999   9.536 -0.2636  0.1253  0.0183
   21CHL1   H17 1505   5.507   2.097   9.569 -2.2300  0.6031 -3.4415
   21CHL1   C13 1506   5.660   1.941   9.631 -0.1755 -0.2880 -0.4196
   21CHL1   C18 1507   5.731   1.824   9.567  0.6536 -0.2708  0.1326
   21CHL1  H18A 1508   5.796   1.780   9.645 -1.3860 -0.4271  1.7976
   21CHL1  H18B 1509   5.650   1.750   9.543  0.8915 -0.8352  1.0367
   21CHL1  H18C 1510   5.791   1.847   9.476  0.7858  0.3716  0.3835
   21CHL1   C12 1511   5.762   2.047   9.685 -0.0001 -0.5102  0.5084
   21CHL1  H12A 1512   5.831   2.087   9.607 -0.7470  2.6711  1.4279
   21CHL1  H12B 1513   5.714   2.130   9.741 -1.4403  0.6922 -2.3834
   21CHL1   C11 1514   5.854   1.995   9.801  0.1960 -0.2617 -0.0157
   21CHL1  H11A 1515   5.932   1.928   9.760  1.1012  2.6936 -3.3585
   21CHL1  H11B 1516   5.900   2.087   9.843 -0.7697 -0.4061  1.3850
   21CHL1    C9 1517   5.773   1.919   9.913  0.4741  0.1014 -1.0013
   21CHL1    H9 1518   5.727   2.004   9.967 -2.4673 -1.4218 -1.0527
   21CHL1   C10 1519   5.852   1.845  10.020  0.1269  0.1755  0.4501
   21CHL1   C19 1520   5.940   1.723   9.952 -0.4435 -0.8807  0.4746
   21CHL1  H19A 1521   5.970   1.650  10.030  2.7396  0.2377  0.3603
   21CHL1  H19B 1522   5.891   1.677   9.864 -1.4489  0.7504  0.1704
   21CHL1  H19C 1523   6.039   1.767   9.925 -1.5377  0.6555 -1.1848
   21CHL1    C1 1524   5.939   1.948  10.106 -0.1625  0.3735  0.0001
   21CHL1   H1A 1525   6.012   1.992  10.034  0.7477 -0.9969  0.0676
   21CHL1   H1B 1526   5.865   2.020  10.146 -1.1015 -0.2611 -0.5814
   21CHL1    C2 1527   5.996   1.895  10.239  0.1110  0.4348  0.7654
   21CHL1   H2A 1528   6.051   1.980  10.285 -0.0906  1.1581 -0.3266
   21CHL1   H2B 1529   6.074   1.818  10.221 -1.1534 -0.7425  0.2280
   21CHL1   C20 1530   5.563   2.023   9.379  1.4603 -0.2595 -0.7253
   21CHL1   H20 1531   5.596   1.928   9.332  1.0726 -0.2699 -0.9709
   21CHL1   C21 1532   5.664   2.135   9.365  0.1152  0.0177 -0.1468
   21CHL1  H21A 1533   5.627   2.224   9.421 -2.5133 -2.7599  2.7040
   21CHL1  H21B 1534   5.680   2.158   9.258  1.0907  1.7097  0.3291
   21CHL1  H21C 1535   5.768   2.107   9.391  0.0898 -1.1038 -1.2484
   21CHL1   C22 1536   5.433   2.055   9.307 -0.4424 -0.3645  0.1799
   21CHL1  H22A 1537   5.353   1.987   9.343  0.2297 -1.7764 -0.9247
   21CHL1  H22B 1538   5.398   2.155   9.337 -0.0772 -0.1636 -0.0554
   21CHL1   C23 1539   5.439   2.063   9.151 -0.3054 -0.0112  0.1890
   21CHL1  H23A 1540   5.482   2.157   9.110 -0.0873  1.4477  3.6310
   21CHL1  H23B 1541   5.503   1.975   9.129 -0.0379 -0.5134  2.8416
   21CHL1   C24 1542   5.306   2.043   9.083 -0.5832  0.3773 -0.1853
   21CHL1  H24A 1543   5.261   1.953   9.130 -1.2644 -0.3967 -2.2497
   21CHL1  H24B 1544   5.242   2.127   9.116 -1.2080  0.6772 -2.0887
   21CHL1   C25 1545   5.287   2.030   8.934 -0.0518  0.1965 -0.0690
   21CHL1   H25 1546   5.323   2.124   8.886  1.2513 -0.7955 -1.0638
   21CHL1   C26 1547   5.363   1.917   8.878  0.2466 -0.1521 -1.0751
   21CHL1  H26A 1548   5.469   1.950   8.870 -0.0345  1.4693  1.5318
   21CHL1  H26B 1549   5.370   1.832   8.949  0.1481  0.5399 -0.2421
   21CHL1  H26C 1550   5.324   1.877   8.782  0.4544 -0.0034 -1.2220
   21CHL1   C27 1551   5.136   2.017   8.901  0.2728 -0.0795  0.3424
   21CHL1  H27A 1552   5.081   1.956   8.976  2.0580 -0.1746  1.6273
   21CHL1  H27B 1553   5.079   2.111   8.885 -2.0119 -1.0556  2.3160
   21CHL1  H27C 1554   5.134   1.957   8.808 -2.6472  0.0263  0.2979
   22CHL1    C3 1555   5.680   2.833  10.167 -0.4056 -0.5555  0.3520
   22CHL1    H3 1556   5.712   2.728  10.156 -0.7372 -0.3091 -3.3878
   22CHL1    O3 1557   5.633   2.844  10.299 -0.5015 -1.1515 -0.3211
   22CHL1   H3' 1558   5.621   2.934  10.330  2.3108 -0.2784 -1.5772
   22CHL1    C4 1559   5.798   2.919  10.145  0.0972  0.1297  0.2072
   22CHL1   H4A 1560   5.768   3.025  10.163 -2.7464 -0.1899 -2.2693
   22CHL1   H4B 1561   5.877   2.891  10.218  0.2905  0.1517  0.0108
   22CHL1    C5 1562   5.844   2.916   9.998 -0.0272  0.7061  0.5522
   22CHL1    C6 1563   5.966   2.873   9.955  0.0046 -0.2498  0.7519
   22CHL1    H6 1564   6.041   2.836  10.026  0.9539 -0.4190 -0.3082
   22CHL1    C7 1565   6.018   2.884   9.812  0.3007  0.2475 -0.3099
   22CHL1   H7A 1566   6.118   2.931   9.816  0.1387  0.6326 -0.7206
   22CHL1   H7B 1567   6.030   2.784   9.765 -0.6318  0.3534 -0.7939
   22CHL1    C8 1568   5.922   2.966   9.723  0.1746 -0.4345 -0.3976
   22CHL1    H8 1569   5.941   3.072   9.749  0.1594 -0.6142  0.3532
   22CHL1   C14 1570   5.968   2.949   9.575  0.4304 -0.4681 -0.2865
   22CHL1   H14 1571   5.969   2.841   9.549  1.1638 -0.6824  0.5873
   22CHL1   C15 1572   6.103   2.999   9.536  0.1422  0.1553 -0.5810
   22CHL1  H15A 1573   6.137   3.088   9.594  0.8408 -0.0239 -0.7083
   22CHL1  H15B 1574   6.169   2.913   9.563  0.4938  0.3386 -0.8529
   22CHL1   C16 1575   6.093   3.020   9.386  0.5500  0.0846 -0.1067
   22CHL1  H16A 1576   6.124   3.124   9.364 -1.4907  1.0631  1.4882
   22CHL1  H16B 1577   6.154   2.943   9.333  0.6607  0.6968 -0.8671
   22CHL1   C17 1578   5.939   3.012   9.341  0.8114  0.1560 -0.1437
   22CHL1   H17 1579   5.919   2.907   9.313  0.6027 -0.2639  1.5390
   22CHL1   C13 1580   5.870   3.020   9.479  0.8544 -0.1297  0.5278
   22CHL1   C18 1581   5.862   3.175   9.508  0.0664  0.3074 -0.1815
   22CHL1  H18A 1582   5.964   3.219   9.516  0.2459 -0.2146  0.4141
   22CHL1  H18B 1583   5.816   3.234   9.426 -0.5388  2.0831  1.3972
   22CHL1  H18C 1584   5.811   3.204   9.602  1.8114  0.8345  0.6382
   22CHL1   C12 1585   5.737   2.950   9.496 -0.5669  0.3166 -0.1477
   22CHL1  H12A 1586   5.664   2.987   9.421  0.2647  1.3560 -0.4470
   22CHL1  H12B 1587   5.759   2.842   9.481 -0.8032  0.4164 -1.2557
   22CHL1   C11 1588   5.678   2.974   9.640  1.2380  0.3046 -0.5199
   22CHL1  H11A 1589   5.636   3.076   9.649 -1.2217 -0.7408  0.3972
   22CHL1  H11B 1590   5.588   2.908   9.646 -0.0973  2.0279 -1.1489
   22CHL1    C9 1591   5.778   2.929   9.749 -0.5245  0.3955  0.3125
   22CHL1    H9 1592   5.775   2.819   9.738 -1.5543  0.3995  0.4723
   22CHL1   C10 1593   5.734   2.961   9.898  0.4664  0.6895 -0.3596
   22CHL1   C19 1594   5.679   3.102   9.912 -0.7591  0.0087 -0.7989
   22CHL1  H19A 1595   5.680   3.142  10.015  0.6601 -0.6564 -0.5301
   22CHL1  H19B 1596   5.736   3.167   9.842 -0.1657 -0.6518 -0.9448
   22CHL1  H19C 1597   5.576   3.114   9.872 -1.6386  0.4331  1.4917
   22CHL1    C1 1598   5.609   2.867   9.933  0.3696  0.4847  0.3209
   22CHL1   H1A 1599   5.520   2.896   9.871  2.1871 -0.6980 -2.9634
   22CHL1   H1B 1600   5.625   2.762   9.901 -2.9477 -0.7096  2.3507
   22CHL1    C2 1601   5.572   2.865  10.079 -0.0264  0.1997  0.7209
   22CHL1   H2A 1602   5.499   2.782  10.086  0.3666 -0.1893  0.1688
   22CHL1   H2B 1603   5.514   2.957  10.105  0.3033  0.7775 -0.5277
   22CHL1   C20 1604   5.900   3.100   9.226  0.3735  1.1105 -0.7936
   22CHL1   H20 1605   5.927   3.206   9.245 -1.7796  1.5248  0.0026
   22CHL1   C21 1606   5.760   3.069   9.179  0.1038 -0.0308 -0.0705
   22CHL1  H21A 1607   5.723   3.126   9.090  0.7465  0.1612 -0.2137
   22CHL1  H21B 1608   5.689   3.089   9.263 -1.6525 -1.1624 -1.2405
   22CHL1  H21C 1609   5.753   2.961   9.154  0.4565  0.1878 -1.1682
   22CHL1   C22 1610   5.995   3.062   9.111 -0.2373  0.4473  0.1641
   22CHL1  H22A 1611   5.976   3.134   9.028  1.5212  0.3917 -0.3014
   22CHL1  H22B 1612   6.101   3.076   9.137  0.0785 -0.7799 -0.4074
   22CHL1   C23 1613   5.988   2.917   9.053 -0.6536 -0.3880  0.5481
   22CHL1  H23A 1614   6.012   2.837   9.127  1.3973 -2.0388 -1.8321
   22CHL1  H23B 1615   5.883   2.900   9.021 -0.7817  0.8047  0.3191
   22CHL1   C24 1616   6.070   2.885   8.931  0.5576 -0.3524 -0.2196
   22CHL1  H24A 1617   6.052   2.776   8.914 -1.2604 -0.2771  1.0737
   22CHL1  H24B 1618   6.033   2.933   8.838  0.8167 -2.3352 -1.3761
   22CHL1   C25 1619   6.221   2.909   8.940 -0.3138 -0.2572 -0.5226
   22CHL1   H25 1620   6.255   3.001   8.992  0.2652 -1.0752  0.5634
   22CHL1   C26 1621   6.295   2.803   9.016 -0.0483  0.2820  0.0684
   22CHL1  H26A 1622   6.404   2.815   8.997 -0.1773  1.4823  0.0589
   22CHL1  H26B 1623   6.275   2.822   9.124 -1.0341  0.5096 -0.1518
   22CHL1  H26C 1624   6.267   2.698   8.993  0.1143  0.3075 -0.2522
   22CHL1   C27 1625   6.281   2.935   8.800 -0.7346  0.1336 -0.1650
   22CHL1  H27A 1626   6.277   2.849   8.730  0.2694  0.8391 -1.1064
   22CHL1  H27B 1627   6.226   3.012   8.742  0.1860  0.1551 -1.0288
   22CHL1  H27C 1628   6.390   2.957   8.807 -0.5751 -0.4574 -0.6881
   23CHL1    C3 1629   1.501   4.272  10.206 -0.1735 -0.3079 -0.5542
   23CHL1    H3 1630   1.605   4.236  10.221  0.2243  0.8438 -0.5468
   23CHL1    O3 1631   1.439   4.248  10.326  0.2797  0.4941 -0.0988
   23CHL1   H3' 1632   1.366   4.187  10.310  0.7762  0.5672 -2.8517
   23CHL1    C4 1633   1.496   4.420  10.163  0.0900 -0.0891  0.0071
   23CHL1   H4A 1634   1.389   4.446  10.181  0.2491 -0.3371  1.3673
   23CHL1   H4B 1635   1.558   4.478  10.235  1.7479  1.6204 -2.6904
   23CHL1    C5 1636   1.538   4.449  10.019 -0.1126  0.1141  0.2351
   23CHL1    C6 1637   1.644   4.531   9.998  0.8135 -0.2668  0.8902
   23CHL1    H6 1638   1.692   4.582  10.083  1.2077 -1.0381  1.1266
   23CHL1    C7 1639   1.683   4.566   9.853 -0.4305  0.0265  0.0799
   23CHL1   H7A 1640   1.707   4.674   9.846  1.6277 -0.5189 -1.7076
   23CHL1   H7B 1641   1.769   4.506   9.817  0.8319  2.0539 -0.3333
   23CHL1    C8 1642   1.574   4.524   9.745  0.0087 -0.3349 -0.1080
   23CHL1    H8 1643   1.487   4.592   9.753  0.4168 -0.1227  3.5957
   23CHL1   C14 1644   1.629   4.515   9.607 -0.0795 -0.2811 -0.0284
   23CHL1   H14 1645   1.695   4.427   9.593  3.1029  1.9902  0.0144
   23CHL1   C15 1646   1.701   4.641   9.540 -0.1366  0.5886 -0.1696
   23CHL1  H15A 1647   1.652   4.734   9.577  0.1181  0.7132 -0.1447
   23CHL1  H15B 1648   1.807   4.642   9.572  0.3793 -2.9385 -1.6625
   23CHL1   C16 1649   1.684   4.633   9.392  0.1401 -0.4888 -0.2632
   23CHL1  H16A 1650   1.617   4.715   9.359  0.6771 -0.4851 -1.3852
   23CHL1  H16B 1651   1.780   4.626   9.337 -0.0948 -0.5570 -0.6662
   23CHL1   C17 1652   1.596   4.506   9.372 -0.0502 -0.0430 -0.2672
   23CHL1   H17 1653   1.667   4.422   9.357  0.3068  0.1670  0.2231
   23CHL1   C13 1654   1.515   4.490   9.503  0.5471 -0.3829  0.6723
   23CHL1   C18 1655   1.402   4.605   9.505 -0.2438 -0.0868 -0.2638
   23CHL1  H18A 1656   1.343   4.582   9.414 -1.6659 -2.1639  1.1561
   23CHL1  H18B 1657   1.337   4.601   9.594  1.3070 -1.4775  0.8212
   23CHL1  H18C 1658   1.453   4.704   9.497 -0.2458 -0.0560  0.1144
   23CHL1   C12 1659   1.452   4.348   9.527 -0.8634 -0.1044 -0.1571
   23CHL1  H12A 1660   1.362   4.346   9.462 -1.1530  0.1074  0.2393
   23CHL1  H12B 1661   1.525   4.267   9.503  0.0368  0.4995  0.5033
   23CHL1   C11 1662   1.401   4.338   9.677 -0.1497  0.5723  0.3311
   23CHL1  H11A 1663   1.319   4.413   9.679  1.2989  2.2505 -0.8305
   23CHL1  H11B 1664   1.363   4.234   9.686 -3.9923  2.0887  2.3925
   23CHL1    C9 1665   1.510   4.385   9.784 -1.2943 -0.3757 -0.7141
   23CHL1    H9 1666   1.588   4.306   9.776 -0.6518  0.0024  1.4078
   23CHL1   C10 1667   1.450   4.371   9.927 -0.4957  1.1845 -0.6016
   23CHL1   C19 1668   1.313   4.437   9.929  0.2033 -0.0807  0.4271
   23CHL1  H19A 1669   1.280   4.456  10.033 -2.2352  1.5337 -0.5764
   23CHL1  H19B 1670   1.311   4.530   9.867  0.6326 -0.0296  0.4877
   23CHL1  H19C 1671   1.231   4.375   9.888 -1.2626  0.4246  2.5118
   23CHL1    C1 1672   1.449   4.218   9.958 -0.1650 -0.1615  0.2671
   23CHL1   H1A 1673   1.379   4.162   9.891 -0.4377  0.7760 -0.2284
   23CHL1   H1B 1674   1.551   4.175   9.949  0.5975  1.3422  1.5492
   23CHL1    C2 1675   1.416   4.186  10.108  0.0211  0.0082  0.6727
   23CHL1   H2A 1676   1.433   4.080  10.136  1.6745 -0.6790 -2.7099
   23CHL1   H2B 1677   1.306   4.197  10.119 -0.0520 -1.1583  1.1658
   23CHL1   C20 1678   1.518   4.504   9.238 -0.2977  0.3319  1.0952
   23CHL1   H20 1679   1.429   4.570   9.245  0.4827  1.7058 -1.0880
   23CHL1   C21 1680   1.466   4.363   9.210 -0.4366 -0.2245  0.3629
   23CHL1  H21A 1681   1.373   4.350   9.269 -1.9873  1.6446 -1.6273
   23CHL1  H21B 1682   1.544   4.291   9.244 -0.0614 -0.0912 -0.1953
   23CHL1  H21C 1683   1.431   4.338   9.107  1.7030  0.7054 -0.6261
   23CHL1   C22 1684   1.605   4.553   9.116 -0.0069  0.9935 -0.6632
   23CHL1  H22A 1685   1.547   4.575   9.024  3.0821  2.0636 -2.4569
   23CHL1  H22B 1686   1.639   4.656   9.140  0.4597  1.0243 -1.4253
   23CHL1   C23 1687   1.728   4.462   9.083 -0.3240 -0.2053 -0.6800
   23CHL1  H23A 1688   1.779   4.453   9.182 -2.8925 -1.7749  0.5478
   23CHL1  H23B 1689   1.688   4.360   9.070  0.3242 -0.4792 -0.5517
   23CHL1   C24 1690   1.812   4.521   8.968  0.3787 -0.2698 -0.1791
   23CHL1  H24A 1691   1.745   4.537   8.881  1.6944  0.4142 -1.0791
   23CHL1  H24B 1692   1.847   4.621   9.003 -0.7354  0.0959 -0.0823
   23CHL1   C25 1693   1.926   4.430   8.907 -0.0521  0.8922  0.2335
   23CHL1   H25 1694   1.875   4.332   8.892  2.8344 -0.4436 -1.2731
   23CHL1   C26 1695   1.974   4.484   8.766 -0.2389 -0.3559 -0.2245
   23CHL1  H26A 1696   2.007   4.589   8.753 -0.7554 -0.1305  0.2434
   23CHL1  H26B 1697   2.062   4.424   8.737 -1.1158 -1.3746 -0.8425
   23CHL1  H26C 1698   1.905   4.459   8.682  0.9799 -1.6843 -0.8550
   23CHL1   C27 1699   2.050   4.408   8.996  0.1719  0.2324  0.7436
   23CHL1  H27A 1700   2.019   4.354   9.088  2.2209 -1.1595  0.6395
   23CHL1  H27B 1701   2.127   4.348   8.942  0.4175  1.6151 -0.4722
   23CHL1  H27C 1702   2.091   4.508   9.020  0.6275  0.3001 -0.2894
   24CHL1    C3 1703   2.935   5.016  10.154  0.1642 -0.0523  0.7211
   24CHL1    H3 1704   2.854   4.941  10.144  0.4707 -0.4601  1.2772
   24CHL1    O3 1705   2.947   5.050  10.295  0.5492  0.6135 -0.1023
   24CHL1   H3' 1706   3.020   5.112  10.297  0.0464  1.3389 -2.5905
   24CHL1    C4 1707   3.064   4.959  10.104  0.4857 -0.2199  0.7203
   24CHL1   H4A 1708   3.150   5.029  10.110 -0.9764  1.7295 -0.2387
   24CHL1   H4B 1709   3.093   4.864  10.153 -1.9155 -0.8722  0.9506
   24CHL1    C5 1710   3.045   4.925   9.960 -0.7831  0.6835 -0.3527
   24CHL1    C6 1711   3.061   4.795   9.922  0.2889  0.8725  0.0635
   24CHL1    H6 1712   3.085   4.716   9.995  0.9975  0.0828 -1.0056
   24CHL1    C7 1713   3.061   4.755   9.776 -0.0176 -0.0106 -0.0070
   24CHL1   H7A 1714   3.153   4.692   9.765  0.1451 -0.0510  1.5372
   24CHL1   H7B 1715   2.973   4.696   9.742  0.0782  0.2648 -0.7412
   24CHL1    C8 1716   3.074   4.880   9.684 -0.5455 -0.0108  0.1020
   24CHL1    H8 1717   3.173   4.926   9.701 -0.4530 -0.4796  0.8523
   24CHL1   C14 1718   3.049   4.841   9.541 -0.5416  0.0251 -0.5946
   24CHL1   H14 1719   2.954   4.784   9.551 -0.5821  0.3267  0.8951
   24CHL1   C15 1720   3.138   4.725   9.481  0.5704 -0.4476 -0.4399
   24CHL1  H15A 1721   3.246   4.733   9.508  0.8296 -1.6236 -1.1285
   24CHL1  H15B 1722   3.108   4.626   9.522 -1.1459 -0.3957 -1.5333
   24CHL1   C16 1723   3.118   4.757   9.335  0.1017 -0.1253  0.8934
   24CHL1  H16A 1724   3.220   4.767   9.291  0.4556 -4.0710  0.6580
   24CHL1  H16B 1725   3.076   4.670   9.281  0.8172  1.1893 -1.8712
   24CHL1   C17 1726   3.021   4.884   9.310  0.1695  0.9739  0.2293
   24CHL1   H17 1727   2.915   4.853   9.296 -0.0323  2.0071 -0.5748
   24CHL1   C13 1728   3.034   4.956   9.445 -0.6478 -0.5807 -0.0875
   24CHL1   C18 1729   3.160   5.045   9.441 -0.1679  0.1607  0.1447
   24CHL1  H18A 1730   3.142   5.131   9.373 -3.6459 -0.8834 -0.3752
   24CHL1  H18B 1731   3.177   5.086   9.543 -1.8946  0.1662  0.4435
   24CHL1  H18C 1732   3.254   4.989   9.423 -0.4465 -0.5704  0.9295
   24CHL1   C12 1733   2.910   5.032   9.481 -0.0325 -0.2784 -0.7529
   24CHL1  H12A 1734   2.891   5.102   9.397 -0.4929  0.6557  0.1131
   24CHL1  H12B 1735   2.822   4.965   9.486  0.1608 -0.4413  0.6477
   24CHL1   C11 1736   2.940   5.097   9.619 -0.1183 -0.0197 -0.4664
   24CHL1  H11A 1737   3.002   5.189   9.610  0.8011 -0.0065  4.5878
   24CHL1  H11B 1738   2.845   5.143   9.655 -0.7498 -1.5342 -0.1495
   24CHL1    C9 1739   2.974   4.987   9.731  0.6666 -0.8669 -0.4164
   24CHL1    H9 1740   2.886   4.927   9.760  0.3223  0.6519  1.7512
   24CHL1   C10 1741   3.006   5.045   9.869  0.1939  0.3475  0.3377
   24CHL1   C19 1742   3.127   5.146   9.861 -0.2161 -0.2300  0.2382
   24CHL1  H19A 1743   3.163   5.180   9.961  1.0647 -0.8289  0.0027
   24CHL1  H19B 1744   3.215   5.092   9.819  1.7971  2.5053  0.8356
   24CHL1  H19C 1745   3.101   5.230   9.794 -2.8058 -1.2145 -0.0263
   24CHL1    C1 1746   2.879   5.114   9.929 -0.5674 -0.3976  0.0704
   24CHL1   H1A 1747   2.859   5.201   9.863 -1.6424  0.7601  1.9120
   24CHL1   H1B 1748   2.786   5.055   9.917 -1.0361  0.2161  0.6871
   24CHL1    C2 1749   2.891   5.146  10.085 -0.1485  0.2246  0.0348
   24CHL1   H2A 1750   2.789   5.169  10.123 -1.1451 -4.2712  0.3748
   24CHL1   H2B 1751   2.947   5.239  10.106  0.3779  0.0922 -0.7638
   24CHL1   C20 1752   3.052   4.949   9.173  0.4854  0.1450  0.2350
   24CHL1   H20 1753   3.159   4.980   9.173  0.3812  0.4989  0.1811
   24CHL1   C21 1754   2.967   5.080   9.151  0.1153  0.3001 -0.1136
   24CHL1  H21A 1755   3.008   5.123   9.057 -1.0434  2.1206  0.1983
   24CHL1  H21B 1756   2.989   5.149   9.234 -0.9469  0.1268  0.3235
   24CHL1  H21C 1757   2.857   5.062   9.150  0.5272 -2.6639  1.1409
   24CHL1   C22 1758   3.029   4.850   9.053  0.5189 -0.0460 -0.0179
   24CHL1  H22A 1759   3.066   4.748   9.077  2.5505  0.0800 -2.3760
   24CHL1  H22B 1760   2.919   4.853   9.035  0.3447 -0.0459  1.0134
   24CHL1   C23 1761   3.108   4.906   8.923 -0.3022  0.0039  0.3131
   24CHL1  H23A 1762   3.110   5.016   8.916  0.8937 -0.0033  0.4409
   24CHL1  H23B 1763   3.212   4.867   8.929 -0.5064 -1.0413 -2.2238
   24CHL1   C24 1764   3.054   4.845   8.791  0.8642  0.8866 -0.4000
   24CHL1  H24A 1765   3.085   4.738   8.787  1.5062  1.0806 -0.6899
   24CHL1  H24B 1766   2.943   4.842   8.791  0.8387  1.7685 -0.7234
   24CHL1   C25 1767   3.093   4.914   8.664  0.3593 -0.6341  0.0334
   24CHL1   H25 1768   3.031   5.007   8.658 -0.0132 -0.8321  0.7147
   24CHL1   C26 1769   3.245   4.934   8.645 -0.3401  0.9760  0.2402
   24CHL1  H26A 1770   3.301   4.915   8.739 -1.8408 -0.3960  0.8740
   24CHL1  H26B 1771   3.287   4.865   8.569  0.9230  0.5627  1.2798
   24CHL1  H26C 1772   3.255   5.044   8.629  0.9605  0.6949 -0.9320
   24CHL1   C27 1773   3.049   4.832   8.542 -0.2461 -0.1893 -0.6175
   24CHL1  H27A 1774   3.073   4.891   8.451 -1.0013 -0.3894 -0.9566
   24CHL1  H27B 1775   3.107   4.738   8.533  0.4172  0.2123 -0.5122
   24CHL1  H27C 1776   2.942   4.803   8.550 -0.1730 -0.0605  1.0032
   25CHL1    C3 1777   4.922   6.714  10.213 -0.4963 -0.5358  0.2049
   25CHL1    H3 1778   4.991   6.628  10.229  1.3649  0.9359  0.3195
   25CHL1    O3 1779   4.877   6.749  10.345  0.2410 -0.3881 -0.2716
   25CHL1   H3' 1780   4.945   6.804  10.384  0.3296  0.2777 -1.3521
   25CHL1    C4 1781   5.008   6.823  10.147 -0.2925  0.5018  0.1013
   25CHL1   H4A 1782   4.941   6.911  10.158 -1.3426 -0.4372  1.3276
   25CHL1   H4B 1783   5.093   6.847  10.214  0.4506 -1.2729 -0.1685
   25CHL1    C5 1784   5.046   6.792  10.002  0.3209 -0.7980 -0.0382
   25CHL1    C6 1785   5.172   6.799   9.959  0.5052  0.0366 -0.3125
   25CHL1    H6 1786   5.245   6.836  10.033  1.7522 -0.6565 -1.1665
   25CHL1    C7 1787   5.223   6.780   9.821  0.1612  0.2941 -0.1208
   25CHL1   H7A 1788   5.297   6.861   9.806 -0.6339  1.2640  1.0526
   25CHL1   H7B 1789   5.284   6.688   9.816  0.1269  0.0651  2.6099
   25CHL1    C8 1790   5.100   6.770   9.721 -0.7650 -0.1461 -0.0791
   25CHL1    H8 1791   5.062   6.874   9.706  0.6453  0.3114 -0.6277
   25CHL1   C14 1792   5.145   6.721   9.583 -0.0090  0.0010  0.9348
   25CHL1   H14 1793   5.172   6.613   9.577  0.7787  0.3065 -2.4733
   25CHL1   C15 1794   5.261   6.784   9.508 -0.0721  0.0290 -0.1369
   25CHL1  H15A 1795   5.261   6.888   9.547  0.4967  0.2736 -0.7889
   25CHL1  H15B 1796   5.361   6.740   9.530 -0.8220 -2.2110 -1.1002
   25CHL1   C16 1797   5.236   6.760   9.363  0.7301 -0.2545  0.2102
   25CHL1  H16A 1798   5.210   6.859   9.321  0.0341  0.3466  2.0053
   25CHL1  H16B 1799   5.324   6.709   9.318  0.6114  1.6822 -2.2859
   25CHL1   C17 1800   5.106   6.677   9.353 -0.1456  0.0755 -0.2248
   25CHL1   H17 1801   5.140   6.572   9.364 -2.1463 -0.4068  1.4992
   25CHL1   C13 1802   5.024   6.721   9.483  0.5412 -0.0811  0.3698
   25CHL1   C18 1803   4.961   6.864   9.455  0.0661  1.0567  0.1521
   25CHL1  H18A 1804   4.923   6.915   9.546 -1.2138 -0.9471  0.7929
   25CHL1  H18B 1805   5.037   6.932   9.413 -0.0971  1.4522  0.4929
   25CHL1  H18C 1806   4.872   6.858   9.389  2.0967  3.2270 -2.9076
   25CHL1   C12 1807   4.922   6.618   9.532 -0.3413 -0.6280 -0.2612
   25CHL1  H12A 1808   4.829   6.601   9.474 -0.8164  2.4182 -0.4653
   25CHL1  H12B 1809   4.973   6.520   9.527 -0.9679 -0.9328 -0.7425
   25CHL1   C11 1810   4.871   6.660   9.671 -0.4102  0.1748  0.2085
   25CHL1  H11A 1811   4.801   6.744   9.653 -1.9734 -0.6213  2.4097
   25CHL1  H11B 1812   4.809   6.576   9.709  1.1879 -2.0094 -1.8285
   25CHL1    C9 1813   4.982   6.688   9.777  0.0244 -0.4368 -0.0426
   25CHL1    H9 1814   5.028   6.590   9.800  0.0572  0.4263  3.9221
   25CHL1   C10 1815   4.932   6.742   9.918  1.0148  0.2011 -0.3515
   25CHL1   C19 1816   4.838   6.858   9.893 -0.1748 -0.2646 -0.2356
   25CHL1  H19A 1817   4.764   6.812   9.824 -0.2452  0.0424 -0.3677
   25CHL1  H19B 1818   4.805   6.906   9.988  2.8173  0.3108  0.5502
   25CHL1  H19C 1819   4.887   6.930   9.824  1.1932 -0.1338  0.8514
   25CHL1    C1 1820   4.861   6.620   9.996 -0.3799 -0.2059 -0.7229
   25CHL1   H1A 1821   4.779   6.583   9.930 -0.2465  1.2442 -1.7178
   25CHL1   H1B 1822   4.927   6.531  10.003  0.4210  0.5736  2.1743
   25CHL1    C2 1823   4.805   6.660  10.131 -0.1838 -0.1239 -0.2648
   25CHL1   H2A 1824   4.754   6.576  10.182  1.8475 -1.5091 -0.4851
   25CHL1   H2B 1825   4.733   6.745  10.125  0.4666  0.5363  1.2148
   25CHL1   C20 1826   5.040   6.693   9.214  0.8301 -0.5287  0.2955
   25CHL1   H20 1827   5.002   6.796   9.194  1.7838 -0.2829 -0.2804
   25CHL1   C21 1828   4.914   6.607   9.209 -0.0751  0.3616  0.2005
   25CHL1  H21A 1829   4.940   6.501   9.229  1.0159  0.4867 -0.5008
   25CHL1  H21B 1830   4.854   6.619   9.116  0.9365  2.0019 -0.2584
   25CHL1  H21C 1831   4.846   6.647   9.287  0.8986 -1.6931  2.1734
   25CHL1   C22 1832   5.134   6.634   9.106 -0.3439  0.1035 -0.2278
   25CHL1  H22A 1833   5.235   6.679   9.103 -0.3789  0.1290 -0.9536
   25CHL1  H22B 1834   5.155   6.527   9.127  1.6538  0.6577  0.7216
   25CHL1   C23 1835   5.090   6.643   8.960 -0.4394  0.4629  0.3484
   25CHL1  H23A 1836   4.983   6.621   8.944  0.0569 -2.2978  0.6744
   25CHL1  H23B 1837   5.108   6.751   8.941  2.2105 -0.0734 -0.3393
   25CHL1   C24 1838   5.172   6.550   8.864  0.3568  0.4950 -0.3768
   25CHL1  H24A 1839   5.277   6.557   8.900  0.3931  0.9528 -0.5732
   25CHL1  H24B 1840   5.154   6.440   8.866 -0.9164  0.6915 -0.5138
   25CHL1   C25 1841   5.164   6.580   8.714 -0.0407 -0.2272 -0.3917
   25CHL1   H25 1842   5.061   6.570   8.675  0.1127  2.6204 -1.6135
   25CHL1   C26 1843   5.211   6.721   8.673 -0.6099 -0.1832 -0.3291
   25CHL1  H26A 1844   5.154   6.807   8.713 -3.1474 -2.2469  0.6760
   25CHL1  H26B 1845   5.317   6.740   8.702 -0.9823 -0.9951  1.6509
   25CHL1  H26C 1846   5.210   6.704   8.564  2.0184 -2.1874 -0.0875
   25CHL1   C27 1847   5.255   6.478   8.645 -0.0721  0.2892  1.0751
   25CHL1  H27A 1848   5.236   6.372   8.674  1.6469 -0.2005  0.4765
   25CHL1  H27B 1849   5.245   6.486   8.535  1.0021 -0.6149  0.8992
   25CHL1  H27C 1850   5.356   6.509   8.682  0.6348 -1.9669  1.1407
   26CHL1    C3 1851   0.164   2.054  10.044  0.4080 -0.4962 -0.9328
   26CHL1    H3 1852   0.249   1.986  10.021  1.0687  0.2815 -0.8685
   26CHL1    O3 1853   0.165   2.067  10.184  0.0826  0.1488  0.2286
   26CHL1   H3' 1854   0.091   2.127  10.194 -1.4825 -1.7138  0.1411
   26CHL1    C4 1855   0.200   2.186   9.978  1.2692  0.2650  0.6953
   26CHL1   H4A 1856   0.125   2.260  10.015  1.1730  0.5436 -0.0469
   26CHL1   H4B 1857   0.299   2.221  10.014  0.1091  1.5836  2.7599
   26CHL1    C5 1858   0.194   2.175   9.827  0.0062 -0.1969 -0.5235
   26CHL1    C6 1859   0.301   2.184   9.756  0.1415  0.3037  0.1057
   26CHL1    H6 1860   0.393   2.216   9.808 -0.6193  1.2219  0.9115
   26CHL1    C7 1861   0.315   2.177   9.605 -0.5565  0.3751  0.7096
   26CHL1   H7A 1862   0.383   2.253   9.560  0.1393 -0.4691  0.3331
   26CHL1   H7B 1863   0.378   2.090   9.576 -2.1774 -0.2342 -1.0239
   26CHL1    C8 1864   0.182   2.163   9.539  0.1903  0.0707 -0.4210
   26CHL1    H8 1865   0.134   2.263   9.539  1.3581  0.6413  0.3201
   26CHL1   C14 1866   0.189   2.110   9.399  0.7758  0.0561  0.7486
   26CHL1   H14 1867   0.227   2.006   9.403  1.8025  0.3737 -0.5684
   26CHL1   C15 1868   0.296   2.182   9.313  0.0974 -0.4567  0.1851
   26CHL1  H15A 1869   0.292   2.289   9.343  2.1218 -0.2611 -0.2126
   26CHL1  H15B 1870   0.394   2.135   9.336  0.2688  0.3099  1.0625
   26CHL1   C16 1871   0.250   2.164   9.170 -0.0278 -0.0990  0.2905
   26CHL1  H16A 1872   0.236   2.261   9.118 -2.1062 -0.1053  0.8029
   26CHL1  H16B 1873   0.328   2.099   9.125 -1.4999 -1.0219 -0.9938
   26CHL1   C17 1874   0.115   2.079   9.182  0.1771 -0.1267 -0.2698
   26CHL1   H17 1875   0.140   1.971   9.176  0.8245  0.1337 -2.7320
   26CHL1   C13 1876   0.060   2.113   9.317 -0.4747 -0.3352  0.4235
   26CHL1   C18 1877  -0.011   2.247   9.319  0.3474 -0.0128  0.4198
   26CHL1  H18A 1878   0.051   2.329   9.277 -0.9023  0.6409 -0.1876
   26CHL1  H18B 1879  -0.098   2.250   9.251  0.0816  0.5573  0.7858
   26CHL1  H18C 1880  -0.050   2.282   9.417  0.4854 -0.2856  0.5721
   26CHL1   C12 1881  -0.028   2.009   9.396  0.0414  0.3841 -0.7010
   26CHL1  H12A 1882  -0.128   2.001   9.348 -0.8651 -1.9468  1.4342
   26CHL1  H12B 1883   0.019   1.908   9.397  0.7846  0.7280 -1.0708
   26CHL1   C11 1884  -0.050   2.048   9.540 -0.1015 -0.1543 -0.6699
   26CHL1  H11A 1885  -0.117   2.136   9.542 -1.5998 -1.1954 -2.7467
   26CHL1  H11B 1886  -0.100   1.959   9.584 -1.2388  0.3597 -0.9074
   26CHL1    C9 1887   0.080   2.080   9.617  0.0218 -0.3358  0.0281
   26CHL1    H9 1888   0.140   1.986   9.614  1.4164  0.5757 -2.3674
   26CHL1   C10 1889   0.066   2.119   9.770  0.5457 -0.1671  0.0647
   26CHL1   C19 1890  -0.040   2.227   9.792  0.0274 -0.5429  0.3772
   26CHL1  H19A 1891  -0.045   2.265   9.897  0.3124 -0.4423  0.3529
   26CHL1  H19B 1892  -0.028   2.307   9.717 -1.8346 -2.1325 -1.6737
   26CHL1  H19C 1893  -0.143   2.188   9.776 -0.5678 -0.1236  2.8920
   26CHL1    C1 1894   0.017   1.993   9.844 -0.1058 -0.3361 -0.0517
   26CHL1   H1A 1895  -0.084   1.956   9.816 -0.0611  0.0300 -0.7209
   26CHL1   H1B 1896   0.082   1.909   9.813 -0.1339 -0.7098  0.9044
   26CHL1    C2 1897   0.024   2.000   9.998 -0.0479  0.1398  0.0364
   26CHL1   H2A 1898  -0.009   1.908  10.051  0.9917  0.0566  0.5546
   26CHL1   H2B 1899  -0.053   2.077  10.022  0.8937  1.3220 -0.6581
   26CHL1   C20 1900   0.038   2.102   9.052  0.1037  0.1114  0.4682
   26CHL1   H20 1901   0.015   2.210   9.038  0.7608  0.1836 -0.0738
   26CHL1   C21 1902  -0.085   2.020   9.064  0.2268  0.1741 -0.3916
   26CHL1  H21A 1903  -0.162   2.058   9.134 -1.6672  1.8205 -3.2520
   26CHL1  H21B 1904  -0.062   1.920   9.107 -0.6556 -0.1433 -0.6330
   26CHL1  H21C 1905  -0.143   2.014   8.969 -1.0195 -1.0813  0.4124
   26CHL1   C22 1906   0.125   2.065   8.928 -0.0348  0.9450 -0.5764
   26CHL1  H22A 1907   0.218   2.126   8.930  0.8084 -0.3003 -0.8399
   26CHL1  H22B 1908   0.154   1.958   8.926 -0.8534  0.7120  0.1959
   26CHL1   C23 1909   0.062   2.093   8.793  0.2100  0.1360  0.1710
   26CHL1  H23A 1910  -0.027   2.027   8.786  0.4516 -0.0024 -1.7527
   26CHL1  H23B 1911   0.020   2.195   8.781 -1.5155 -0.7910 -1.9414
   26CHL1   C24 1912   0.137   2.058   8.664  0.0205 -0.6995  1.2654
   26CHL1  H24A 1913   0.209   2.143   8.660 -3.3941  2.2347  0.0100
   26CHL1  H24B 1914   0.187   1.959   8.672 -1.6791 -2.0100 -3.1002
   26CHL1   C25 1915   0.041   2.034   8.545 -0.5145  0.3074 -0.3051
   26CHL1   H25 1916  -0.033   1.954   8.570  0.8142 -0.3993  1.4338
   26CHL1   C26 1917  -0.049   2.151   8.503  0.2468 -0.3564  0.4570
   26CHL1  H26A 1918  -0.100   2.120   8.408 -0.7259  2.0483  0.1576
   26CHL1  H26B 1919  -0.126   2.165   8.582  0.6392  2.4578  0.4018
   26CHL1  H26C 1920   0.012   2.243   8.495  1.6072 -1.2349  0.7175
   26CHL1   C27 1921   0.123   1.979   8.422  0.2729 -0.3581 -0.0327
   26CHL1  H27A 1922   0.203   1.910   8.458 -0.6623 -0.5345  1.7848
   26CHL1  H27B 1923   0.055   1.924   8.354  1.6367 -1.4017 -0.5828
   26CHL1  H27C 1924   0.177   2.062   8.373 -3.1588  1.5489 -0.7141
   27CHL1    C3 1925   5.161   6.202  10.261  0.2491  0.3665 -0.3720
   27CHL1    H3 1926   5.156   6.094  10.234  3.5399 -1.1980  4.5244
   27CHL1    O3 1927   5.128   6.206  10.400 -0.3793  0.6285 -0.1881
   27CHL1   H3' 1928   5.062   6.137  10.402 -0.0168  0.1564 -2.7566
   27CHL1    C4 1929   5.306   6.233  10.242 -0.1093  0.0918  0.8516
   27CHL1   H4A 1930   5.331   6.327  10.295 -2.6291  2.1593 -1.5137
   27CHL1   H4B 1931   5.357   6.154  10.302 -0.5284  0.4695  1.7207
   27CHL1    C5 1932   5.351   6.238  10.101 -0.0515  0.4460 -0.0254
   27CHL1    C6 1933   5.454   6.169  10.065  0.5290  0.2031 -0.0158
   27CHL1    H6 1934   5.506   6.109  10.141  2.2991  2.5532  0.6542
   27CHL1    C7 1935   5.517   6.165   9.929 -0.2808 -0.2003  0.4264
   27CHL1   H7A 1936   5.623   6.196   9.926 -0.0989 -0.9312 -0.9262
   27CHL1   H7B 1937   5.499   6.062   9.891  0.1676  0.4497 -1.6006
   27CHL1    C8 1938   5.453   6.263   9.829 -0.3622 -0.0952  0.0444
   27CHL1    H8 1939   5.496   6.364   9.843  0.7462 -0.1710 -2.4888
   27CHL1   C14 1940   5.483   6.228   9.687 -0.1552 -0.6809  0.3548
   27CHL1   H14 1941   5.436   6.128   9.683 -0.3426 -0.6646  1.9683
   27CHL1   C15 1942   5.625   6.212   9.640  0.4076 -0.1922  0.1184
   27CHL1  H15A 1943   5.686   6.289   9.693 -0.5445  0.9784 -0.4874
   27CHL1  H15B 1944   5.669   6.113   9.667 -3.5203 -2.1641 -0.4158
   27CHL1   C16 1945   5.623   6.237   9.495 -0.0109  0.3698  0.0512
   27CHL1  H16A 1946   5.688   6.320   9.459 -2.0662  2.5239  1.1313
   27CHL1  H16B 1947   5.669   6.149   9.446 -0.3108  1.1057 -1.5936
   27CHL1   C17 1948   5.476   6.259   9.456  0.2510 -0.1344 -0.2913
   27CHL1   H17 1949   5.427   6.159   9.451 -0.4046  0.1438  0.4424
   27CHL1   C13 1950   5.420   6.327   9.587  0.5767  0.2553  0.3205
   27CHL1   C18 1951   5.486   6.466   9.597 -0.5867 -0.2617 -0.5067
   27CHL1  H18A 1952   5.445   6.519   9.508 -0.3948  0.2130 -0.3146
   27CHL1  H18B 1953   5.441   6.525   9.679  0.4518  0.7659 -0.6710
   27CHL1  H18C 1954   5.594   6.469   9.619 -0.6617  1.6983 -0.3329
   27CHL1   C12 1955   5.274   6.330   9.607  0.2638  0.7194  0.8548
   27CHL1  H12A 1956   5.222   6.411   9.552  1.6955  2.5457  2.1531
   27CHL1  H12B 1957   5.227   6.238   9.565  2.6418 -1.3884  2.6550
   27CHL1   C11 1958   5.238   6.369   9.752  0.7577  0.1984  0.1816
   27CHL1  H11A 1959   5.264   6.476   9.763 -0.6560  0.6441 -0.7743
   27CHL1  H11B 1960   5.129   6.358   9.771  0.8670 -0.7066  0.3333
   27CHL1    C9 1961   5.300   6.273   9.853 -0.3766 -0.0089 -0.1532
   27CHL1    H9 1962   5.263   6.171   9.830 -2.9349  1.1340 -1.3241
   27CHL1   C10 1963   5.260   6.304  10.003  0.2179  0.8214  0.1981
   27CHL1   C19 1964   5.287   6.455  10.029 -0.2146  0.0711 -0.1513
   27CHL1  H19A 1965   5.270   6.480  10.136  0.0046 -1.5725  0.2849
   27CHL1  H19B 1966   5.389   6.493  10.007 -1.0544  0.9382 -2.7508
   27CHL1  H19C 1967   5.224   6.523   9.968 -0.5477  0.1983  0.3339
   27CHL1    C1 1968   5.112   6.270  10.031 -0.8602  0.2788  0.1680
   27CHL1   H1A 1969   5.056   6.341   9.967 -3.1176 -0.9285  0.7650
   27CHL1   H1B 1970   5.095   6.168   9.993 -0.7022  0.6673 -0.9492
   27CHL1    C2 1971   5.066   6.285  10.179 -0.5954  0.7185  0.7667
   27CHL1   H2A 1972   4.961   6.249  10.193 -0.2460 -0.5594  0.1902
   27CHL1   H2B 1973   5.068   6.394  10.198 -1.4399  0.6147  1.5334
   27CHL1   C20 1974   5.455   6.324   9.316 -0.5025  0.3002 -0.4937
   27CHL1   H20 1975   5.489   6.430   9.315  1.5073 -0.3077  0.0094
   27CHL1   C21 1976   5.310   6.317   9.274  0.5725  0.3458  0.4824
   27CHL1  H21A 1977   5.251   6.354   9.360 -0.8001 -1.1086  0.1984
   27CHL1  H21B 1978   5.273   6.214   9.255 -1.3887  0.7866  1.8074
   27CHL1  H21C 1979   5.291   6.386   9.189  0.9858 -0.4940 -0.3046
   27CHL1   C22 1980   5.546   6.254   9.200  0.1893  0.6003  0.0382
   27CHL1  H22A 1981   5.652   6.275   9.225  0.3683 -1.0790  0.7289
   27CHL1  H22B 1982   5.529   6.145   9.189 -1.8138  0.9374 -0.5189
   27CHL1   C23 1983   5.508   6.315   9.061 -0.0583 -0.6679 -0.0245
   27CHL1  H23A 1984   5.405   6.283   9.038 -0.3172  1.5500 -2.1746
   27CHL1  H23B 1985   5.509   6.426   9.070 -1.4915 -0.6678  0.1065
   27CHL1   C24 1986   5.594   6.275   8.939  0.0671 -0.6061 -0.3116
   27CHL1  H24A 1987   5.692   6.308   8.979 -0.5352  0.9044 -0.0318
   27CHL1  H24B 1988   5.588   6.167   8.915  0.1705 -0.4227 -1.1734
   27CHL1   C25 1989   5.560   6.356   8.808 -0.1507 -0.0664 -0.5281
   27CHL1   H25 1990   5.452   6.339   8.789 -0.0740  0.1450 -1.1562
   27CHL1   C26 1991   5.578   6.507   8.831 -0.2795  0.4670  0.9114
   27CHL1  H26A 1992   5.511   6.545   8.911 -1.7668 -0.0789 -0.0546
   27CHL1  H26B 1993   5.686   6.523   8.852 -0.0729  2.0390 -1.1932
   27CHL1  H26C 1994   5.560   6.566   8.738  0.5094 -0.5027  0.1278
   27CHL1   C27 1995   5.649   6.307   8.690  0.2736  0.2110  0.1920
   27CHL1  H27A 1996   5.617   6.346   8.591  0.0866  1.1225  0.6044
   27CHL1  H27B 1997   5.758   6.324   8.703  0.3801 -0.2621 -0.0709
   27CHL1  H27C 1998   5.635   6.197   8.691 -3.0317  0.5913  0.6379
   28CHL1    C3 1999   4.233   5.000  10.226  0.1577 -0.5251 -0.6298
   28CHL1    H3 2000   4.166   5.088  10.214  0.4410 -0.1934  0.2031
   28CHL1    O3 2001   4.225   4.968  10.373  1.0020 -0.3778 -0.1041
   28CHL1   H3' 2002   4.259   5.049  10.413  0.0544 -0.7539  1.5051
   28CHL1    C4 2003   4.162   4.896  10.136  0.5125 -0.4782  1.1419
   28CHL1   H4A 2004   4.195   4.796  10.173  0.8028 -0.5134  0.7813
   28CHL1   H4B 2005   4.056   4.905  10.168  0.4295  4.7403 -0.2255
   28CHL1    C5 2006   4.167   4.917   9.984  0.2128 -0.3874 -1.3396
   28CHL1    C6 2007   4.057   4.919   9.906 -0.0308  0.7194  0.1184
   28CHL1    H6 2008   3.961   4.904   9.959 -0.2652  1.4330 -0.0947
   28CHL1    C7 2009   4.065   4.921   9.758 -0.9094  0.4827 -0.4483
   28CHL1   H7A 2010   4.003   4.844   9.706  0.0183  0.6480 -1.8225
   28CHL1   H7B 2011   4.023   5.012   9.710 -0.1894 -0.6272 -3.2559
   28CHL1    C8 2012   4.207   4.904   9.697  0.3910 -0.1224  0.0262
   28CHL1    H8 2013   4.251   4.802   9.694  0.9450  0.1635 -1.4112
   28CHL1   C14 2014   4.208   4.963   9.549 -0.3676 -0.1952 -0.2472
   28CHL1   H14 2015   4.191   5.072   9.565 -3.4136 -0.9107  1.7584
   28CHL1   C15 2016   4.099   4.923   9.441 -0.2330  0.3452 -0.2661
   28CHL1  H15A 2017   4.107   4.812   9.444  3.2191  0.4481 -2.2144
   28CHL1  H15B 2018   3.996   4.952   9.470  0.8662  2.6689  1.4581
   28CHL1   C16 2019   4.162   4.977   9.312  0.6462  0.0178 -0.0080
   28CHL1  H16A 2020   4.164   4.899   9.233  0.8532 -0.1207  0.1327
   28CHL1  H16B 2021   4.102   5.065   9.282 -0.5855 -0.9807 -0.5301
   28CHL1   C17 2022   4.309   5.031   9.343  0.2420 -0.4548  0.0599
   28CHL1   H17 2023   4.293   5.137   9.371 -1.1715 -0.4929 -0.5437
   28CHL1   C13 2024   4.345   4.966   9.478  0.2905 -0.2020  0.8556
   28CHL1   C18 2025   4.406   4.822   9.471  0.3579 -0.1642 -0.5858
   28CHL1  H18A 2026   4.400   4.767   9.568 -0.2288 -0.1437 -0.6098
   28CHL1  H18B 2027   4.347   4.763   9.397 -1.3953 -1.0630  1.4699
   28CHL1  H18C 2028   4.515   4.820   9.452  0.4604 -0.0242 -0.0155
   28CHL1   C12 2029   4.440   5.043   9.576 -0.1080 -0.0157  0.6324
   28CHL1  H12A 2030   4.544   5.052   9.539 -1.4949  1.8378 -2.9989
   28CHL1  H12B 2031   4.399   5.146   9.581  0.7125  0.4809 -2.0444
   28CHL1   C11 2032   4.439   4.981   9.717 -0.6559 -0.6378  0.2070
   28CHL1  H11A 2033   4.491   4.884   9.722 -1.6659 -1.2589 -1.2504
   28CHL1  H11B 2034   4.501   5.053   9.775 -1.8801  0.6828 -0.0933
   28CHL1    C9 2035   4.304   4.989   9.784 -0.2703 -0.3247 -0.8138
   28CHL1    H9 2036   4.269   5.095   9.790  0.9321  0.0055  0.6235
   28CHL1   C10 2037   4.308   4.945   9.936  0.6904 -1.1347  0.1467
   28CHL1   C19 2038   4.401   4.827   9.962 -0.1861 -0.2116 -0.8030
   28CHL1  H19A 2039   4.376   4.782  10.060 -1.1428  1.6430 -0.1610
   28CHL1  H19B 2040   4.383   4.744   9.890 -2.7160  0.8474 -1.4782
   28CHL1  H19C 2041   4.508   4.855   9.958  0.3501 -2.1145 -0.1819
   28CHL1    C1 2042   4.361   5.063  10.022  0.2923  0.1707  0.2012
   28CHL1   H1A 2043   4.466   5.090   9.999  0.3112  0.3202  0.4619
   28CHL1   H1B 2044   4.300   5.154  10.006  0.1112  0.1876  1.0036
   28CHL1    C2 2045   4.367   5.044  10.176  0.5808  0.4641 -0.4098
   28CHL1   H2A 2046   4.390   5.141  10.226 -0.3791  0.0925  0.7820
   28CHL1   H2B 2047   4.442   4.968  10.205  0.7625  0.6487 -0.3991
   28CHL1   C20 2048   4.409   5.027   9.226 -0.4047  0.1033  0.3409
   28CHL1   H20 2049   4.408   4.925   9.181  2.8182  0.5233 -0.8791
   28CHL1   C21 2050   4.547   5.069   9.275  0.0522  0.1580  0.4489
   28CHL1  H21A 2051   4.534   5.177   9.298  1.3302  0.4563 -0.1926
   28CHL1  H21B 2052   4.622   5.044   9.196 -1.1796 -1.7677 -0.1542
   28CHL1  H21C 2053   4.581   5.012   9.364 -0.1392 -0.5459  0.0766
   28CHL1   C22 2054   4.361   5.131   9.121 -0.6397 -0.7362  1.1553
   28CHL1  H22A 2055   4.256   5.104   9.093 -1.0891  0.9547  1.1918
   28CHL1  H22B 2056   4.365   5.233   9.163  0.3470  0.3723 -1.5000
   28CHL1   C23 2057   4.449   5.128   8.993  0.5409 -0.8814  0.3385
   28CHL1  H23A 2058   4.529   5.205   8.987  1.4808 -1.9297 -0.9372
   28CHL1  H23B 2059   4.495   5.029   8.972  2.2772  0.0788 -0.5283
   28CHL1   C24 2060   4.355   5.163   8.871  0.5143  0.6073 -0.1699
   28CHL1  H24A 2061   4.314   5.067   8.833 -0.6152  0.2296  1.9336
   28CHL1  H24B 2062   4.268   5.222   8.907  0.4262 -0.5419  1.5703
   28CHL1   C25 2063   4.412   5.246   8.754  1.1196 -0.0543  0.7792
   28CHL1   H25 2064   4.442   5.347   8.790  1.0500  0.3140 -0.1714
   28CHL1   C26 2065   4.529   5.176   8.686  0.2239 -0.6094  1.2239
   28CHL1  H26A 2066   4.563   5.236   8.599 -0.9981 -1.2900  0.2647
   28CHL1  H26B 2067   4.607   5.155   8.763 -0.5909  1.2530  2.6056
   28CHL1  H26C 2068   4.497   5.077   8.648 -0.4570  0.5715 -1.3893
   28CHL1   C27 2069   4.296   5.283   8.661  0.0136 -0.5640 -0.0978
   28CHL1  H27A 2070   4.331   5.356   8.584 -1.2440 -0.4817 -0.6114
   28CHL1  H27B 2071   4.277   5.201   8.588 -0.8001  0.8015 -1.4744
   28CHL1  H27C 2072   4.201   5.304   8.714 -0.6433 -1.5359 -0.8688
   29CHL1    C3 2073   5.974   3.204   6.619  0.1875 -0.1748  0.5834
   29CHL1    H3 2074   6.076   3.171   6.645  0.1717 -1.4402 -0.9024
   29CHL1    O3 2075   5.961   3.216   6.481  0.0653 -0.4458  0.3355
   29CHL1   H3' 2076   5.866   3.232   6.473  0.0949  0.1724  1.1723
   29CHL1    C4 2077   5.863   3.116   6.666 -0.0115 -0.3330 -0.6659
   29CHL1   H4A 2078   5.758   3.150   6.647 -0.6437 -1.4130  0.7465
   29CHL1   H4B 2079   5.864   3.013   6.625  0.3536 -0.2564 -0.8450
   29CHL1    C5 2080   5.864   3.100   6.816 -0.0601 -0.1579 -0.3991
   29CHL1    C6 2081   5.880   2.979   6.866  0.2902 -0.1748 -0.8136
   29CHL1    H6 2082   5.872   2.889   6.804 -1.4539 -0.6518  0.0831
   29CHL1    C7 2083   5.896   2.955   7.015 -0.0013  0.2144 -0.0131
   29CHL1   H7A 2084   5.819   2.879   7.042 -0.3090  1.5902  3.1479
   29CHL1   H7B 2085   5.996   2.906   7.022 -1.0216 -2.4800 -2.9519
   29CHL1    C8 2086   5.850   3.074   7.099  0.4102 -0.1178  0.6153
   29CHL1    H8 2087   5.741   3.087   7.086  0.5759 -0.2668 -1.0018
   29CHL1   C14 2088   5.881   3.061   7.242  0.1197  0.3498 -0.5865
   29CHL1   H14 2089   5.992   3.061   7.246  0.0638 -0.2057  4.2124
   29CHL1   C15 2090   5.841   2.926   7.315  0.0038 -1.0337  0.4323
   29CHL1  H15A 2091   5.737   2.902   7.282 -0.4098  1.1231  0.1154
   29CHL1  H15B 2092   5.910   2.843   7.290  0.9476 -0.6089  1.5852
   29CHL1   C16 2093   5.843   2.964   7.466 -0.0731  0.4639  0.2606
   29CHL1  H16A 2094   5.740   2.953   7.506  0.0851 -0.1910  0.4860
   29CHL1  H16B 2095   5.916   2.902   7.522 -2.1332 -0.9088  1.5058
   29CHL1   C17 2096   5.879   3.117   7.471 -0.0361  0.1365 -0.5013
   29CHL1   H17 2097   5.990   3.121   7.471  0.0381 -1.0619 -2.6052
   29CHL1   C13 2098   5.835   3.172   7.331  0.1438  0.5359  0.1230
   29CHL1   C18 2099   5.682   3.182   7.321 -1.0436  0.5629 -1.0144
   29CHL1  H18A 2100   5.640   3.081   7.339  0.4653  0.3913  1.9000
   29CHL1  H18B 2101   5.647   3.244   7.406  1.6664  1.3879 -0.4401
   29CHL1  H18C 2102   5.645   3.217   7.223 -2.2957 -0.7172 -1.0127
   29CHL1   C12 2103   5.908   3.297   7.290  0.2546 -0.2941  0.2129
   29CHL1  H12A 2104   5.873   3.386   7.347 -1.8278  0.1989 -1.7915
   29CHL1  H12B 2105   6.019   3.288   7.299  0.0744 -0.4763  2.5749
   29CHL1   C11 2106   5.873   3.328   7.136  0.5389 -0.0934  0.0708
   29CHL1  H11A 2107   5.767   3.352   7.114  0.5286  1.1548  1.3897
   29CHL1  H11B 2108   5.937   3.415   7.111 -0.1759  0.1276 -1.0033
   29CHL1    C9 2109   5.902   3.209   7.041  1.0308  0.4136  0.1984
   29CHL1    H9 2110   6.012   3.195   7.049  0.7650 -1.5288  0.6098
   29CHL1   C10 2111   5.857   3.231   6.888 -0.8748  0.2155 -0.0631
   29CHL1   C19 2112   5.713   3.287   6.873 -1.1903 -0.1518  0.2147
   29CHL1  H19A 2113   5.711   3.392   6.908 -0.8320  0.1302 -0.5917
   29CHL1  H19B 2114   5.675   3.278   6.769 -2.5515 -0.5507  0.7367
   29CHL1  H19C 2115   5.642   3.231   6.936  0.2955  0.5959  2.6089
   29CHL1    C1 2116   5.958   3.337   6.832  0.9160 -0.7192  0.2934
   29CHL1   H1A 2117   5.934   3.432   6.885  1.6688 -0.9215  1.0209
   29CHL1   H1B 2118   6.061   3.311   6.866  1.1812  1.5488  1.3084
   29CHL1    C2 2119   5.958   3.347   6.676  0.2690 -0.9260 -0.4607
   29CHL1   H2A 2120   6.032   3.424   6.645 -1.5265  0.6849 -0.8445
   29CHL1   H2B 2121   5.862   3.394   6.646  0.4623  1.2988  2.1917
   29CHL1   C20 2122   5.835   3.195   7.594 -0.2190 -0.1363  0.3095
   29CHL1   H20 2123   5.725   3.212   7.584 -0.5684 -1.4456  1.7365
   29CHL1   C21 2124   5.899   3.341   7.597 -0.0089  0.1141 -0.0116
   29CHL1  H21A 2125   5.913   3.366   7.705 -0.9018  0.3112  0.0668
   29CHL1  H21B 2126   5.832   3.413   7.546  0.9756  0.4396 -0.8356
   29CHL1  H21C 2127   5.995   3.340   7.541  1.7967 -1.9244  2.9751
   29CHL1   C22 2128   5.845   3.122   7.733 -0.1861  0.1556  0.0670
   29CHL1  H22A 2129   5.790   3.185   7.806  0.5432 -1.2000  1.8275
   29CHL1  H22B 2130   5.786   3.029   7.715 -1.2762  0.7672  0.4267
   29CHL1   C23 2131   5.988   3.085   7.777 -0.6887  0.1805  0.4817
   29CHL1  H23A 2132   6.027   3.043   7.682  0.4532  2.0574  0.0972
   29CHL1  H23B 2133   6.048   3.175   7.802 -0.5122  0.3009 -0.3476
   29CHL1   C24 2134   6.011   2.982   7.892 -1.3879  0.2210  0.1233
   29CHL1  H24A 2135   5.954   3.009   7.983 -2.0479 -0.6639 -0.0214
   29CHL1  H24B 2136   5.973   2.883   7.858 -1.3059  0.2223  0.0276
   29CHL1   C25 2137   6.156   2.980   7.927  0.6831 -0.0656  0.0624
   29CHL1   H25 2138   6.196   3.080   7.954  0.0799  0.0160  0.6771
   29CHL1   C26 2139   6.175   2.892   8.057 -0.2146  0.2652  0.3322
   29CHL1  H26A 2140   6.281   2.866   8.072  1.3585  3.5435 -3.9234
   29CHL1  H26B 2141   6.148   2.944   8.151 -0.8022 -1.8535  1.3614
   29CHL1  H26C 2142   6.108   2.803   8.060 -0.9296  0.6908 -1.8453
   29CHL1   C27 2143   6.254   2.925   7.810 -0.0159 -0.6853 -0.1902
   29CHL1  H27A 2144   6.359   2.915   7.843 -0.5557 -0.6779  1.5665
   29CHL1  H27B 2145   6.210   2.827   7.781  0.3744 -0.9125 -0.0142
   29CHL1  H27C 2146   6.239   2.992   7.723  1.6956  1.9688  1.4993
   30CHL1    C3 2147   3.980   1.385   7.194  0.0570  0.4285 -0.4000
   30CHL1    H3 2148   4.052   1.467   7.170  2.2496 -2.4100 -4.1024
   30CHL1    O3 2149   3.897   1.380   7.086 -0.1570  0.3212  0.6244
   30CHL1   H3' 2150   3.865   1.470   7.081 -0.1679  0.2745 -0.3913
   30CHL1    C4 2151   4.046   1.251   7.196 -0.4846  0.3696  0.2196
   30CHL1   H4A 2152   3.968   1.172   7.192 -0.9786  0.8351  0.5218
   30CHL1   H4B 2153   4.097   1.247   7.098 -2.0061  1.9221 -0.6453
   30CHL1    C5 2154   4.144   1.254   7.313  0.0287 -0.6365  1.0774
   30CHL1    C6 2155   4.280   1.232   7.299 -0.8100 -0.6752  0.6733
   30CHL1    H6 2156   4.321   1.218   7.198 -1.2610 -1.5514  0.6016
   30CHL1    C7 2157   4.380   1.228   7.412  0.4695 -0.4560 -0.1116
   30CHL1   H7A 2158   4.453   1.147   7.392  0.5523 -0.3426 -0.2595
   30CHL1   H7B 2159   4.436   1.323   7.420  0.2143 -0.3853  0.9274
   30CHL1    C8 2160   4.302   1.197   7.551  0.4431 -0.1876  0.3679
   30CHL1    H8 2161   4.267   1.092   7.547  3.7270 -1.2954 -3.2715
   30CHL1   C14 2162   4.399   1.223   7.662 -0.0227  0.3515 -0.6438
   30CHL1   H14 2163   4.427   1.330   7.657  0.5010  0.1673 -1.8258
   30CHL1   C15 2164   4.529   1.156   7.659  0.3090 -0.4114  0.1161
   30CHL1  H15A 2165   4.520   1.049   7.631 -0.4042 -0.8992  2.1263
   30CHL1  H15B 2166   4.598   1.212   7.591 -0.1265  3.3137  2.5837
   30CHL1   C16 2167   4.591   1.170   7.801  0.0453  0.6332  0.0315
   30CHL1  H16A 2168   4.628   1.073   7.842 -1.6937  0.9533  2.4777
   30CHL1  H16B 2169   4.679   1.237   7.815 -0.7310  1.5069  0.7530
   30CHL1   C17 2170   4.471   1.221   7.889  0.1185  0.0464  0.1164
   30CHL1   H17 2171   4.484   1.332   7.888  0.0752  0.0720  1.4398
   30CHL1   C13 2172   4.346   1.202   7.803 -0.4949 -0.4036  0.2472
   30CHL1   C18 2173   4.306   1.057   7.819 -0.6509 -0.4965 -0.0446
   30CHL1  H18A 2174   4.269   1.039   7.922  0.9142 -0.3550  0.5589
   30CHL1  H18B 2175   4.236   1.023   7.739 -0.7333 -1.2049  0.3288
   30CHL1  H18C 2176   4.389   0.985   7.800  0.2893  0.9024 -1.3456
   30CHL1   C12 2177   4.234   1.301   7.822 -0.4148 -0.1701 -0.1406
   30CHL1  H12A 2178   4.182   1.275   7.917  1.4860  0.2201  1.0444
   30CHL1  H12B 2179   4.277   1.404   7.826 -2.0046  0.5169 -0.4709
   30CHL1   C11 2180   4.127   1.278   7.715 -0.1642 -0.4355 -0.6668
   30CHL1  H11A 2181   4.074   1.181   7.723  0.5230 -0.8073 -0.5084
   30CHL1  H11B 2182   4.052   1.358   7.730 -0.4676 -1.2212  2.3896
   30CHL1    C9 2183   4.187   1.290   7.568  0.0933  0.6114  0.0055
   30CHL1    H9 2184   4.238   1.389   7.562 -1.2900  1.2753 -1.1044
   30CHL1   C10 2185   4.089   1.279   7.448  0.1822 -0.0191  0.0370
   30CHL1   C19 2186   3.988   1.161   7.475 -0.5581 -0.0778 -0.7557
   30CHL1  H19A 2187   4.048   1.068   7.476 -1.4936 -0.6825  0.0567
   30CHL1  H19B 2188   3.941   1.169   7.576  2.2193 -1.4733  0.7126
   30CHL1  H19C 2189   3.913   1.151   7.394 -1.6419  3.2699 -0.2688
   30CHL1    C1 2190   4.012   1.411   7.438 -0.1191  0.0665  0.1394
   30CHL1   H1A 2191   3.952   1.431   7.530 -0.7972 -2.6887  0.3394
   30CHL1   H1B 2192   4.094   1.484   7.422  1.4510 -1.5075  0.7865
   30CHL1    C2 2193   3.913   1.419   7.323 -0.2641 -0.0005 -0.2849
   30CHL1   H2A 2194   3.867   1.519   7.310  0.6106  0.5044  0.5578
   30CHL1   H2B 2195   3.833   1.344   7.342 -1.2765  1.5623  1.7566
   30CHL1   C20 2196   4.472   1.173   8.039 -0.1507  0.7730 -0.0513
   30CHL1   H20 2197   4.454   1.063   8.043  0.4310  0.6203 -1.4109
   30CHL1   C21 2198   4.357   1.246   8.116  0.3278  0.0655  0.1711
   30CHL1  H21A 2199   4.257   1.206   8.086 -0.8226  1.8765  1.4437
   30CHL1  H21B 2200   4.360   1.353   8.086 -0.0602 -0.4682 -1.8592
   30CHL1  H21C 2201   4.367   1.232   8.226  1.4554  0.5787  0.1331
   30CHL1   C22 2202   4.602   1.219   8.113 -0.3432  0.8359 -0.4548
   30CHL1  H22A 2203   4.693   1.209   8.050  0.2539  2.1215  0.1840
   30CHL1  H22B 2204   4.586   1.322   8.150 -2.0272 -0.4321  2.5422
   30CHL1   C23 2205   4.623   1.134   8.239  1.0731  0.1841 -0.2174
   30CHL1  H23A 2206   4.547   1.158   8.317  0.6846  1.0805 -0.8624
   30CHL1  H23B 2207   4.602   1.026   8.226  1.6564  0.0575 -0.0920
   30CHL1   C24 2208   4.769   1.138   8.294 -0.2814  0.0714  0.5891
   30CHL1  H24A 2209   4.844   1.104   8.219 -1.7292 -3.1756  0.5438
   30CHL1  H24B 2210   4.796   1.245   8.307 -1.3990  0.2203  1.8207
   30CHL1   C25 2211   4.776   1.069   8.435 -0.3860 -0.0065  0.2071
   30CHL1   H25 2212   4.713   0.979   8.416 -0.3927  0.4318 -1.9999
   30CHL1   C26 2213   4.918   1.016   8.473  0.7975  0.3768 -0.5205
   30CHL1  H26A 2214   4.940   0.939   8.397  1.0282  0.2433 -0.3196
   30CHL1  H26B 2215   4.982   1.106   8.466  0.7579  0.4102 -0.4523
   30CHL1  H26C 2216   4.926   0.959   8.568  1.9342 -2.5413 -2.2979
   30CHL1   C27 2217   4.714   1.148   8.550  0.3205 -0.6619  0.3142
   30CHL1  H27A 2218   4.781   1.232   8.580  0.8963 -1.8514  2.4480
   30CHL1  H27B 2219   4.615   1.189   8.522  1.8324  2.3769 -0.8029
   30CHL1  H27C 2220   4.697   1.098   8.648 -1.6882 -4.2639 -1.7452
   31CHL1    C3 2221   3.629   3.203   6.645 -0.5260  0.2726  0.0159
   31CHL1    H3 2222   3.725   3.149   6.649 -0.9770 -0.3880  2.5320
   31CHL1    O3 2223   3.570   3.204   6.516  0.3731 -0.0626 -0.6663
   31CHL1   H3' 2224   3.544   3.296   6.508 -0.2029 -0.1687 -0.0912
   31CHL1    C4 2225   3.523   3.137   6.741 -0.0607  0.3095  0.0213
   31CHL1   H4A 2226   3.431   3.198   6.726  0.2098  0.8134  0.3915
   31CHL1   H4B 2227   3.506   3.033   6.706  2.0181  0.7256 -2.3806
   31CHL1    C5 2228   3.564   3.127   6.887  0.0611  0.1783  0.0429
   31CHL1    C6 2229   3.559   3.012   6.960 -0.3611 -0.3980 -0.0803
   31CHL1    H6 2230   3.526   2.921   6.909  0.8512 -0.5808 -0.5683
   31CHL1    C7 2231   3.595   3.003   7.104  0.3339  0.2002  0.3833
   31CHL1   H7A 2232   3.512   2.955   7.160  1.0641 -0.8651  0.5615
   31CHL1   H7B 2233   3.689   2.946   7.121 -0.0140 -0.6066 -0.3663
   31CHL1    C8 2234   3.621   3.135   7.177  0.0854  0.6659 -0.2543
   31CHL1    H8 2235   3.523   3.186   7.192  0.9315  2.9565 -2.1402
   31CHL1   C14 2236   3.700   3.113   7.308  0.1681  0.0902  0.4032
   31CHL1   H14 2237   3.793   3.071   7.264 -0.4670 -0.4366 -0.4375
   31CHL1   C15 2238   3.642   3.018   7.406 -0.3062  0.0966 -0.4036
   31CHL1  H15A 2239   3.533   3.037   7.417 -0.3696 -0.6243  0.2029
   31CHL1  H15B 2240   3.642   2.910   7.383  0.9028  0.1174 -0.5092
   31CHL1   C16 2241   3.719   3.055   7.528 -0.0617 -0.5187 -0.4721
   31CHL1  H16A 2242   3.641   3.082   7.603  0.3016  0.4232 -0.4198
   31CHL1  H16B 2243   3.783   2.975   7.569 -0.1693 -0.0287  0.6693
   31CHL1   C17 2244   3.804   3.185   7.503  0.5329  0.1891  0.3902
   31CHL1   H17 2245   3.903   3.144   7.473  0.4205 -0.0224  0.3047
   31CHL1   C13 2246   3.731   3.244   7.379  0.0808 -0.1978 -0.1503
   31CHL1   C18 2247   3.598   3.313   7.428 -0.6758 -0.6726 -0.0612
   31CHL1  H18A 2248   3.519   3.335   7.353 -1.4051 -0.9659  0.6207
   31CHL1  H18B 2249   3.532   3.245   7.486 -0.6649  1.0884  2.0685
   31CHL1  H18C 2250   3.615   3.400   7.495 -0.6286  2.4566 -3.9286
   31CHL1   C12 2251   3.813   3.339   7.290  0.3012 -0.0141  0.1260
   31CHL1  H12A 2252   3.843   3.432   7.342 -0.8044  1.5813 -2.0386
   31CHL1  H12B 2253   3.906   3.285   7.261  1.8198  1.0408  2.8161
   31CHL1   C11 2254   3.733   3.369   7.159 -0.6680  0.1081 -0.4073
   31CHL1  H11A 2255   3.647   3.427   7.199 -0.4139  0.1524  0.0718
   31CHL1  H11B 2256   3.793   3.448   7.110  0.9842 -1.4460 -0.9463
   31CHL1    C9 2257   3.685   3.239   7.082  0.0484  0.1441  0.6915
   31CHL1    H9 2258   3.782   3.194   7.049 -1.0938 -1.7603 -0.1310
   31CHL1   C10 2259   3.614   3.264   6.949  1.1108  0.5012  0.4475
   31CHL1   C19 2260   3.488   3.362   6.985  0.2073  0.1720 -0.8871
   31CHL1  H19A 2261   3.513   3.457   7.038 -1.6209  0.3627 -0.3239
   31CHL1  H19B 2262   3.434   3.383   6.891  2.4454  2.4642 -1.7358
   31CHL1  H19C 2263   3.422   3.312   7.059 -0.0161 -0.8876 -1.7915
   31CHL1    C1 2264   3.709   3.333   6.849  0.2581  0.0504 -0.4737
   31CHL1   H1A 2265   3.741   3.433   6.886 -0.6023  0.8479 -1.8346
   31CHL1   H1B 2266   3.800   3.270   6.857 -0.2240 -0.5118  0.5831
   31CHL1    C2 2267   3.658   3.341   6.698  0.0811 -0.2780 -0.6885
   31CHL1   H2A 2268   3.739   3.393   6.642  0.1589 -0.0893 -0.4000
   31CHL1   H2B 2269   3.574   3.415   6.696  2.2511  2.2635 -0.2117
   31CHL1   C20 2270   3.803   3.267   7.637 -0.1678 -0.8610 -0.3359
   31CHL1   H20 2271   3.701   3.281   7.676  0.1679 -2.4797  1.2000
   31CHL1   C21 2272   3.873   3.405   7.609 -0.0980 -0.1744 -0.4853
   31CHL1  H21A 2273   3.966   3.397   7.549 -0.7806  0.7048 -1.6849
   31CHL1  H21B 2274   3.900   3.459   7.702  0.2629  0.2559 -0.8362
   31CHL1  H21C 2275   3.801   3.474   7.561 -0.4744 -0.6282 -0.5783
   31CHL1   C22 2276   3.882   3.185   7.746 -0.0131 -0.5787 -0.0446
   31CHL1  H22A 2277   3.877   3.075   7.730 -0.5582 -0.5326 -0.1865
   31CHL1  H22B 2278   3.990   3.203   7.727 -0.0580  0.1186  0.3566
   31CHL1   C23 2279   3.863   3.213   7.897 -0.4283 -0.1924  0.1596
   31CHL1  H23A 2280   3.883   3.317   7.930  2.3723 -0.4439 -0.6124
   31CHL1  H23B 2281   3.760   3.178   7.919  0.3377 -3.4469 -1.0396
   31CHL1   C24 2282   3.939   3.126   7.999 -0.5029  0.9238  0.3173
   31CHL1  H24A 2283   3.878   3.141   8.091 -1.3136  0.6273 -0.1701
   31CHL1  H24B 2284   3.939   3.020   7.968 -0.7841  1.0979 -0.2791
   31CHL1   C25 2285   4.082   3.180   8.021 -0.3004  0.8372  0.0731
   31CHL1   H25 2286   4.088   3.289   8.000 -1.8529  0.9979  0.3984
   31CHL1   C26 2287   4.126   3.156   8.166  0.5436 -0.0830  1.4159
   31CHL1  H26A 2288   4.229   3.194   8.179  0.8991 -1.1458  1.7635
   31CHL1  H26B 2289   4.054   3.214   8.228  0.4202  0.1129  1.0934
   31CHL1  H26C 2290   4.117   3.050   8.197  1.5152 -0.8192 -0.6878
   31CHL1   C27 2291   4.193   3.127   7.923  0.1953 -0.9271  0.1239
   31CHL1  H27A 2292   4.192   3.016   7.923  0.2670 -0.9386  1.4280
   31CHL1  H27B 2293   4.293   3.167   7.949 -0.3039  2.5811 -2.9271
   31CHL1  H27C 2294   4.166   3.157   7.819 -0.9691 -0.5390  0.5216
   32CHL1    C3 2295   4.768   1.577   7.055 -0.4380  0.2850 -0.2597
   32CHL1    H3 2296   4.780   1.687   7.050  1.4432  0.0851 -0.5062
   32CHL1    O3 2297   4.736   1.533   6.925 -0.1034  0.1487  0.1237
   32CHL1   H3' 2298   4.726   1.437   6.925  2.0429 -0.1053 -0.9698
   32CHL1    C4 2299   4.907   1.516   7.095 -0.2903  0.0051 -0.1406
   32CHL1   H4A 2300   4.900   1.407   7.076  2.3549 -0.1765 -0.3449
   32CHL1   H4B 2301   4.989   1.556   7.031  1.2003  1.5548  2.6267
   32CHL1    C5 2302   4.941   1.534   7.240 -0.2116  0.0292  0.0131
   32CHL1    C6 2303   5.053   1.596   7.280  0.4624  0.3059  0.6140
   32CHL1    H6 2304   5.118   1.622   7.195 -1.2131  0.0780 -0.7765
   32CHL1    C7 2305   5.104   1.597   7.423 -0.0571  0.2588  0.3276
   32CHL1   H7A 2306   5.212   1.574   7.415 -0.6672 -2.0710 -2.1368
   32CHL1   H7B 2307   5.111   1.705   7.449  2.8915  0.0823  0.4064
   32CHL1    C8 2308   5.017   1.519   7.531 -0.2783 -0.2629  0.3664
   32CHL1    H8 2309   5.049   1.414   7.514 -0.9797 -0.1310 -1.9135
   32CHL1   C14 2310   5.048   1.558   7.671  0.3479 -1.0101 -0.3970
   32CHL1   H14 2311   5.017   1.664   7.680  0.6197 -0.8418 -1.3697
   32CHL1   C15 2312   5.197   1.558   7.713  0.1612  0.2414  0.1172
   32CHL1  H15A 2313   5.269   1.492   7.659  2.3119  1.1968  1.7226
   32CHL1  H15B 2314   5.234   1.661   7.696  2.5764 -0.4948  0.5730
   32CHL1   C16 2315   5.189   1.535   7.860  0.5863  0.3955  1.0974
   32CHL1  H16A 2316   5.237   1.438   7.885  0.2757 -0.3125 -0.9422
   32CHL1  H16B 2317   5.243   1.617   7.912 -0.0661 -0.3510  3.0090
   32CHL1   C17 2318   5.035   1.534   7.895  0.0920  0.1204 -0.5184
   32CHL1   H17 2319   5.013   1.642   7.913 -0.5092 -0.4216  2.3087
   32CHL1   C13 2320   4.965   1.484   7.768  0.0028 -0.2047  0.2839
   32CHL1   C18 2321   4.975   1.337   7.755 -0.6429  0.4747 -0.3676
   32CHL1  H18A 2322   5.082   1.307   7.758 -0.8421 -0.3183 -0.8184
   32CHL1  H18B 2323   4.915   1.275   7.825 -1.8204  1.4892 -0.4789
   32CHL1  H18C 2324   4.949   1.309   7.651  1.2275 -0.3435 -0.6487
   32CHL1   C12 2325   4.811   1.517   7.746 -0.5701  0.0185 -0.5882
   32CHL1  H12A 2326   4.743   1.470   7.820  0.2777  1.6748  1.2952
   32CHL1  H12B 2327   4.796   1.626   7.761  0.4176  0.2517 -1.2483
   32CHL1   C11 2328   4.776   1.485   7.601  0.3945  0.2943 -0.0637
   32CHL1  H11A 2329   4.765   1.376   7.578  0.1134  0.8055 -2.4471
   32CHL1  H11B 2330   4.672   1.515   7.575  0.6484  0.3124 -1.0904
   32CHL1    C9 2331   4.868   1.538   7.493 -0.3950  0.8540  0.1085
   32CHL1    H9 2332   4.859   1.649   7.487 -1.5292  0.7487 -0.2814
   32CHL1   C10 2333   4.833   1.492   7.350 -0.3429 -0.5713  0.0648
   32CHL1   C19 2334   4.829   1.339   7.335  0.0321 -0.5267 -0.8801
   32CHL1  H19A 2335   4.752   1.288   7.397 -0.2131 -1.9804 -2.3395
   32CHL1  H19B 2336   4.821   1.299   7.232  0.5091 -1.2074 -0.6578
   32CHL1  H19C 2337   4.927   1.303   7.373  0.8550  0.1103 -2.3938
   32CHL1    C1 2338   4.697   1.543   7.302  0.4358 -0.4442  0.1865
   32CHL1   H1A 2339   4.626   1.483   7.363 -0.8398  1.4576  0.6582
   32CHL1   H1B 2340   4.690   1.650   7.332 -0.2467 -0.6204  0.6979
   32CHL1    C2 2341   4.658   1.529   7.151  0.5044  0.1672  0.1793
   32CHL1   H2A 2342   4.564   1.583   7.128 -0.5945 -1.2001  1.3466
   32CHL1   H2B 2343   4.639   1.422   7.128 -0.9613  0.0765  1.6856
   32CHL1   C20 2344   5.020   1.467   8.034 -0.4318 -0.0362  0.0245
   32CHL1   H20 2345   5.061   1.363   8.035  0.7397  0.4219  0.6856
   32CHL1   C21 2346   4.873   1.446   8.074 -0.0677  0.1962  0.1843
   32CHL1  H21A 2347   4.866   1.398   8.174  1.1839 -0.7234 -0.1507
   32CHL1  H21B 2348   4.822   1.385   7.997  1.3262  1.7882 -2.0728
   32CHL1  H21C 2349   4.805   1.533   8.071 -0.5029 -0.1593 -0.4874
   32CHL1   C22 2350   5.087   1.549   8.153 -0.1138  0.0256 -0.4150
   32CHL1  H22A 2351   5.194   1.521   8.150 -0.2133 -0.3712 -0.2831
   32CHL1  H22B 2352   5.087   1.657   8.127 -1.0193 -0.2139 -1.4668
   32CHL1   C23 2353   5.032   1.520   8.295 -0.1242  0.1727  0.0884
   32CHL1  H23A 2354   4.942   1.583   8.304  0.6893  1.5427 -1.1406
   32CHL1  H23B 2355   5.019   1.410   8.302 -0.4431  0.1641 -0.6941
   32CHL1   C24 2356   5.141   1.559   8.395  0.5027  0.1574  0.4444
   32CHL1  H24A 2357   5.239   1.508   8.382  0.9457  1.5376 -2.1123
   32CHL1  H24B 2358   5.171   1.663   8.367 -0.2701 -0.3392 -2.4336
   32CHL1   C25 2359   5.090   1.549   8.539 -0.3098  0.1976 -0.2895
   32CHL1   H25 2360   4.992   1.599   8.553 -0.2764 -0.3973  2.3288
   32CHL1   C26 2361   5.083   1.406   8.586 -0.2282 -0.0032 -0.1604
   32CHL1  H26A 2362   5.186   1.365   8.581 -0.0892  0.4003 -0.5922
   32CHL1  H26B 2363   5.058   1.397   8.694 -0.2448 -0.9265 -0.2385
   32CHL1  H26C 2364   5.013   1.341   8.528  0.0005 -0.6969  0.3372
   32CHL1   C27 2365   5.190   1.633   8.626  0.8258  0.1851  0.8134
   32CHL1  H27A 2366   5.178   1.739   8.594  0.6387 -0.9231 -3.1063
   32CHL1  H27B 2367   5.169   1.607   8.731  2.3856 -0.8352  0.8797
   32CHL1  H27C 2368   5.294   1.596   8.614  0.1974 -1.4290  0.2400
   33CHL1    C3 2369   5.134   2.127   6.889 -0.1868 -0.1226  0.3251
   33CHL1    H3 2370   5.031   2.158   6.918 -0.7547 -1.7171  0.0889
   33CHL1    O3 2371   5.153   2.094   6.751 -0.0294  0.0852 -0.2223
   33CHL1   H3' 2372   5.079   2.042   6.719 -0.9519  2.4914 -2.1050
   33CHL1    C4 2373   5.242   2.236   6.924 -0.2844  0.1807  0.7430
   33CHL1   H4A 2374   5.341   2.189   6.904 -0.5902 -0.8243  1.5418
   33CHL1   H4B 2375   5.229   2.325   6.859  0.2380 -0.5855 -0.4182
   33CHL1    C5 2376   5.235   2.260   7.075  0.8784 -0.1373 -0.0388
   33CHL1    C6 2377   5.204   2.384   7.118  0.0852 -0.7428  0.4259
   33CHL1    H6 2378   5.200   2.464   7.043  3.8114 -0.1577  0.7966
   33CHL1    C7 2379   5.200   2.419   7.266 -0.1645 -0.4096  0.4007
   33CHL1   H7A 2380   5.259   2.510   7.290 -1.1681 -0.2219  2.2430
   33CHL1   H7B 2381   5.096   2.430   7.303  0.2387 -1.4835  1.9337
   33CHL1    C8 2382   5.266   2.312   7.361  0.3612  0.0165 -0.1009
   33CHL1    H8 2383   5.375   2.315   7.343  0.0300 -0.1886 -2.2429
   33CHL1   C14 2384   5.232   2.342   7.511  0.7801 -0.0998 -0.5010
   33CHL1   H14 2385   5.122   2.352   7.516  0.4696 -2.3480 -1.8357
   33CHL1   C15 2386   5.288   2.469   7.569 -0.5582 -1.0435  0.0104
   33CHL1  H15A 2387   5.394   2.497   7.552 -0.9259 -0.2770 -1.0389
   33CHL1  H15B 2388   5.231   2.561   7.545 -0.3380  0.0781  3.4536
   33CHL1   C16 2389   5.277   2.437   7.724  0.2105  0.0494  1.1703
   33CHL1  H16A 2390   5.368   2.460   7.783  1.7629 -0.3248 -1.0104
   33CHL1  H16B 2391   5.192   2.499   7.760 -1.0424  0.2183 -1.8828
   33CHL1   C17 2392   5.243   2.290   7.744 -0.2480 -0.1372  0.3272
   33CHL1   H17 2393   5.135   2.265   7.753 -0.6256  0.6785 -1.6569
   33CHL1   C13 2394   5.279   2.235   7.611 -0.3461 -0.0169  0.0616
   33CHL1   C18 2395   5.436   2.228   7.601  0.1601 -0.3313  0.7848
   33CHL1  H18A 2396   5.489   2.319   7.638 -1.1534  1.8614 -2.4993
   33CHL1  H18B 2397   5.481   2.140   7.652 -0.5153 -2.5385 -2.3519
   33CHL1  H18C 2398   5.467   2.221   7.495  1.4898 -2.1247  1.2736
   33CHL1   C12 2399   5.215   2.105   7.567  0.8501  0.2359 -0.1106
   33CHL1  H12A 2400   5.241   2.022   7.636  2.2536  0.9016  0.1709
   33CHL1  H12B 2401   5.104   2.107   7.571  0.7322 -1.5215 -1.6989
   33CHL1   C11 2402   5.242   2.065   7.423  0.2235  0.1486  0.0292
   33CHL1  H11A 2403   5.350   2.041   7.423  0.3513  0.6988  1.0986
   33CHL1  H11B 2404   5.185   1.970   7.407  0.6751  0.2227 -2.1256
   33CHL1    C9 2405   5.207   2.176   7.318 -0.7822  0.0449 -0.2129
   33CHL1    H9 2406   5.097   2.189   7.313 -0.9814 -0.2846  2.9471
   33CHL1   C10 2407   5.240   2.143   7.169  0.1619 -0.3191  0.6240
   33CHL1   C19 2408   5.391   2.095   7.155  0.6802  0.3947  0.1088
   33CHL1  H19A 2409   5.407   2.001   7.211  0.8311 -2.6104 -4.7003
   33CHL1  H19B 2410   5.422   2.064   7.052 -1.9953 -1.3004 -0.2206
   33CHL1  H19C 2411   5.464   2.164   7.201 -0.6915  2.9689 -1.4200
   33CHL1    C1 2412   5.154   2.024   7.116  0.6536  0.2105  0.1642
   33CHL1   H1A 2413   5.173   1.928   7.168  0.4403 -0.4623 -0.9868
   33CHL1   H1B 2414   5.052   2.034   7.157  0.8521 -1.3817  1.0949
   33CHL1    C2 2415   5.160   2.002   6.967  0.9102  0.3468  0.6189
   33CHL1   H2A 2416   5.090   1.922   6.936  0.3338  0.6625  1.0990
   33CHL1   H2B 2417   5.256   1.954   6.938 -0.2431 -1.1377 -0.8320
   33CHL1   C20 2418   5.313   2.225   7.871  0.6719  0.2673  0.2198
   33CHL1   H20 2419   5.423   2.237   7.861  0.8769 -0.9542  0.9397
   33CHL1   C21 2420   5.299   2.076   7.889  0.7963 -0.3401 -0.0242
   33CHL1  H21A 2421   5.190   2.057   7.882  0.3098  1.7840  1.1472
   33CHL1  H21B 2422   5.332   2.043   7.990 -2.0517 -0.1636  1.0203
   33CHL1  H21C 2423   5.344   2.005   7.817  0.3016 -0.1537 -0.5163
   33CHL1   C22 2424   5.288   2.310   8.002  0.7036  0.1537 -0.1561
   33CHL1  H22A 2425   5.251   2.410   7.972  1.7124  0.1613 -1.4445
   33CHL1  H22B 2426   5.206   2.265   8.061  1.9029 -0.0622  1.3673
   33CHL1   C23 2427   5.409   2.335   8.094  0.1103  0.1259 -0.0227
   33CHL1  H23A 2428   5.425   2.240   8.148  0.5319 -1.0210 -2.1154
   33CHL1  H23B 2429   5.507   2.356   8.047  0.3228  0.2436  0.4653
   33CHL1   C24 2430   5.392   2.448   8.190  0.0691 -0.4363 -1.0466
   33CHL1  H24A 2431   5.398   2.544   8.134 -0.6690  0.7552  0.8317
   33CHL1  H24B 2432   5.285   2.450   8.222  0.6095  2.8790  0.8561
   33CHL1   C25 2433   5.489   2.444   8.310  0.1596 -0.0424 -0.0697
   33CHL1   H25 2434   5.458   2.353   8.367 -1.0382  0.7870  0.6268
   33CHL1   C26 2435   5.640   2.424   8.292 -0.5087  0.3832  0.1655
   33CHL1  H26A 2436   5.697   2.513   8.258 -0.1578  0.0675 -0.0804
   33CHL1  H26B 2437   5.679   2.399   8.392 -1.3362 -1.7617 -0.0328
   33CHL1  H26C 2438   5.667   2.341   8.223  1.5254 -1.0259  2.6118
   33CHL1   C27 2439   5.469   2.570   8.394  0.0297 -0.1367 -0.8319
   33CHL1  H27A 2440   5.525   2.579   8.489 -0.8648  1.2608 -0.4181
   33CHL1  H27B 2441   5.487   2.657   8.328 -0.3114 -0.1767 -0.9804
   33CHL1  H27C 2442   5.360   2.573   8.415  0.2349  1.4859  0.0811
   34CHL1    C3 2443   6.391   0.706   7.057 -0.1793 -0.5051  0.0821
   34CHL1    H3 2444   6.399   0.816   7.071 -0.7470 -0.3934 -0.4279
   34CHL1    O3 2445   6.358   0.663   6.931  0.1419  0.2392  0.2326
   34CHL1   H3' 2446   6.360   0.567   6.931 -0.4968  0.2191  0.6407
   34CHL1    C4 2447   6.529   0.654   7.106 -0.5415 -0.5878 -0.6210
   34CHL1   H4A 2448   6.537   0.543   7.104 -0.6489 -0.5870 -2.7326
   34CHL1   H4B 2449   6.597   0.703   7.034  2.1189  0.0161  2.2253
   34CHL1    C5 2450   6.570   0.692   7.250 -0.2131 -0.1049  0.5123
   34CHL1    C6 2451   6.689   0.751   7.283  1.2575  0.6915  0.9039
   34CHL1    H6 2452   6.766   0.762   7.205 -0.3823  0.6953 -0.7576
   34CHL1    C7 2453   6.734   0.797   7.416 -0.0553 -0.2964 -0.0595
   34CHL1   H7A 2454   6.837   0.758   7.426  0.3102  0.5002 -0.6661
   34CHL1   H7B 2455   6.733   0.906   7.439  1.0460 -0.2390 -0.2946
   34CHL1    C8 2456   6.651   0.730   7.522 -0.2067 -0.1461  0.5172
   34CHL1    H8 2457   6.681   0.623   7.526  0.8291  0.1593  1.0728
   34CHL1   C14 2458   6.683   0.791   7.656 -0.3510  0.5804 -0.8539
   34CHL1   H14 2459   6.655   0.898   7.651 -1.9671  0.3700  2.2477
   34CHL1   C15 2460   6.828   0.784   7.696  0.4001  0.2426 -0.6891
   34CHL1  H15A 2461   6.864   0.679   7.695 -2.9711 -0.9562 -0.6220
   34CHL1  H15B 2462   6.892   0.854   7.638 -0.5453  2.3105  0.7063
   34CHL1   C16 2463   6.827   0.829   7.848 -0.2601 -0.0241 -0.1874
   34CHL1  H16A 2464   6.891   0.751   7.894  0.1480  0.1561 -0.4493
   34CHL1  H16B 2465   6.855   0.934   7.871 -0.9905 -0.3890  2.4293
   34CHL1   C17 2466   6.673   0.821   7.889  0.2946 -0.6868 -0.0906
   34CHL1   H17 2467   6.632   0.922   7.867 -1.9302 -1.8594 -1.4453
   34CHL1   C13 2468   6.597   0.743   7.778 -0.1367  0.0430  0.6158
   34CHL1   C18 2469   6.626   0.592   7.816  0.7151 -0.3971  0.3434
   34CHL1  H18A 2470   6.611   0.521   7.732  3.7861  0.0233 -0.6362
   34CHL1  H18B 2471   6.733   0.582   7.845  0.7073  1.3672  1.0910
   34CHL1  H18C 2472   6.563   0.560   7.902 -0.8662 -3.5337 -1.8915
   34CHL1   C12 2473   6.447   0.752   7.749  0.1739  0.1098  0.0929
   34CHL1  H12A 2474   6.387   0.715   7.835  1.0744  0.7281  0.9951
   34CHL1  H12B 2475   6.417   0.859   7.745 -0.5417 -0.1381 -1.3586
   34CHL1   C11 2476   6.414   0.688   7.605  0.2288 -0.8714 -0.1779
   34CHL1  H11A 2477   6.410   0.580   7.631  0.5970 -0.5134  1.4187
   34CHL1  H11B 2478   6.312   0.727   7.581  0.6448  1.1673  1.3019
   34CHL1    C9 2479   6.503   0.730   7.487  0.0738  0.5376 -0.5835
   34CHL1    H9 2480   6.483   0.839   7.482  1.4954  0.9578  1.9511
   34CHL1   C10 2481   6.462   0.665   7.355 -0.0078 -0.4349  0.2251
   34CHL1   C19 2482   6.450   0.510   7.378 -0.4205 -0.0788  0.1374
   34CHL1  H19A 2483   6.345   0.486   7.406 -1.4255 -0.8322 -3.8593
   34CHL1  H19B 2484   6.481   0.455   7.287 -0.1643 -2.0436  1.3945
   34CHL1  H19C 2485   6.516   0.469   7.457  0.4175  0.3782 -0.3178
   34CHL1    C1 2486   6.324   0.715   7.296  1.1452 -0.2638 -0.5691
   34CHL1   H1A 2487   6.244   0.694   7.369  1.2542  0.4752 -0.2361
   34CHL1   H1B 2488   6.330   0.826   7.287 -0.6846 -0.2886 -2.7488
   34CHL1    C2 2489   6.285   0.662   7.157 -0.4662 -0.3183  0.6898
   34CHL1   H2A 2490   6.184   0.706   7.142 -0.3797 -0.3452  0.0293
   34CHL1   H2B 2491   6.279   0.552   7.172  1.7052 -0.5539  0.0887
   34CHL1   C20 2492   6.646   0.800   8.041 -0.6289  0.2400  0.1304
   34CHL1   H20 2493   6.677   0.699   8.075 -2.6600 -0.2661  0.5714
   34CHL1   C21 2494   6.495   0.813   8.067  0.1956 -0.5048 -0.2282
   34CHL1  H21A 2495   6.441   0.718   8.045 -0.6874 -0.4800  1.6613
   34CHL1  H21B 2496   6.458   0.907   8.023  1.0177  0.7626  1.7325
   34CHL1  H21C 2497   6.471   0.821   8.175 -0.0423 -2.4457 -0.1185
   34CHL1   C22 2498   6.733   0.893   8.133  0.2758 -0.2080  0.0641
   34CHL1  H22A 2499   6.842   0.879   8.111  0.2230 -1.1103  0.3321
   34CHL1  H22B 2500   6.712   0.996   8.100 -1.1876 -0.2003  1.0102
   34CHL1   C23 2501   6.725   0.883   8.284 -0.1607  0.4838 -0.1426
   34CHL1  H23A 2502   6.622   0.907   8.321 -0.4892 -1.0614 -0.0469
   34CHL1  H23B 2503   6.731   0.776   8.312 -2.4190  0.9764  2.4876
   34CHL1   C24 2504   6.830   0.958   8.367  0.4217 -0.2073  0.2480
   34CHL1  H24A 2505   6.909   0.883   8.387 -1.1241 -1.7836  0.5445
   34CHL1  H24B 2506   6.869   1.051   8.321  2.1396 -0.2875  1.4923
   34CHL1   C25 2507   6.770   0.985   8.513 -0.0220  0.2055 -0.1364
   34CHL1   H25 2508   6.672   1.038   8.510 -0.7790 -1.2319 -1.0954
   34CHL1   C26 2509   6.742   0.854   8.583  1.0074  0.2905 -0.3335
   34CHL1  H26A 2510   6.712   0.861   8.689  0.7005 -1.0485 -0.3275
   34CHL1  H26B 2511   6.665   0.807   8.518 -2.9945  1.7795  3.1357
   34CHL1  H26C 2512   6.836   0.793   8.578  0.3177 -0.6600 -2.2726
   34CHL1   C27 2513   6.863   1.061   8.611 -0.1840 -0.5607  0.0586
   34CHL1  H27A 2514   6.953   1.000   8.630  0.8079  0.1252 -2.1779
   34CHL1  H27B 2515   6.881   1.161   8.565 -0.4421 -0.2827  0.5526
   34CHL1  H27C 2516   6.803   1.091   8.699 -0.1228  2.4212 -0.8551
   35CHL1    C3 2517   3.184   1.602   7.381  0.4709  0.2438 -0.0170
   35CHL1    H3 2518   3.211   1.500   7.415 -2.4957 -0.8909 -0.9559
   35CHL1    O3 2519   3.130   1.591   7.247  0.0604 -0.3509 -0.5547
   35CHL1   H3' 2520   3.038   1.566   7.263  0.2327  0.5554  2.0800
   35CHL1    C4 2521   3.072   1.655   7.475  0.5584 -0.3817 -0.2115
   35CHL1   H4A 2522   3.024   1.749   7.441 -0.8451 -1.8895 -2.6004
   35CHL1   H4B 2523   2.998   1.572   7.471 -0.6947  0.8323 -3.1830
   35CHL1    C5 2524   3.116   1.670   7.620  0.2654  0.0586  0.2802
   35CHL1    C6 2525   3.068   1.597   7.722 -0.3442 -0.5065  0.1259
   35CHL1    H6 2526   2.986   1.528   7.699 -0.2713 -0.8280  0.8038
   35CHL1    C7 2527   3.111   1.606   7.866 -0.9199 -0.9024 -0.4294
   35CHL1   H7A 2528   3.023   1.625   7.930  0.5252 -1.0920  1.6514
   35CHL1   H7B 2529   3.153   1.508   7.897 -1.8413 -1.3374 -0.5316
   35CHL1    C8 2530   3.207   1.727   7.890  0.1051 -0.2447  0.0669
   35CHL1    H8 2531   3.137   1.812   7.903  1.6850  0.9208  1.0842
   35CHL1   C14 2532   3.282   1.706   8.017 -0.3177  0.1375  0.2189
   35CHL1   H14 2533   3.351   1.620   8.002  2.0705  2.4210 -2.5656
   35CHL1   C15 2534   3.196   1.684   8.143 -0.1148 -0.4519  0.3289
   35CHL1  H15A 2535   3.119   1.765   8.151 -2.6208 -2.7602  0.3511
   35CHL1  H15B 2536   3.143   1.587   8.132 -2.5660  1.1456 -2.8570
   35CHL1   C16 2537   3.296   1.700   8.259  0.4285 -0.1180 -0.3795
   35CHL1  H16A 2538   3.255   1.772   8.334  0.0389  0.5476 -1.2293
   35CHL1  H16B 2539   3.302   1.601   8.310  1.3696  1.0938  1.9457
   35CHL1   C17 2540   3.427   1.747   8.195 -0.2244 -0.6789  0.2453
   35CHL1   H17 2541   3.485   1.655   8.176  0.2061 -0.5802  1.0789
   35CHL1   C13 2542   3.385   1.807   8.057  0.7925  0.5527  0.2164
   35CHL1   C18 2543   3.321   1.944   8.085 -0.2826 -0.6165  0.5226
   35CHL1  H18A 2544   3.399   2.018   8.112 -1.2775 -0.3977  2.9384
   35CHL1  H18B 2545   3.264   1.976   7.995  2.7348  2.3286 -0.4326
   35CHL1  H18C 2546   3.252   1.947   8.172  0.8695  1.9848  1.3830
   35CHL1   C12 2547   3.486   1.824   7.943  1.1683  0.5171 -0.3923
   35CHL1  H12A 2548   3.550   1.911   7.970  0.6854  0.8157 -0.2010
   35CHL1  H12B 2549   3.545   1.731   7.929  0.0007 -0.0443 -1.7214
   35CHL1   C11 2550   3.411   1.859   7.808 -0.1158 -0.0160 -0.1162
   35CHL1  H11A 2551   3.374   1.962   7.824  1.4367  0.2952  1.5679
   35CHL1  H11B 2552   3.495   1.856   7.736  0.9807 -1.6060  1.1893
   35CHL1    C9 2553   3.308   1.749   7.777 -0.9855 -0.1617  0.7925
   35CHL1    H9 2554   3.367   1.655   7.777  0.8015  0.9387  0.3214
   35CHL1   C10 2555   3.240   1.767   7.639 -0.3130  0.3806 -0.1501
   35CHL1   C19 2556   3.179   1.900   7.617 -0.5520 -0.1313 -0.1484
   35CHL1  H19A 2557   3.260   1.976   7.622 -1.1975  0.4636  1.5845
   35CHL1  H19B 2558   3.134   1.912   7.516 -2.2392 -1.5308  0.4165
   35CHL1  H19C 2559   3.102   1.919   7.695  0.5892 -2.2166  1.5210
   35CHL1    C1 2560   3.349   1.736   7.528  0.8864  0.1650 -0.0582
   35CHL1   H1A 2561   3.431   1.811   7.536  1.3708 -0.3684  0.0100
   35CHL1   H1B 2562   3.399   1.643   7.563  1.0662  0.8653  1.6000
   35CHL1    C2 2563   3.293   1.712   7.387  0.5937  0.1540 -0.4827
   35CHL1   H2A 2564   3.372   1.679   7.316  0.9019 -1.4401  0.5667
   35CHL1   H2B 2565   3.242   1.807   7.361  3.6051  2.0939  0.3178
   35CHL1   C20 2566   3.518   1.825   8.293 -0.0640  0.3188 -0.2960
   35CHL1   H20 2567   3.479   1.927   8.313 -0.8411 -0.0879  0.3139
   35CHL1   C21 2568   3.654   1.853   8.220 -0.4440  0.3839  0.8055
   35CHL1  H21A 2569   3.680   1.773   8.148 -2.0804 -0.5472  1.2318
   35CHL1  H21B 2570   3.742   1.874   8.284  0.8828 -2.9028  0.1821
   35CHL1  H21C 2571   3.641   1.941   8.154  3.4524  0.1183 -0.4294
   35CHL1   C22 2572   3.525   1.760   8.428 -0.2576 -0.1204 -0.0056
   35CHL1  H22A 2573   3.425   1.747   8.475  0.5493  1.1943  2.1040
   35CHL1  H22B 2574   3.573   1.659   8.430  0.0349  0.0267  0.4624
   35CHL1   C23 2575   3.595   1.863   8.525  0.4965  0.3045  0.4825
   35CHL1  H23A 2576   3.702   1.857   8.495  0.5945 -0.4416  0.9658
   35CHL1  H23B 2577   3.566   1.965   8.491  0.7237  0.5590  1.0488
   35CHL1   C24 2578   3.590   1.829   8.672  0.1004  0.1212 -0.1808
   35CHL1  H24A 2579   3.485   1.804   8.696 -0.4916  3.2075  0.6526
   35CHL1  H24B 2580   3.660   1.743   8.677 -0.3229 -0.1019  2.3335
   35CHL1   C25 2581   3.648   1.932   8.768  0.0580 -0.6286 -0.1235
   35CHL1   H25 2582   3.758   1.949   8.759  0.1339  0.1221  2.0138
   35CHL1   C26 2583   3.576   2.064   8.763  0.4564  0.2891 -0.0721
   35CHL1  H26A 2584   3.594   2.129   8.851 -1.8943 -0.3368  0.9247
   35CHL1  H26B 2585   3.598   2.121   8.670  0.8146  0.7956  0.3231
   35CHL1  H26C 2586   3.465   2.053   8.763  0.3942  0.8824  0.0906
   35CHL1   C27 2587   3.641   1.865   8.907 -0.2889 -0.4045  0.2406
   35CHL1  H27A 2588   3.542   1.820   8.930 -0.5340  1.2362  2.6966
   35CHL1  H27B 2589   3.666   1.945   8.980  1.4296  1.2817 -2.1206
   35CHL1  H27C 2590   3.721   1.788   8.905  0.8578  0.8021 -0.9724
   36CHL1    C3 2591   4.266   0.675   6.920  0.0411  0.1277 -0.4557
   36CHL1    H3 2592   4.212   0.578   6.913  0.4168  0.0745 -2.9619
   36CHL1    O3 2593   4.320   0.714   6.792 -0.1770  0.0264  0.3827
   36CHL1   H3' 2594   4.354   0.804   6.799  1.0888 -0.3308 -0.9437
   36CHL1    C4 2595   4.165   0.784   6.964  0.2896 -0.3005  0.7242
   36CHL1   H4A 2596   4.217   0.882   6.963  0.6842 -0.5064  1.1058
   36CHL1   H4B 2597   4.082   0.791   6.889  0.4714 -0.5522  0.4974
   36CHL1    C5 2598   4.109   0.759   7.101 -0.3986 -0.1099 -0.0137
   36CHL1    C6 2599   3.974   0.748   7.113  0.0916 -0.5608  0.2232
   36CHL1    H6 2600   3.903   0.756   7.029  1.8244 -0.0940 -1.2340
   36CHL1    C7 2601   3.911   0.725   7.248  0.5898  0.6527  0.0932
   36CHL1   H7A 2602   3.817   0.783   7.261  1.0095  1.1275  1.0110
   36CHL1   H7B 2603   3.888   0.617   7.252  0.0607  0.8009  1.1625
   36CHL1    C8 2604   4.006   0.748   7.374 -0.0706  0.0989  0.6869
   36CHL1    H8 2605   4.004   0.857   7.390 -0.1587 -0.1158  2.2553
   36CHL1   C14 2606   3.951   0.683   7.498 -0.1867  0.0006 -0.1166
   36CHL1   H14 2607   3.936   0.575   7.475  0.3930  0.0500 -0.7543
   36CHL1   C15 2608   3.808   0.708   7.540 -0.2034  0.9508  0.1718
   36CHL1  H15A 2609   3.796   0.817   7.554  1.2792  0.8880  2.1859
   36CHL1  H15B 2610   3.736   0.671   7.464  1.2923 -1.8333  0.0242
   36CHL1   C16 2611   3.798   0.627   7.673  0.0115  0.5786 -0.3120
   36CHL1  H16A 2612   3.740   0.683   7.749  0.1617 -1.4720  1.3850
   36CHL1  H16B 2613   3.741   0.532   7.662 -0.8685  1.0970 -0.2484
   36CHL1   C17 2614   3.948   0.605   7.719 -0.0921  0.5616  0.3280
   36CHL1   H17 2615   3.966   0.497   7.701 -0.5674  0.5595 -0.1367
   36CHL1   C13 2616   4.033   0.694   7.625  1.0224 -0.4342  0.5827
   36CHL1   C18 2617   4.019   0.834   7.688 -0.4194  0.1783  0.4305
   36CHL1  H18A 2618   3.913   0.864   7.707 -1.1689 -0.7497 -2.0932
   36CHL1  H18B 2619   4.085   0.853   7.775 -0.8434 -1.6097  1.1697
   36CHL1  H18C 2620   4.051   0.901   7.605  1.0815  0.8889  1.5709
   36CHL1   C12 2621   4.173   0.634   7.597  0.0139 -0.4995  0.0922
   36CHL1  H12A 2622   4.246   0.645   7.679  0.1925  0.6329 -0.2151
   36CHL1  H12B 2623   4.175   0.526   7.570 -0.9933 -0.5946  0.3511
   36CHL1   C11 2624   4.232   0.708   7.481 -0.2596  0.0487  0.4178
   36CHL1  H11A 2625   4.256   0.813   7.508  1.7609 -0.6411  1.3975
   36CHL1  H11B 2626   4.336   0.675   7.459  0.4995  0.3031  3.4109
   36CHL1    C9 2627   4.149   0.694   7.351 -0.2360  0.4794  0.0968
   36CHL1    H9 2628   4.137   0.584   7.336  2.3131  0.1115  0.4720
   36CHL1   C10 2629   4.210   0.748   7.212  0.6207  0.1078 -0.3265
   36CHL1   C19 2630   4.266   0.888   7.241  0.9079 -0.1997 -0.0444
   36CHL1  H19A 2631   4.344   0.894   7.320  0.7910  1.1830 -0.0336
   36CHL1  H19B 2632   4.315   0.922   7.148  2.7379  0.6451  1.2032
   36CHL1  H19C 2633   4.185   0.960   7.266 -0.3983 -1.9589  0.9435
   36CHL1    C1 2634   4.316   0.648   7.163 -0.0883  0.0272  0.1874
   36CHL1   H1A 2635   4.401   0.649   7.235  1.4646  3.6094 -1.5602
   36CHL1   H1B 2636   4.266   0.549   7.170 -0.2846  0.0551 -0.7147
   36CHL1    C2 2637   4.376   0.671   7.028  0.3884 -0.1123  0.7264
   36CHL1   H2A 2638   4.442   0.584   7.006  3.4615  1.1043  4.6562
   36CHL1   H2B 2639   4.429   0.769   7.029  0.3300 -0.0837  4.1884
   36CHL1   C20 2640   3.966   0.617   7.873  0.4819 -0.2471  0.1162
   36CHL1   H20 2641   3.943   0.723   7.896 -1.0186 -0.6990  0.7499
   36CHL1   C21 2642   4.108   0.593   7.917 -0.2793 -0.3168 -0.2903
   36CHL1  H21A 2643   4.128   0.577   8.025  0.0917 -1.7890 -0.5724
   36CHL1  H21B 2644   4.180   0.667   7.878  1.1992 -1.8443 -0.4992
   36CHL1  H21C 2645   4.140   0.495   7.877  0.2803  0.0268 -0.6914
   36CHL1   C22 2646   3.859   0.522   7.938  0.1421 -0.9790 -0.0374
   36CHL1  H22A 2647   3.763   0.577   7.928  0.1350 -0.8062  0.9004
   36CHL1  H22B 2648   3.853   0.423   7.889  1.1799  0.0015 -2.1912
   36CHL1   C23 2649   3.893   0.494   8.084  0.2801 -0.3595 -0.0699
   36CHL1  H23A 2650   3.973   0.418   8.094 -0.3244 -0.9296  0.5132
   36CHL1  H23B 2651   3.922   0.586   8.140  1.4760 -1.1522  0.6252
   36CHL1   C24 2652   3.775   0.416   8.144 -0.1118 -0.4190 -0.3767
   36CHL1  H24A 2653   3.771   0.322   8.086  1.0164 -0.6361 -0.1052
   36CHL1  H24B 2654   3.787   0.383   8.249 -0.5098 -1.9091 -0.7883
   36CHL1   C25 2655   3.635   0.482   8.153  0.5208  0.4415 -0.0629
   36CHL1   H25 2656   3.593   0.523   8.058 -1.1273  0.6239  0.7299
   36CHL1   C26 2657   3.534   0.385   8.207  0.1651  0.5345 -0.8200
   36CHL1  H26A 2658   3.428   0.418   8.197  0.0236  0.2580 -0.2557
   36CHL1  H26B 2659   3.547   0.285   8.159  2.0680 -0.0883  0.9022
   36CHL1  H26C 2660   3.561   0.358   8.311 -0.8076 -1.7553 -1.1270
   36CHL1   C27 2661   3.640   0.610   8.239 -0.5745  0.1617 -0.0805
   36CHL1  H27A 2662   3.534   0.637   8.258 -0.2369  1.0058  0.6284
   36CHL1  H27B 2663   3.685   0.585   8.338 -1.2242  0.5935  0.3319
   36CHL1  H27C 2664   3.696   0.690   8.187  1.7141 -2.2179 -1.4023
   37CHL1    C3 2665   0.378   3.150   7.043  0.5519  0.2713 -0.1101
   37CHL1    H3 2666   0.378   3.045   7.080  0.4111 -0.1697 -1.3699
   37CHL1    O3 2667   0.377   3.159   6.903  0.3045 -0.8758  0.0267
   37CHL1   H3' 2668   0.366   3.254   6.893 -2.0057 -1.2240 -1.1467
   37CHL1    C4 2669   0.249   3.216   7.088 -0.5413 -0.0247  0.2163
   37CHL1   H4A 2670   0.249   3.317   7.041  0.9563  0.4559  1.2301
   37CHL1   H4B 2671   0.166   3.153   7.049  0.2466 -0.0314 -1.4709
   37CHL1    C5 2672   0.232   3.236   7.234 -0.4853  0.3993 -0.0026
   37CHL1    C6 2673   0.138   3.178   7.313 -0.5005  0.0209  0.3514
   37CHL1    H6 2674   0.067   3.111   7.264  0.1353  1.4889 -2.6640
   37CHL1    C7 2675   0.128   3.193   7.460  0.4269  0.9805  0.2615
   37CHL1   H7A 2676   0.023   3.212   7.491  0.5889 -0.1067  1.5699
   37CHL1   H7B 2677   0.170   3.097   7.498 -0.7107 -0.4856 -2.0244
   37CHL1    C8 2678   0.229   3.304   7.514 -0.5415  0.5400  0.2807
   37CHL1    H8 2679   0.183   3.403   7.493 -2.3159 -0.5524 -1.1528
   37CHL1   C14 2680   0.248   3.292   7.661  0.0172  0.1294  0.4882
   37CHL1   H14 2681   0.277   3.186   7.675  0.5266  0.2056  0.0256
   37CHL1   C15 2682   0.124   3.302   7.758 -0.2431  0.3483  0.8447
   37CHL1  H15A 2683   0.061   3.392   7.748  0.8028  1.1233  1.1293
   37CHL1  H15B 2684   0.067   3.209   7.736  0.3910 -0.5950  3.0680
   37CHL1   C16 2685   0.179   3.303   7.899 -0.4091 -0.7058  0.3504
   37CHL1  H16A 2686   0.136   3.394   7.946 -1.2698 -0.8807 -0.0874
   37CHL1  H16B 2687   0.170   3.204   7.950  1.5151  0.2886  2.7456
   37CHL1   C17 2688   0.333   3.327   7.877  0.1467  0.9558  0.3055
   37CHL1   H17 2689   0.381   3.226   7.877 -0.7703  0.4847 -2.3105
   37CHL1   C13 2690   0.352   3.376   7.736 -0.1397 -0.1543 -0.2465
   37CHL1   C18 2691   0.316   3.527   7.737 -0.5044  0.2162  0.1731
   37CHL1  H18A 2692   0.297   3.574   7.638  0.8140  0.3137 -0.0397
   37CHL1  H18B 2693   0.224   3.556   7.794 -1.4520  0.0340 -1.2305
   37CHL1  H18C 2694   0.403   3.589   7.767 -0.4460  0.2704 -0.1009
   37CHL1   C12 2695   0.488   3.352   7.669  0.3916 -0.0996 -0.2501
   37CHL1  H12A 2696   0.574   3.413   7.705  0.5912 -0.5515  0.0268
   37CHL1  H12B 2697   0.522   3.253   7.706  1.4561  0.0474 -0.8025
   37CHL1   C11 2698   0.477   3.373   7.516 -0.0893  0.9692 -0.2301
   37CHL1  H11A 2699   0.467   3.482   7.497 -1.0109  1.0776  0.7972
   37CHL1  H11B 2700   0.578   3.343   7.479 -0.0736 -2.2487  2.1766
   37CHL1    C9 2701   0.362   3.287   7.451 -0.7490 -0.0008 -0.8063
   37CHL1    H9 2702   0.397   3.183   7.473  1.6198  0.9624  0.1837
   37CHL1   C10 2703   0.350   3.309   7.300 -0.4794  0.4914  0.4764
   37CHL1   C19 2704   0.332   3.457   7.271  0.5270  0.0144  0.6063
   37CHL1  H19A 2705   0.410   3.525   7.313 -1.0720  0.7736  2.4072
   37CHL1  H19B 2706   0.345   3.474   7.162 -1.7807 -1.9091  0.0117
   37CHL1  H19C 2707   0.237   3.508   7.299  0.0617 -0.9480  0.7711
   37CHL1    C1 2708   0.487   3.249   7.243  0.6419 -0.6773 -0.2891
   37CHL1   H1A 2709   0.562   3.329   7.265 -1.0499  0.8623  0.0121
   37CHL1   H1B 2710   0.507   3.151   7.292 -0.9946 -1.6410 -1.5173
   37CHL1    C2 2711   0.493   3.234   7.093  0.5452  0.4060  0.1580
   37CHL1   H2A 2712   0.585   3.175   7.070  0.0854  0.2032 -1.2164
   37CHL1   H2B 2713   0.487   3.333   7.043 -0.7492  1.5841  2.5978
   37CHL1   C20 2714   0.391   3.396   8.001 -0.2253  0.3497 -0.4635
   37CHL1   H20 2715   0.362   3.503   8.012  1.2194  0.6216  0.8008
   37CHL1   C21 2716   0.552   3.396   7.994  0.8015 -0.3392  0.1501
   37CHL1  H21A 2717   0.595   3.435   8.089  3.6978 -1.0096 -0.8249
   37CHL1  H21B 2718   0.607   3.451   7.915  0.1103 -1.7141 -1.3047
   37CHL1  H21C 2719   0.586   3.292   7.975 -0.4585 -0.3099 -2.4320
   37CHL1   C22 2720   0.347   3.313   8.121 -0.6633 -0.1087 -0.2319
   37CHL1  H22A 2721   0.239   3.313   8.144 -0.3113 -3.4701  1.7904
   37CHL1  H22B 2722   0.377   3.207   8.106  1.5181  0.6542 -1.6466
   37CHL1   C23 2723   0.396   3.355   8.266 -0.4507  0.6333  0.1491
   37CHL1  H23A 2724   0.507   3.348   8.263 -0.3865  1.1307  1.1816
   37CHL1  H23B 2725   0.357   3.459   8.261 -1.1151  0.3355 -1.0655
   37CHL1   C24 2726   0.336   3.263   8.374  0.1417 -0.0108 -0.4607
   37CHL1  H24A 2727   0.228   3.242   8.355 -0.2655  1.7155 -0.0865
   37CHL1  H24B 2728   0.395   3.169   8.365 -1.2684 -0.9289 -0.3866
   37CHL1   C25 2729   0.352   3.307   8.515 -0.0555  0.5027  0.1622
   37CHL1   H25 2730   0.459   3.315   8.544 -0.1526  1.6072  0.2625
   37CHL1   C26 2731   0.275   3.443   8.533  0.4147 -0.1847 -0.6074
   37CHL1  H26A 2732   0.184   3.435   8.469 -0.4323  0.0987  0.5444
   37CHL1  H26B 2733   0.232   3.455   8.634 -0.1153  1.3303 -1.0046
   37CHL1  H26C 2734   0.330   3.532   8.497 -0.0661  0.6868  0.7956
   37CHL1   C27 2735   0.283   3.207   8.611 -0.2691 -0.3298  0.4840
   37CHL1  H27A 2736   0.317   3.102   8.601 -1.6277 -0.6111 -1.4442
   37CHL1  H27B 2737   0.302   3.229   8.718 -0.3460  0.6945  0.2922
   37CHL1  H27C 2738   0.174   3.195   8.595 -0.1258 -0.2107 -0.6481
   38CHL1    C3 2739   3.450   3.865   6.742 -0.0519 -0.3857  0.0708
   38CHL1    H3 2740   3.534   3.936   6.725 -0.3426  0.3667  1.6478
   38CHL1    O3 2741   3.381   3.813   6.626 -1.0700 -0.5533 -0.1507
   38CHL1   H3' 2742   3.328   3.743   6.664  0.5782 -1.2339  0.9056
   38CHL1    C4 2743   3.499   3.739   6.821  0.3386 -0.0970 -0.1887
   38CHL1   H4A 2744   3.411   3.681   6.852 -0.9975  1.2018 -1.4553
   38CHL1   H4B 2745   3.547   3.670   6.749 -1.1527 -2.1011  0.7006
   38CHL1    C5 2746   3.581   3.777   6.939  0.0287  0.3083  0.2739
   38CHL1    C6 2747   3.708   3.736   6.951 -0.2877  0.3004 -0.2303
   38CHL1    H6 2748   3.754   3.687   6.864 -1.1091 -0.8265 -0.0391
   38CHL1    C7 2749   3.808   3.766   7.063 -0.3121 -0.1975 -0.2930
   38CHL1   H7A 2750   3.875   3.685   7.099 -0.2893  0.0840  0.3095
   38CHL1   H7B 2751   3.865   3.857   7.032 -1.8983  0.6664 -0.7189
   38CHL1    C8 2752   3.716   3.794   7.184  0.0831 -0.5703  0.5974
   38CHL1    H8 2753   3.665   3.700   7.215  1.4304 -1.4431  0.2315
   38CHL1   C14 2754   3.804   3.845   7.291  0.6550 -0.3287 -0.7845
   38CHL1   H14 2755   3.831   3.947   7.257  0.7819 -0.3651 -0.7928
   38CHL1   C15 2756   3.937   3.770   7.333 -0.1735  0.4191  0.0101
   38CHL1  H15A 2757   3.932   3.659   7.335 -1.0126  0.4638  0.5189
   38CHL1  H15B 2758   4.016   3.797   7.259 -0.9768 -0.2979 -1.1428
   38CHL1   C16 2759   3.972   3.832   7.464 -0.1725  0.3176 -0.1947
   38CHL1  H16A 2760   3.974   3.759   7.548 -1.0852 -0.9315 -1.2309
   38CHL1  H16B 2761   4.066   3.891   7.458  0.1411  0.3497  3.7754
   38CHL1   C17 2762   3.860   3.934   7.498 -0.4986  0.5422 -0.7813
   38CHL1   H17 2763   3.886   4.033   7.455  0.2569  0.9386  0.5630
   38CHL1   C13 2764   3.737   3.889   7.421 -0.3992 -0.0553 -0.0695
   38CHL1   C18 2765   3.673   3.766   7.489 -0.0249 -0.2027  0.2965
   38CHL1  H18A 2766   3.741   3.684   7.521 -0.6128 -1.0817 -0.6458
   38CHL1  H18B 2767   3.613   3.795   7.578  0.6309  0.3080  0.5729
   38CHL1  H18C 2768   3.593   3.718   7.427 -3.4732  0.1387  4.2538
   38CHL1   C12 2769   3.638   4.003   7.387 -0.2836  0.0072  0.6758
   38CHL1  H12A 2770   3.589   4.037   7.481  1.2618  2.6217  0.5448
   38CHL1  H12B 2771   3.699   4.086   7.346  1.0094 -0.0815  2.3664
   38CHL1   C11 2772   3.542   3.951   7.280  0.1249  0.3143 -0.4383
   38CHL1  H11A 2773   3.475   3.880   7.333  0.2779  0.4828 -0.0194
   38CHL1  H11B 2774   3.472   4.030   7.247 -0.3079  0.5268  0.9693
   38CHL1    C9 2775   3.608   3.902   7.149 -0.3719 -0.3085 -0.1586
   38CHL1    H9 2776   3.665   3.987   7.106 -0.6269  0.1986  0.4899
   38CHL1   C10 2777   3.504   3.852   7.041  0.1367  0.8253 -0.0878
   38CHL1   C19 2778   3.403   3.749   7.100  0.6381 -0.3399 -0.0784
   38CHL1  H19A 2779   3.349   3.798   7.183  1.5991 -0.5910  0.7081
   38CHL1  H19B 2780   3.319   3.724   7.032  1.4980 -0.8602 -0.9679
   38CHL1  H19C 2781   3.444   3.655   7.144  0.5327 -0.7447 -0.8331
   38CHL1    C1 2782   3.425   3.964   6.981  0.3925  0.0185  0.3206
   38CHL1   H1A 2783   3.352   4.018   7.045  2.1985 -0.8569  3.1776
   38CHL1   H1B 2784   3.497   4.048   6.969 -0.5979  0.9828  0.9585
   38CHL1    C2 2785   3.355   3.939   6.837 -0.4564  0.1919  0.3464
   38CHL1   H2A 2786   3.317   4.040   6.809  0.3596  0.1357 -1.0011
   38CHL1   H2B 2787   3.270   3.873   6.867 -1.6979  2.9871  3.3764
   38CHL1   C20 2788   3.841   3.964   7.652  0.1421 -0.4384 -0.3103
   38CHL1   H20 2789   3.731   3.982   7.655  0.4680  1.5491  0.3381
   38CHL1   C21 2790   3.929   4.086   7.690  1.0674 -0.3682 -0.2376
   38CHL1  H21A 2791   3.910   4.110   7.797  0.7014  2.0880 -0.8261
   38CHL1  H21B 2792   3.893   4.176   7.637 -0.6172 -1.3294 -0.7618
   38CHL1  H21C 2793   4.038   4.073   7.671  1.0380 -1.1386  0.0889
   38CHL1   C22 2794   3.857   3.841   7.747 -0.0513 -0.0073 -0.4625
   38CHL1  H22A 2795   3.792   3.755   7.721 -0.7596  0.2360  0.4738
   38CHL1  H22B 2796   3.959   3.799   7.759  0.0864  0.3594 -0.3561
   38CHL1   C23 2797   3.794   3.871   7.891  0.0520  0.3923  0.5169
   38CHL1  H23A 2798   3.817   3.976   7.920 -1.1235  1.4008 -2.0038
   38CHL1  H23B 2799   3.684   3.873   7.882  0.1627  1.4094 -0.8072
   38CHL1   C24 2800   3.829   3.779   8.012  0.5433  0.4949  0.6959
   38CHL1  H24A 2801   3.938   3.793   8.025  0.7934  0.9451 -1.7306
   38CHL1  H24B 2802   3.785   3.822   8.105  1.0638  2.1405  0.1963
   38CHL1   C25 2803   3.808   3.626   8.002  0.1212 -0.1932 -0.4031
   38CHL1   H25 2804   3.882   3.579   7.935  2.0070  0.5420  1.1130
   38CHL1   C26 2805   3.821   3.567   8.143 -0.0617  0.2322  0.4459
   38CHL1  H26A 2806   3.823   3.456   8.133 -2.5694  0.3218 -1.5023
   38CHL1  H26B 2807   3.913   3.600   8.195 -1.0489  0.4657  2.0835
   38CHL1  H26C 2808   3.733   3.592   8.206  0.1394  0.1529  0.7642
   38CHL1   C27 2809   3.672   3.600   7.945  0.4359 -0.9729  0.2069
   38CHL1  H27A 2810   3.595   3.664   7.994  1.1582 -1.3604  1.8700
   38CHL1  H27B 2811   3.672   3.607   7.834 -0.4617 -1.0515  0.1916
   38CHL1  H27C 2812   3.649   3.496   7.976  1.3488 -1.9772 -2.3140
   39CHL1    C3 2813   3.202   2.959   6.745 -0.1216 -0.2178  0.1611
   39CHL1    H3 2814   3.312   2.970   6.757 -0.2027  1.0565 -0.2367
   39CHL1    O3 2815   3.174   2.953   6.608 -0.5438  0.8492 -0.1671
   39CHL1   H3' 2816   3.096   2.897   6.603 -1.2200  1.7177  0.3726
   39CHL1    C4 2817   3.161   2.820   6.801  0.3607  0.1068  0.0522
   39CHL1   H4A 2818   3.055   2.802   6.776 -0.2425  4.2742 -0.7927
   39CHL1   H4B 2819   3.218   2.746   6.740  2.0310  1.1869  0.2697
   39CHL1    C5 2820   3.202   2.811   6.942  0.0420  0.4002 -0.3697
   39CHL1    C6 2821   3.298   2.722   6.987 -0.4536  0.1935  0.2297
   39CHL1    H6 2822   3.347   2.656   6.914  0.8891  0.6052  0.7398
   39CHL1    C7 2823   3.349   2.720   7.134  0.5981  0.0612  0.2699
   39CHL1   H7A 2824   3.353   2.613   7.166 -2.3259  0.2462  1.4290
   39CHL1   H7B 2825   3.454   2.754   7.142  0.8565 -0.7969  0.6306
   39CHL1    C8 2826   3.246   2.792   7.232 -0.1200  0.2015  0.7417
   39CHL1    H8 2827   3.156   2.728   7.245  0.6409 -0.9944  0.1333
   39CHL1   C14 2828   3.311   2.817   7.365  0.8369  0.4640 -0.0187
   39CHL1   H14 2829   3.388   2.892   7.336  1.3041  0.4022  1.0629
   39CHL1   C15 2830   3.373   2.692   7.435  0.1148  0.0556  0.1475
   39CHL1  H15A 2831   3.303   2.605   7.440  0.9911 -0.6131  1.0663
   39CHL1  H15B 2832   3.471   2.670   7.387  0.8148  0.5036  1.3614
   39CHL1   C16 2833   3.409   2.736   7.578  0.1462 -0.8138 -0.0352
   39CHL1  H16A 2834   3.357   2.661   7.641  0.1938  0.1730  1.1946
   39CHL1  H16B 2835   3.516   2.732   7.607  0.5747 -0.8732 -1.5375
   39CHL1   C17 2836   3.339   2.881   7.587  0.6952  0.8622 -0.1088
   39CHL1   H17 2837   3.415   2.955   7.552 -0.5626  1.9656 -0.5201
   39CHL1   C13 2838   3.237   2.901   7.464 -0.6778  0.2106 -0.2422
   39CHL1   C18 2839   3.106   2.828   7.506  0.3842  0.5931 -0.6520
   39CHL1  H18A 2840   3.052   2.807   7.411 -0.9382  1.2382 -0.0581
   39CHL1  H18B 2841   3.130   2.734   7.561 -0.7816  0.4689 -0.3382
   39CHL1  H18C 2842   3.041   2.884   7.576 -1.6939 -1.8938 -0.5348
   39CHL1   C12 2843   3.212   3.035   7.407 -0.1914 -0.7060  0.0857
   39CHL1  H12A 2844   3.151   3.104   7.469  1.6565  1.1736 -0.1343
   39CHL1  H12B 2845   3.307   3.088   7.381  0.4309 -0.1221  3.3219
   39CHL1   C11 2846   3.137   3.019   7.276  0.6432 -0.2651  0.4623
   39CHL1  H11A 2847   3.042   2.970   7.305  0.8787  0.0128  1.7471
   39CHL1  H11B 2848   3.110   3.120   7.239 -0.6918 -0.2955  1.3105
   39CHL1    C9 2849   3.208   2.925   7.170  0.0170 -0.2234 -0.5274
   39CHL1    H9 2850   3.299   2.985   7.151 -0.7052  1.7653  1.9418
   39CHL1   C10 2851   3.137   2.912   7.037  0.0130 -0.3046 -0.0460
   39CHL1   C19 2852   2.989   2.881   7.067  0.0810 -0.0894  0.4875
   39CHL1  H19A 2853   2.946   2.961   7.130  2.2014 -0.3863  2.3484
   39CHL1  H19B 2854   2.923   2.887   6.978  1.2635  0.0968 -0.3975
   39CHL1  H19C 2855   2.973   2.783   7.117  0.5166  0.0939  0.9970
   39CHL1    C1 2856   3.154   3.062   6.973 -0.7394 -0.0623  0.6463
   39CHL1   H1A 2857   3.082   3.138   7.010  0.1263  2.6820 -2.9859
   39CHL1   H1B 2858   3.260   3.096   6.971 -1.7563  3.2715  0.7807
   39CHL1    C2 2859   3.129   3.070   6.818  0.1512  1.5273  0.5777
   39CHL1   H2A 2860   3.163   3.168   6.778  1.6063  1.8223  2.4639
   39CHL1   H2B 2861   3.021   3.055   6.798  1.1746 -3.7644 -1.8876
   39CHL1   C20 2862   3.293   2.916   7.730 -0.0236 -0.6261  0.1308
   39CHL1   H20 2863   3.196   2.864   7.745 -0.7459  0.9588  1.0649
   39CHL1   C21 2864   3.255   3.068   7.742  0.2534  0.0213 -0.4035
   39CHL1  H21A 2865   3.240   3.066   7.852  0.4022 -0.8223 -0.3951
   39CHL1  H21B 2866   3.176   3.114   7.679  0.8577  0.3830 -0.9057
   39CHL1  H21C 2867   3.351   3.123   7.727  0.1144  0.0332 -1.2817
   39CHL1   C22 2868   3.392   2.875   7.841 -0.1197 -0.3168  0.1908
   39CHL1  H22A 2869   3.367   2.891   7.948  1.9575  1.5514  0.4247
   39CHL1  H22B 2870   3.390   2.764   7.831 -4.0387 -0.2883 -0.2402
   39CHL1   C23 2871   3.541   2.908   7.819 -0.0570 -0.0877  0.5199
   39CHL1  H23A 2872   3.564   2.902   7.710 -0.8694 -3.0075  0.4539
   39CHL1  H23B 2873   3.540   3.014   7.851 -0.0317 -0.6531  2.4397
   39CHL1   C24 2874   3.646   2.817   7.898  0.4161 -0.1447 -0.5247
   39CHL1  H24A 2875   3.654   2.725   7.837  1.3915 -1.2437  1.2369
   39CHL1  H24B 2876   3.744   2.865   7.873 -0.3658  0.3367 -2.7660
   39CHL1   C25 2877   3.635   2.804   8.048  0.4667 -0.2238  0.1968
   39CHL1   H25 2878   3.541   2.748   8.068  1.3117 -1.7845 -0.1012
   39CHL1   C26 2879   3.738   2.706   8.096 -0.5481  0.2475 -0.1149
   39CHL1  H26A 2880   3.734   2.706   8.207  1.5138  0.1946 -0.0100
   39CHL1  H26B 2881   3.714   2.603   8.061 -3.3407  1.1932 -1.0758
   39CHL1  H26C 2882   3.844   2.736   8.080  0.5299 -2.9338  0.6202
   39CHL1   C27 2883   3.629   2.933   8.128  0.5013 -0.0696  0.5731
   39CHL1  H27A 2884   3.528   2.978   8.115  0.4320 -0.6320 -0.9150
   39CHL1  H27B 2885   3.626   2.920   8.238  0.4884  0.5058  0.6447
   39CHL1  H27C 2886   3.703   3.011   8.102 -0.8072  1.2174  0.6101
   40CHL1    C3 2887   5.913   2.192   6.911  0.4985 -0.1956 -0.1425
   40CHL1    H3 2888   5.910   2.298   6.945  1.1115  0.1008 -0.9914
   40CHL1    O3 2889   5.916   2.184   6.772 -0.2252 -0.1120  1.0151
   40CHL1   H3' 2890   6.010   2.179   6.751 -0.6197 -2.8342 -0.2328
   40CHL1    C4 2891   6.032   2.130   6.978 -0.8169  0.6205 -0.2195
   40CHL1   H4A 2892   6.048   2.027   6.939 -1.9015  0.4823 -0.3314
   40CHL1   H4B 2893   6.123   2.185   6.946 -0.0377 -0.2068  0.5756
   40CHL1    C5 2894   6.028   2.114   7.129 -0.1955 -0.0785 -0.2772
   40CHL1    C6 2895   6.121   2.171   7.205  1.2890 -0.4407 -0.4205
   40CHL1    H6 2896   6.209   2.206   7.149  0.7957  1.5303  0.0192
   40CHL1    C7 2897   6.123   2.181   7.357 -0.4317  0.4504 -0.0298
   40CHL1   H7A 2898   6.220   2.131   7.379 -1.0363  0.0667  1.8567
   40CHL1   H7B 2899   6.127   2.286   7.392 -1.3218 -0.1793  2.0522
   40CHL1    C8 2900   6.010   2.096   7.424 -0.2306  0.0817  0.7201
   40CHL1    H8 2901   6.040   1.989   7.415  0.6649  0.2599  1.5173
   40CHL1   C14 2902   5.985   2.125   7.565 -0.5781 -0.0605  0.2065
   40CHL1   H14 2903   5.953   2.231   7.575  0.0398  0.0388  1.2716
   40CHL1   C15 2904   6.101   2.117   7.662 -0.4864 -0.1439 -0.2893
   40CHL1  H15A 2905   6.161   2.026   7.640  2.4827  1.9394 -1.1316
   40CHL1  H15B 2906   6.167   2.206   7.669 -0.4042 -0.2848  0.9313
   40CHL1   C16 2907   6.045   2.105   7.804 -0.4599  0.0854 -0.0540
   40CHL1  H16A 2908   6.080   2.011   7.852 -0.9531  1.1224  2.4375
   40CHL1  H16B 2909   6.078   2.188   7.870 -2.6933  0.4969  0.5864
   40CHL1   C17 2910   5.892   2.105   7.786 -0.7520 -0.0577  0.6134
   40CHL1   H17 2911   5.854   2.209   7.774 -0.8950  0.0707  2.1667
   40CHL1   C13 2912   5.872   2.050   7.634  0.0981 -0.0819 -0.5228
   40CHL1   C18 2913   5.913   1.898   7.632 -0.9948 -0.6104 -0.0888
   40CHL1  H18A 2914   5.831   1.845   7.686 -0.9689  1.2196  1.8082
   40CHL1  H18B 2915   5.929   1.856   7.530 -0.5407  0.6625 -0.5445
   40CHL1  H18C 2916   6.004   1.891   7.696 -0.5350  2.5142 -0.3305
   40CHL1   C12 2917   5.741   2.073   7.557 -0.0426  0.2643 -0.4233
   40CHL1  H12A 2918   5.656   2.011   7.593 -1.1831  2.2223  0.3771
   40CHL1  H12B 2919   5.719   2.181   7.570 -0.0576  0.1376  0.6645
   40CHL1   C11 2920   5.756   2.051   7.405 -0.6803 -0.1768 -0.0856
   40CHL1  H11A 2921   5.760   1.940   7.407  0.2013 -0.1753 -1.0793
   40CHL1  H11B 2922   5.655   2.074   7.366 -1.0989 -0.4287  0.8344
   40CHL1    C9 2923   5.878   2.116   7.339  0.3670  0.8954 -0.4519
   40CHL1    H9 2924   5.871   2.226   7.345  1.0714  0.9553 -0.7533
   40CHL1   C10 2925   5.897   2.068   7.188 -0.4701 -0.1040 -0.2491
   40CHL1   C19 2926   5.892   1.916   7.190  0.0837  0.5857 -1.2527
   40CHL1  H19A 2927   5.975   1.879   7.255 -2.6854 -0.4443  1.8405
   40CHL1  H19B 2928   5.795   1.879   7.228  0.7923  0.6909  0.7084
   40CHL1  H19C 2929   5.916   1.870   7.092  1.0301 -0.2652 -0.6352
   40CHL1    C1 2930   5.772   2.123   7.105  1.0831  0.5579 -0.1148
   40CHL1   H1A 2931   5.678   2.067   7.128  0.8789  0.2693 -1.5861
   40CHL1   H1B 2932   5.758   2.229   7.135  1.7373  0.8333 -0.7730
   40CHL1    C2 2933   5.788   2.121   6.955  0.0291 -0.2729 -0.8317
   40CHL1   H2A 2934   5.718   2.189   6.901  1.4140  3.1193  1.4480
   40CHL1   H2B 2935   5.784   2.017   6.916  1.9562 -0.6947  0.0546
   40CHL1   C20 2936   5.807   2.053   7.903  1.0148  0.4484 -0.3926
   40CHL1   H20 2937   5.799   1.942   7.912  2.6155  0.3206 -0.3525
   40CHL1   C21 2938   5.671   2.114   7.887 -0.3007 -0.3859  0.1097
   40CHL1  H21A 2939   5.592   2.084   7.959  0.5160 -0.3356  1.0426
   40CHL1  H21B 2940   5.628   2.091   7.787  1.1675 -2.6500 -0.0551
   40CHL1  H21C 2941   5.678   2.225   7.885  0.6196 -0.4291  0.4043
   40CHL1   C22 2942   5.859   2.092   8.044 -0.8525 -1.3182 -0.7634
   40CHL1  H22A 2943   5.965   2.059   8.055 -0.7886 -0.5751  0.9040
   40CHL1  H22B 2944   5.847   2.202   8.050  3.5001 -0.7574 -0.2299
   40CHL1   C23 2945   5.769   2.036   8.159 -0.1609 -0.3791  0.3650
   40CHL1  H23A 2946   5.664   2.070   8.146 -0.4206 -1.7484 -1.3715
   40CHL1  H23B 2947   5.769   1.925   8.158  1.9515 -0.3876 -0.1360
   40CHL1   C24 2948   5.815   2.096   8.289 -0.3210  0.3768  0.5307
   40CHL1  H24A 2949   5.889   2.178   8.276 -2.2947  1.9790 -0.7187
   40CHL1  H24B 2950   5.735   2.151   8.342  0.8387  2.0521  0.5802
   40CHL1   C25 2951   5.862   1.989   8.391 -0.8950  0.3594  0.1757
   40CHL1   H25 2952   5.955   1.937   8.358 -1.0742 -0.7642  1.3999
   40CHL1   C26 2953   5.897   2.056   8.524  0.2179  0.2457 -0.0420
   40CHL1  H26A 2954   5.807   2.110   8.561 -1.1775 -2.8832  1.3232
   40CHL1  H26B 2955   5.944   1.981   8.591 -2.1350 -0.2116  1.1414
   40CHL1  H26C 2956   5.970   2.138   8.508 -0.2506  0.8452  0.8256
   40CHL1   C27 2957   5.763   1.882   8.410  0.4229  0.1347 -0.1043
   40CHL1  H27A 2958   5.675   1.939   8.448  1.3265  1.3050  0.2963
   40CHL1  H27B 2959   5.744   1.820   8.320 -1.6882  0.9149 -0.2162
   40CHL1  H27C 2960   5.805   1.815   8.488 -3.0966 -1.7628  0.2644
   41CHL1    C3 2961   0.177   2.204   7.004  0.0463  0.2164 -0.0201
   41CHL1    H3 2962   0.098   2.282   7.012 -0.9854 -0.5635 -2.1904
   41CHL1    O3 2963   0.215   2.183   6.866  0.6092  0.2912  0.3640
   41CHL1   H3' 2964   0.307   2.153   6.864  1.0242  1.3961  1.8192
   41CHL1    C4 2965   0.298   2.253   7.078 -0.6016  0.4295  0.0554
   41CHL1   H4A 2966   0.380   2.180   7.059  0.0077  0.9180  0.7964
   41CHL1   H4B 2967   0.320   2.356   7.041 -0.2546  0.8071  1.2973
   41CHL1    C5 2968   0.270   2.270   7.225 -0.5780 -0.4279  0.2239
   41CHL1    C6 2969   0.283   2.387   7.291 -0.1540  0.6131 -0.0020
   41CHL1    H6 2970   0.303   2.482   7.238 -1.1627 -0.3767 -2.2272
   41CHL1    C7 2971   0.271   2.404   7.437  0.0154  0.5570  0.7562
   41CHL1   H7A 2972   0.350   2.455   7.496 -0.6669  1.0275  1.2736
   41CHL1   H7B 2973   0.171   2.451   7.452 -0.4854 -0.3704  0.3930
   41CHL1    C8 2974   0.244   2.267   7.515 -0.0892  0.5566  0.8279
   41CHL1    H8 2975   0.344   2.223   7.534 -0.6789 -0.9702  0.4296
   41CHL1   C14 2976   0.159   2.282   7.640  0.1573 -0.6351  0.7438
   41CHL1   H14 2977   0.054   2.310   7.614 -0.1262 -2.6101 -0.3587
   41CHL1   C15 2978   0.216   2.394   7.731  0.1575 -0.6616  0.3686
   41CHL1  H15A 2979   0.326   2.378   7.725  0.0450 -0.5558 -2.5061
   41CHL1  H15B 2980   0.183   2.494   7.696  0.5188 -1.0660 -1.1614
   41CHL1   C16 2981   0.160   2.356   7.869  0.6045 -0.5897  0.0117
   41CHL1  H16A 2982   0.237   2.362   7.949 -1.2013  1.7946  1.6778
   41CHL1  H16B 2983   0.082   2.429   7.901  1.1690  0.2613 -0.5473
   41CHL1   C17 2984   0.092   2.216   7.858 -0.7651 -0.1447 -0.3484
   41CHL1   H17 2985  -0.017   2.229   7.844 -0.8935  0.1314  0.8614
   41CHL1   C13 2986   0.150   2.156   7.729  0.0546 -1.1559 -0.1349
   41CHL1   C18 2987   0.288   2.109   7.759  0.4228  0.3326  0.2116
   41CHL1  H18A 2988   0.337   2.075   7.666  0.8928 -0.4053  0.7189
   41CHL1  H18B 2989   0.367   2.178   7.797  0.1508  0.7709 -0.0110
   41CHL1  H18C 2990   0.285   2.011   7.812 -1.1047 -0.5080 -1.3786
   41CHL1   C12 2991   0.068   2.054   7.655  0.2267 -0.3560 -0.2260
   41CHL1  H12A 2992   0.088   1.956   7.704  1.6243 -0.9399 -1.9176
   41CHL1  H12B 2993  -0.038   2.088   7.651  0.3953  0.1011 -0.9467
   41CHL1   C11 2994   0.128   2.037   7.508  0.0612 -0.1202 -0.0705
   41CHL1  H11A 2995   0.215   1.972   7.532  0.9581  0.5214 -1.5314
   41CHL1  H11B 2996   0.059   1.970   7.453  0.8725 -2.4924  1.6822
   41CHL1    C9 2997   0.166   2.167   7.430  0.0199 -0.2272 -0.0865
   41CHL1    H9 2998   0.072   2.224   7.415 -0.0227  0.1941  1.6582
   41CHL1   C10 2999   0.218   2.141   7.293 -0.0938  0.0834  0.7907
   41CHL1   C19 3000   0.324   2.027   7.306  0.4540  0.2398  0.7322
   41CHL1  H19A 3001   0.398   2.019   7.223 -1.8197 -2.4209 -1.0999
   41CHL1  H19B 3002   0.387   2.049   7.395  1.6535 -0.4987  0.0935
   41CHL1  H19C 3003   0.277   1.927   7.308  1.2640 -0.2886 -2.6349
   41CHL1    C1 3004   0.100   2.087   7.202  1.0463  0.2812  0.2845
   41CHL1   H1A 3005   0.055   1.996   7.247  0.8766  1.1075  1.8224
   41CHL1   H1B 3006   0.013   2.156   7.208 -1.4452 -2.6564 -1.3294
   41CHL1    C2 3007   0.119   2.070   7.055  0.5982  0.0163  0.2488
   41CHL1   H2A 3008   0.025   2.039   7.006  1.3718 -0.1025 -1.1822
   41CHL1   H2B 3009   0.200   1.996   7.037 -1.1055 -1.4151 -1.7417
   41CHL1   C20 3010   0.095   2.128   7.989 -0.4997  0.0852  0.2219
   41CHL1   H20 3011   0.199   2.102   8.014 -0.0466  0.3994 -1.2436
   41CHL1   C21 3012   0.020   2.003   7.966 -0.2677  0.0255 -0.3309
   41CHL1  H21A 3013  -0.080   2.019   7.919 -1.6267 -1.8910  1.7781
   41CHL1  H21B 3014  -0.005   1.957   8.064 -0.4761  1.5066  0.3272
   41CHL1  H21C 3015   0.087   1.930   7.918  0.9897  0.6380  0.4583
   41CHL1   C22 3016   0.032   2.207   8.112 -0.4896 -0.9964 -0.1287
   41CHL1  H22A 3017   0.044   2.134   8.195  0.8351 -2.3325 -1.4609
   41CHL1  H22B 3018   0.092   2.299   8.132 -1.7467 -0.4782  1.3368
   41CHL1   C23 3019  -0.118   2.229   8.115  0.0184  0.3045 -0.3392
   41CHL1  H23A 3020  -0.155   2.256   8.015  1.3999  0.4361 -0.8336
   41CHL1  H23B 3021  -0.170   2.145   8.166  1.1774  0.0692  0.4966
   41CHL1   C24 3022  -0.153   2.357   8.196 -0.1574 -0.0083 -0.0595
   41CHL1  H24A 3023  -0.109   2.351   8.298  1.3060  0.1600 -0.6772
   41CHL1  H24B 3024  -0.112   2.445   8.142 -0.1782 -1.0745 -1.8300
   41CHL1   C25 3025  -0.304   2.376   8.212  0.1832  0.0634 -0.2048
   41CHL1   H25 3026  -0.353   2.358   8.113  0.3678 -1.9287  0.0457
   41CHL1   C26 3027  -0.361   2.275   8.315  0.0228  0.7227 -0.2832
   41CHL1  H26A 3028  -0.322   2.175   8.286  0.3153  0.9824 -0.7907
   41CHL1  H26B 3029  -0.325   2.307   8.415  0.0800 -3.2484  1.0678
   41CHL1  H26C 3030  -0.470   2.264   8.300  0.2547 -0.1175 -1.3972
   41CHL1   C27 3031  -0.332   2.519   8.263  0.2667  0.2187 -0.3617
   41CHL1  H27A 3032  -0.263   2.533   8.349  1.1634 -1.1295 -0.8519
   41CHL1  H27B 3033  -0.302   2.593   8.186 -1.8280  0.5996 -0.8627
   41CHL1  H27C 3034  -0.439   2.524   8.293  0.4756  3.6247 -0.0285
   42CHL1    C3 3035   0.926   5.979   7.012  0.1992 -0.1109 -0.1127
   42CHL1    H3 3036   0.818   5.953   7.021 -0.2413  1.4811 -0.5949
   42CHL1    O3 3037   0.936   6.001   6.873 -0.0495 -0.2294  0.5375
   42CHL1   H3' 3038   1.028   6.028   6.864 -0.2661  1.2330  2.4147
   42CHL1    C4 3039   0.964   6.103   7.094 -0.2693 -0.1976 -0.1793
   42CHL1   H4A 3040   1.054   6.155   7.053  0.7923 -0.4123  1.8294
   42CHL1   H4B 3041   0.879   6.171   7.072 -1.6397 -2.3401 -1.7133
   42CHL1    C5 3042   0.992   6.088   7.244 -0.7493 -0.3263  0.8991
   42CHL1    C6 3043   0.934   6.167   7.334 -0.1555  0.0691 -0.0295
   42CHL1    H6 3044   0.880   6.252   7.290 -1.5200 -0.7078  0.1478
   42CHL1    C7 3045   0.962   6.147   7.477  0.3468  0.8607  0.4599
   42CHL1   H7A 3046   0.987   6.243   7.527 -0.1082  1.8601 -1.1507
   42CHL1   H7B 3047   0.867   6.129   7.532 -1.6472  1.0717 -2.7739
   42CHL1    C8 3048   1.068   6.046   7.516 -0.3247  0.3574  0.2516
   42CHL1    H8 3049   1.168   6.090   7.496  0.0607 -0.3555  0.5947
   42CHL1   C14 3050   1.062   6.008   7.663  0.1500  0.5896 -0.5384
   42CHL1   H14 3051   0.967   5.951   7.663  1.3424 -1.5317 -3.6118
   42CHL1   C15 3052   1.062   6.123   7.776  0.4357  0.3120 -0.3061
   42CHL1  H15A 3053   1.135   6.196   7.738 -0.1167  0.5246 -0.9761
   42CHL1  H15B 3054   0.961   6.169   7.784 -0.8145 -2.4377  0.4813
   42CHL1   C16 3055   1.118   6.053   7.903  0.1777  0.3419  0.6152
   42CHL1  H16A 3056   1.215   6.103   7.923  1.2508 -0.7823 -1.6110
   42CHL1  H16B 3057   1.047   6.073   7.986 -0.2590 -1.4874  0.7050
   42CHL1   C17 3058   1.134   5.904   7.865 -0.2609  0.3658 -0.9883
   42CHL1   H17 3059   1.032   5.864   7.880  1.1503 -2.9651  0.1830
   42CHL1   C13 3060   1.171   5.904   7.712  0.1056 -0.0797  0.0841
   42CHL1   C18 3061   1.312   5.967   7.686  0.0132  0.1720 -0.0625
   42CHL1  H18A 3062   1.329   5.983   7.578  0.3927 -0.7981 -0.1554
   42CHL1  H18B 3063   1.328   6.066   7.733  3.4075  0.0785 -0.8882
   42CHL1  H18C 3064   1.395   5.898   7.713 -0.3652  0.7466  2.7778
   42CHL1   C12 3065   1.152   5.778   7.628 -0.1679 -0.0491 -0.5317
   42CHL1  H12A 3066   1.231   5.703   7.652 -0.7657 -0.8588 -1.0609
   42CHL1  H12B 3067   1.061   5.727   7.666 -0.7684  0.8109 -0.7959
   42CHL1   C11 3068   1.150   5.801   7.476 -0.0928 -0.3639  0.5482
   42CHL1  H11A 3069   1.254   5.816   7.440 -0.9708  2.2195 -1.0580
   42CHL1  H11B 3070   1.105   5.708   7.436  0.4509 -0.7122  0.7444
   42CHL1    C9 3071   1.064   5.925   7.425  0.2896 -0.1914  0.1681
   42CHL1    H9 3072   0.959   5.889   7.430 -0.8579  2.3938 -3.5565
   42CHL1   C10 3073   1.085   5.964   7.274  0.3498  0.2772  0.2586
   42CHL1   C19 3074   1.226   6.013   7.246  0.5042 -0.8610  0.4630
   42CHL1  H19A 3075   1.291   5.924   7.248  1.3268 -0.2759 -0.0374
   42CHL1  H19B 3076   1.222   6.037   7.138 -2.7766 -2.3747  0.1889
   42CHL1  H19C 3077   1.256   6.104   7.302  0.3787 -1.4803  1.5565
   42CHL1    C1 3078   1.040   5.837   7.198 -0.4108  0.6122  0.7304
   42CHL1   H1A 3079   1.112   5.753   7.207 -0.8526 -0.0711 -1.6892
   42CHL1   H1B 3080   0.940   5.801   7.227 -1.1600  0.0238 -2.3579
   42CHL1    C2 3081   1.021   5.861   7.048  0.0434  0.2252  0.7786
   42CHL1   H2A 3082   0.970   5.771   7.007 -2.6827  1.0715  2.1572
   42CHL1   H2B 3083   1.119   5.880   6.999 -0.0155 -1.6963 -0.1127
   42CHL1   C20 3084   1.226   5.817   7.949 -0.6359 -0.3044 -0.5271
   42CHL1   H20 3085   1.329   5.824   7.909 -0.3847 -1.4113 -0.1152
   42CHL1   C21 3086   1.162   5.677   7.941 -0.3413  0.2649  0.4545
   42CHL1  H21A 3087   1.163   5.645   7.834  1.6789  1.4061  0.1053
   42CHL1  H21B 3088   1.052   5.681   7.958 -0.2488 -0.0583  1.1326
   42CHL1  H21C 3089   1.210   5.594   7.997 -0.9018 -1.1763 -1.1257
   42CHL1   C22 3090   1.244   5.877   8.099 -0.0098  0.6227 -0.0723
   42CHL1  H22A 3091   1.276   5.982   8.111 -1.2961  0.8338  1.7025
   42CHL1  H22B 3092   1.145   5.866   8.148  0.2582  1.8285  0.7539
   42CHL1   C23 3093   1.346   5.798   8.178  0.1411 -0.3500  0.0088
   42CHL1  H23A 3094   1.321   5.689   8.176  0.7247 -0.4818 -0.5389
   42CHL1  H23B 3095   1.440   5.809   8.120  0.3967 -0.1030  0.4700
   42CHL1   C24 3096   1.366   5.850   8.319  0.2306 -0.6004  0.3846
   42CHL1  H24A 3097   1.371   5.961   8.316 -0.8921 -0.5744 -0.6639
   42CHL1  H24B 3098   1.283   5.815   8.385 -0.5894 -1.9862 -1.3394
   42CHL1   C25 3099   1.501   5.806   8.380  0.3159  0.3066 -0.1858
   42CHL1   H25 3100   1.577   5.838   8.305  0.5647  3.2366  1.2445
   42CHL1   C26 3101   1.530   5.874   8.510 -0.4421 -0.5532 -0.3857
   42CHL1  H26A 3102   1.444   5.860   8.579 -1.2970 -1.6898 -1.6604
   42CHL1  H26B 3103   1.623   5.837   8.559  0.6974  0.1311 -1.9928
   42CHL1  H26C 3104   1.544   5.984   8.507 -0.9376 -0.5566 -4.0952
   42CHL1   C27 3105   1.506   5.656   8.393  0.3258  0.0651  0.6452
   42CHL1  H27A 3106   1.440   5.638   8.480 -1.5708 -0.6221 -0.8992
   42CHL1  H27B 3107   1.606   5.613   8.416  1.5432  2.0881 -0.7543
   42CHL1  H27C 3108   1.467   5.589   8.313  2.0898  0.9898 -1.0432
   43CHL1    C3 3109   1.026   2.870   7.016  0.0123  0.0319  0.1211
   43CHL1    H3 3110   0.918   2.848   7.025  0.4137 -2.0661  0.0814
   43CHL1    O3 3111   1.074   2.863   6.882  0.5245 -0.5154  0.7162
   43CHL1   H3' 3112   1.170   2.870   6.885  0.4560  1.1424 -0.1424
   43CHL1    C4 3113   1.056   3.012   7.066  0.2515 -0.2133  0.0141
   43CHL1   H4A 3114   1.159   3.049   7.044 -0.2949  0.9502 -0.6639
   43CHL1   H4B 3115   0.989   3.066   6.995 -0.3304 -0.6275  0.2415
   43CHL1    C5 3116   1.018   3.031   7.209  0.1160 -0.3417 -0.0390
   43CHL1    C6 3117   0.926   3.120   7.254 -0.2140 -0.2113  0.1222
   43CHL1    H6 3118   0.884   3.187   7.178 -1.4107 -2.4089 -1.2262
   43CHL1    C7 3119   0.879   3.131   7.397  0.2007 -0.2921  0.5239
   43CHL1   H7A 3120   0.908   3.232   7.434  0.4728 -0.8820  1.9339
   43CHL1   H7B 3121   0.770   3.117   7.414 -0.1472  0.4883 -0.9761
   43CHL1    C8 3122   0.973   3.055   7.497  0.0261 -0.1485 -0.4438
   43CHL1    H8 3123   1.070   3.109   7.506  0.7106 -1.5701  0.9929
   43CHL1   C14 3124   0.908   3.057   7.632  0.6021  0.2996 -0.0212
   43CHL1   H14 3125   0.816   2.996   7.617  1.6609 -1.6935  1.4174
   43CHL1   C15 3126   0.841   3.190   7.682  0.4878 -0.3451  0.5614
   43CHL1  H15A 3127   0.899   3.282   7.660  0.4060 -0.1590  1.1065
   43CHL1  H15B 3128   0.737   3.197   7.645  0.8220 -0.6488 -0.4355
   43CHL1   C16 3129   0.839   3.170   7.836  0.3879 -0.5090 -0.7493
   43CHL1  H16A 3130   0.911   3.244   7.876 -1.9338  1.8349 -0.7174
   43CHL1  H16B 3131   0.741   3.192   7.884  0.4393  0.3562 -1.0243
   43CHL1   C17 3132   0.894   3.026   7.865 -0.0449 -0.0916  0.0191
   43CHL1   H17 3133   0.810   2.958   7.839 -1.5773  1.0512  1.8427
   43CHL1   C13 3134   0.991   2.994   7.742  0.1326  0.1899  0.3523
   43CHL1   C18 3135   1.121   3.080   7.756  0.0043  0.3850  0.6082
   43CHL1  H18A 3136   1.096   3.187   7.738 -0.5133  0.2023  0.2436
   43CHL1  H18B 3137   1.156   3.065   7.861 -1.4835 -0.9881  0.9288
   43CHL1  H18C 3138   1.197   3.037   7.687  1.1794  1.1434  1.3971
   43CHL1   C12 3139   1.027   2.850   7.708  0.3829 -0.7029 -0.5846
   43CHL1  H12A 3140   1.107   2.802   7.767  2.3848  0.3813 -2.3168
   43CHL1  H12B 3141   0.935   2.789   7.718  0.0307 -0.1044 -0.1206
   43CHL1   C11 3142   1.071   2.828   7.559  0.3833  0.4894  0.0775
   43CHL1  H11A 3143   1.181   2.842   7.556  0.6352 -1.2892  0.4957
   43CHL1  H11B 3144   1.061   2.719   7.537  2.3522  0.1575  0.6763
   43CHL1    C9 3145   1.005   2.920   7.449  0.5244  0.2627  0.2325
   43CHL1    H9 3146   0.910   2.868   7.423 -0.5495  2.4966 -0.4357
   43CHL1   C10 3147   1.075   2.923   7.311  0.4649  0.1873 -0.5539
   43CHL1   C19 3148   1.231   2.957   7.325  0.3707  0.3533  0.0317
   43CHL1  H19A 3149   1.275   2.980   7.226  2.4143 -2.2346  0.2714
   43CHL1  H19B 3150   1.243   3.052   7.382 -0.2968 -0.1253  0.9856
   43CHL1  H19C 3151   1.275   2.876   7.388 -2.1033 -1.7138 -0.8227
   43CHL1    C1 3152   1.070   2.779   7.256  0.3519  0.2432  0.2693
   43CHL1   H1A 3153   1.137   2.709   7.310 -1.0716 -1.2668  0.1001
   43CHL1   H1B 3154   0.963   2.750   7.260  0.5546 -0.5398  0.1749
   43CHL1    C2 3155   1.105   2.765   7.104  0.5443 -0.1546  0.8645
   43CHL1   H2A 3156   1.077   2.660   7.078  0.8735 -0.2299  0.8102
   43CHL1   H2B 3157   1.214   2.778   7.090  0.1052  0.5296 -2.3447
   43CHL1   C20 3158   0.939   2.992   8.010 -0.5929 -0.0249  0.0224
   43CHL1   H20 3159   1.020   3.063   8.036 -1.0984  0.5726 -0.0151
   43CHL1   C21 3160   0.979   2.844   8.013 -0.1922  0.8958 -0.2616
   43CHL1  H21A 3161   0.981   2.808   8.118 -2.2927  0.2949 -0.4069
   43CHL1  H21B 3162   1.085   2.834   7.981 -0.3903  1.3086 -1.0740
   43CHL1  H21C 3163   0.908   2.782   7.955 -1.6023  2.4933 -0.2939
   43CHL1   C22 3164   0.828   3.028   8.117 -0.2949  0.4248 -0.0011
   43CHL1  H22A 3165   0.810   3.138   8.117 -1.2944  0.2670 -1.1095
   43CHL1  H22B 3166   0.729   2.992   8.082 -0.8696  0.8947  1.1130
   43CHL1   C23 3167   0.862   3.001   8.265  0.9138  0.4756 -0.6144
   43CHL1  H23A 3168   0.780   3.043   8.326  0.0501  2.0974 -2.8379
   43CHL1  H23B 3169   0.880   2.891   8.268 -2.1441 -0.0271  2.5506
   43CHL1   C24 3170   0.989   3.069   8.318  0.6493  0.4918  0.4100
   43CHL1  H24A 3171   1.001   3.029   8.421 -0.7647 -0.0572  0.3747
   43CHL1  H24B 3172   1.077   3.043   8.257  1.4903  0.8467  1.4426
   43CHL1   C25 3173   0.985   3.224   8.327 -0.6433  0.8209 -0.2403
   43CHL1   H25 3174   0.966   3.268   8.227  1.1173  1.7394 -0.1914
   43CHL1   C26 3175   0.868   3.273   8.415  0.2937  0.0243 -0.4718
   43CHL1  H26A 3176   0.878   3.382   8.431  2.8147 -0.4157  1.1521
   43CHL1  H26B 3177   0.767   3.242   8.381  0.3011 -1.9425  1.1890
   43CHL1  H26C 3178   0.871   3.228   8.517  0.6416 -3.0158 -1.7683
   43CHL1   C27 3179   1.120   3.283   8.385  0.2660 -0.4351  0.0306
   43CHL1  H27A 3180   1.129   3.245   8.489 -0.7394 -2.0286 -0.4461
   43CHL1  H27B 3181   1.211   3.249   8.331  0.5371 -0.2507  0.3686
   43CHL1  H27C 3182   1.116   3.394   8.395  1.2840 -0.3038 -0.8722
   44CHL1    C3 3183   0.991   1.562   6.668 -0.3801 -0.1638 -0.0970
   44CHL1    H3 3184   0.897   1.614   6.694  0.3554  0.1046  2.1593
   44CHL1    O3 3185   0.991   1.529   6.531  0.1548  0.1185 -0.2140
   44CHL1   H3' 3186   0.937   1.451   6.521  0.6190 -0.2909  0.4670
   44CHL1    C4 3187   1.100   1.663   6.695 -0.6830 -0.2605 -0.1557
   44CHL1   H4A 3188   1.201   1.622   6.677 -0.5631  1.2447 -3.3029
   44CHL1   H4B 3189   1.064   1.750   6.636  3.0060  1.3329 -0.1716
   44CHL1    C5 3190   1.099   1.704   6.835  0.4400  1.0010 -0.2281
   44CHL1    C6 3191   1.068   1.828   6.868 -0.6277 -1.0018 -0.2785
   44CHL1    H6 3192   1.052   1.899   6.785 -0.1412  0.0417  0.4958
   44CHL1    C7 3193   1.050   1.876   7.010  0.2057  0.1558 -0.4176
   44CHL1   H7A 3194   1.101   1.975   7.011  1.6789 -0.5823 -1.0399
   44CHL1   H7B 3195   0.941   1.888   7.031  0.6920  0.1263  2.1904
   44CHL1    C8 3196   1.112   1.776   7.107 -0.3235 -0.9635 -0.0278
   44CHL1    H8 3197   1.222   1.790   7.110 -0.5154  0.5597  0.5385
   44CHL1   C14 3198   1.061   1.806   7.250  0.4803 -0.4185  0.4828
   44CHL1   H14 3199   0.951   1.792   7.247  0.5536 -0.7100 -2.1184
   44CHL1   C15 3200   1.071   1.957   7.291 -0.2290  0.0947  0.1866
   44CHL1  H15A 3201   1.169   1.997   7.259  0.9790 -0.1288  3.4172
   44CHL1  H15B 3202   0.986   2.014   7.248 -0.7748  0.2479  1.4510
   44CHL1   C16 3203   1.058   1.957   7.442  0.3146  0.4276 -0.2846
   44CHL1  H16A 3204   1.151   2.002   7.482  0.6383 -1.8380  1.6233
   44CHL1  H16B 3205   0.971   2.018   7.476 -1.4007 -2.7407  1.2465
   44CHL1   C17 3206   1.048   1.806   7.474  0.1521  0.5698  0.2470
   44CHL1   H17 3207   0.941   1.778   7.467  0.2029  0.3113  0.4781
   44CHL1   C13 3208   1.119   1.724   7.370 -0.2493  1.0473  0.1640
   44CHL1   C18 3209   1.273   1.750   7.392  0.5756  0.4179 -0.1809
   44CHL1  H18A 3210   1.326   1.750   7.294  0.2803 -2.1446 -0.3642
   44CHL1  H18B 3211   1.291   1.849   7.440  1.0325  1.2638 -2.0506
   44CHL1  H18C 3212   1.303   1.674   7.468  0.1009  1.5376  1.1520
   44CHL1   C12 3213   1.087   1.573   7.340 -0.4432  0.5136 -0.1934
   44CHL1  H12A 3214   1.137   1.507   7.414  1.1952  0.4340 -1.3362
   44CHL1  H12B 3215   0.977   1.560   7.348 -0.2174 -0.8176  0.8817
   44CHL1   C11 3216   1.128   1.538   7.196  0.7148  0.3902  0.4860
   44CHL1  H11A 3217   1.238   1.523   7.188  0.2411 -1.9751 -2.3134
   44CHL1  H11B 3218   1.094   1.434   7.175  1.0419  0.6075 -1.1611
   44CHL1    C9 3219   1.076   1.632   7.083  0.1228 -0.3624  0.6722
   44CHL1    H9 3220   0.965   1.631   7.085  0.0710 -0.4400 -1.4698
   44CHL1   C10 3221   1.110   1.588   6.939  0.1608  0.1944 -0.3568
   44CHL1   C19 3222   1.254   1.537   6.932 -0.1659 -0.4597  0.4864
   44CHL1  H19A 3223   1.282   1.503   6.830  0.3844 -1.9539  1.1187
   44CHL1  H19B 3224   1.323   1.614   6.972  1.2896 -0.6913 -1.4790
   44CHL1  H19C 3225   1.272   1.444   6.990  1.2702 -0.4531  0.0693
   44CHL1    C1 3226   1.009   1.478   6.899  0.2750 -0.1100 -0.4359
   44CHL1   H1A 3227   1.028   1.388   6.961  0.6401 -1.8939 -3.0389
   44CHL1   H1B 3228   0.907   1.515   6.920  0.3920 -0.1505  0.2070
   44CHL1    C2 3229   1.019   1.441   6.749 -0.3709  0.1703  0.1411
   44CHL1   H2A 3230   0.951   1.360   6.715  0.9054 -1.6138  1.7105
   44CHL1   H2B 3231   1.126   1.412   6.742 -0.9810 -2.9066  2.1556
   44CHL1   C20 3232   1.083   1.778   7.618 -0.2048 -0.1733  0.1585
   44CHL1   H20 3233   1.190   1.797   7.640 -0.7087  1.5931  1.2354
   44CHL1   C21 3234   1.064   1.623   7.642  0.4582  0.2405 -0.8368
   44CHL1  H21A 3235   0.982   1.588   7.577  0.8065  2.1804 -2.3687
   44CHL1  H21B 3236   1.058   1.610   7.752  0.8181 -0.2042 -0.8678
   44CHL1  H21C 3237   1.149   1.554   7.621  0.5309  0.3338 -0.8516
   44CHL1   C22 3238   0.997   1.859   7.713 -0.1803  0.3511  0.0896
   44CHL1  H22A 3239   1.034   1.837   7.816 -1.3193  0.0599  0.4399
   44CHL1  H22B 3240   1.023   1.965   7.694  1.9311 -0.5226 -2.2761
   44CHL1   C23 3241   0.852   1.833   7.720  0.4564  0.0014  0.2360
   44CHL1  H23A 3242   0.814   1.859   7.619 -0.8592  1.2008  1.0120
   44CHL1  H23B 3243   0.824   1.726   7.723 -1.5541  0.4986  0.0271
   44CHL1   C24 3244   0.776   1.913   7.823 -0.1798 -0.0124 -0.1369
   44CHL1  H24A 3245   0.820   1.905   7.924 -1.0833 -1.4610  0.1630
   44CHL1  H24B 3246   0.774   2.021   7.793 -2.9929  0.1735  0.5412
   44CHL1   C25 3247   0.631   1.867   7.847  0.1927 -0.2160 -0.4780
   44CHL1   H25 3248   0.644   1.766   7.893  1.5361 -0.3652 -1.1692
   44CHL1   C26 3249   0.556   1.957   7.948  0.0210  0.4481  0.4885
   44CHL1  H26A 3250   0.591   1.954   8.053 -2.8790  1.3591  1.5337
   44CHL1  H26B 3251   0.561   2.062   7.911 -1.6349  0.1026 -0.7852
   44CHL1  H26C 3252   0.452   1.925   7.970  0.7067 -1.5942  0.7902
   44CHL1   C27 3253   0.549   1.852   7.724 -0.7055 -1.1442 -0.1545
   44CHL1  H27A 3254   0.544   1.957   7.687  1.0513 -1.0978 -0.3220
   44CHL1  H27B 3255   0.604   1.785   7.655 -0.4153  0.2842 -1.3319
   44CHL1  H27C 3256   0.447   1.816   7.746 -0.2308 -1.1194  2.3095
   45CHL1    C3 3257   1.907   6.490   6.774 -0.2673  0.1924  1.1101
   45CHL1    H3 3258   1.874   6.385   6.782  1.6182 -0.5088  0.0329
   45CHL1    O3 3259   1.897   6.523   6.638 -0.1811  0.0146  0.2206
   45CHL1   H3' 3260   1.832   6.461   6.604  0.2207  0.3125 -1.1538
   45CHL1    C4 3261   1.813   6.581   6.854  0.0227 -0.7675 -0.4876
   45CHL1   H4A 3262   1.830   6.689   6.839  0.8074 -0.8863 -0.4616
   45CHL1   H4B 3263   1.709   6.572   6.816  0.1433 -2.0447 -0.5485
   45CHL1    C5 3264   1.810   6.546   6.997  0.3222  0.0420  0.1063
   45CHL1    C6 3265   1.699   6.507   7.061 -0.2025  0.4457  0.9246
   45CHL1    H6 3266   1.603   6.505   7.007  0.1892 -0.1518  0.2431
   45CHL1    C7 3267   1.699   6.482   7.213 -0.1089  0.1637  0.1481
   45CHL1   H7A 3268   1.601   6.519   7.250  0.0575  0.2718  0.4820
   45CHL1   H7B 3269   1.698   6.371   7.223 -1.6981  0.1650  0.1554
   45CHL1    C8 3270   1.829   6.546   7.282  0.4149 -0.4103 -0.3731
   45CHL1    H8 3271   1.812   6.656   7.277  0.0897 -0.3860  0.9680
   45CHL1   C14 3272   1.845   6.497   7.426 -0.8030 -0.1822 -0.2818
   45CHL1   H14 3273   1.877   6.392   7.411  0.2982 -0.3274  2.7850
   45CHL1   C15 3274   1.726   6.513   7.523 -0.0143  0.0968 -0.5727
   45CHL1  H15A 3275   1.678   6.611   7.502 -1.5232 -0.2958  0.9149
   45CHL1  H15B 3276   1.655   6.429   7.507 -0.4414 -0.0241  1.8554
   45CHL1   C16 3277   1.785   6.510   7.666 -0.8789  0.4084 -0.0562
   45CHL1  H16A 3278   1.758   6.606   7.714 -1.7890 -0.2500  0.7629
   45CHL1  H16B 3279   1.747   6.422   7.721 -0.5827  0.5394  0.3612
   45CHL1   C17 3280   1.944   6.503   7.645 -0.3406  0.1948 -1.0765
   45CHL1   H17 3281   1.962   6.393   7.640  2.6350  0.5995 -0.3228
   45CHL1   C13 3282   1.957   6.561   7.506 -0.4876 -0.6382 -0.4797
   45CHL1   C18 3283   1.936   6.711   7.521 -0.4359 -0.2202  0.1770
   45CHL1  H18A 3284   2.022   6.752   7.579 -0.2906  0.2910 -0.3997
   45CHL1  H18B 3285   1.935   6.769   7.427  0.3267 -0.1722  0.1942
   45CHL1  H18C 3286   1.843   6.755   7.564 -1.7149 -0.0240 -2.7293
   45CHL1   C12 3287   2.091   6.532   7.429 -0.0487  0.2616  0.0830
   45CHL1  H12A 3288   2.173   6.586   7.480  0.8598  0.3195 -1.4225
   45CHL1  H12B 3289   2.106   6.422   7.442 -0.7915  0.0983 -0.3972
   45CHL1   C11 3290   2.085   6.558   7.280 -0.1459  0.6433  0.3075
   45CHL1  H11A 3291   2.085   6.669   7.276 -0.6470  0.5546 -2.9818
   45CHL1  H11B 3292   2.171   6.510   7.229  0.7299  2.6740 -0.1805
   45CHL1    C9 3293   1.958   6.513   7.201 -0.0604 -0.3343  0.3684
   45CHL1    H9 3294   1.965   6.402   7.191 -1.2928 -0.3515 -0.3492
   45CHL1   C10 3295   1.947   6.563   7.056  0.1009  0.2567 -0.0458
   45CHL1   C19 3296   1.974   6.717   7.054 -0.8314 -0.1522 -0.2832
   45CHL1  H19A 3297   2.079   6.731   7.087  0.3804 -0.6190 -3.7334
   45CHL1  H19B 3298   1.966   6.763   6.953 -0.6435 -1.4739 -0.9088
   45CHL1  H19C 3299   1.906   6.763   7.129  0.3472 -1.0184  1.3655
   45CHL1    C1 3300   2.061   6.495   6.973  0.7406  0.0204 -0.1714
   45CHL1   H1A 3301   2.162   6.530   7.004  1.4542 -1.2819 -0.9930
   45CHL1   H1B 3302   2.056   6.385   6.986 -0.3080  0.3947  2.9184
   45CHL1    C2 3303   2.044   6.512   6.817 -0.4004  0.1341  0.4678
   45CHL1   H2A 3304   2.116   6.442   6.770 -1.1114 -0.0388 -0.3677
   45CHL1   H2B 3305   2.078   6.615   6.795  0.0270 -0.3007 -0.9375
   45CHL1   C20 3306   2.025   6.551   7.770  0.2610  0.0782 -0.1828
   45CHL1   H20 3307   2.032   6.662   7.771  0.2265  0.0818  2.5070
   45CHL1   C21 3308   2.167   6.488   7.762 -0.1004  0.1877 -0.2551
   45CHL1  H21A 3309   2.152   6.378   7.764 -1.0500  0.3188  3.4497
   45CHL1  H21B 3310   2.226   6.529   7.847 -0.5303 -1.0282  0.6378
   45CHL1  H21C 3311   2.225   6.521   7.673  0.0516  0.0447 -0.2090
   45CHL1   C22 3312   1.955   6.518   7.904 -0.3356 -0.5252  0.0294
   45CHL1  H22A 3313   1.848   6.548   7.905  0.0923  1.1134 -1.3544
   45CHL1  H22B 3314   1.944   6.409   7.921 -3.2535 -0.0232  1.7522
   45CHL1   C23 3315   2.014   6.592   8.025 -0.4960 -0.5057  0.0693
   45CHL1  H23A 3316   2.118   6.559   8.043 -0.8457 -2.2028 -0.8013
   45CHL1  H23B 3317   2.012   6.698   7.991  1.2777 -0.5745 -0.2679
   45CHL1   C24 3318   1.915   6.585   8.153 -0.1061 -0.4172  0.2478
   45CHL1  H24A 3319   1.828   6.652   8.132 -0.5129 -2.0460 -3.6627
   45CHL1  H24B 3320   1.897   6.477   8.171  2.8591 -0.7883  1.1712
   45CHL1   C25 3321   1.983   6.645   8.277  0.1920  0.1566  0.1070
   45CHL1   H25 3322   1.909   6.652   8.360  1.0950  0.8260  0.8699
   45CHL1   C26 3323   2.088   6.549   8.339 -0.3066 -0.5053 -0.1092
   45CHL1  H26A 3324   2.144   6.604   8.417 -1.5841  0.0462  0.4339
   45CHL1  H26B 3325   2.049   6.452   8.378 -1.3052  0.8776  2.4058
   45CHL1  H26C 3326   2.163   6.527   8.260  0.0196 -1.2783  0.4066
   45CHL1   C27 3327   2.044   6.782   8.244  0.0956 -0.4202 -0.1420
   45CHL1  H27A 3328   2.144   6.760   8.199  1.6645 -1.8993  3.8288
   45CHL1  H27B 3329   1.981   6.852   8.186  0.7582 -0.3036 -0.7270
   45CHL1  H27C 3330   2.061   6.840   8.338  1.5390 -1.9715  0.5924
   46CHL1    C3 3331   2.270   1.352   6.989 -1.3164  0.3523  0.5388
   46CHL1    H3 3332   2.334   1.421   7.048  0.3309 -0.5795 -0.1549
   46CHL1    O3 3333   2.315   1.343   6.853 -0.0945 -0.4568 -0.5465
   46CHL1   H3' 3334   2.390   1.283   6.849  1.2421  0.9168  2.0371
   46CHL1    C4 3335   2.268   1.213   7.044 -0.3771 -0.0733 -0.1167
   46CHL1   H4A 3336   2.207   1.146   6.980 -0.2968 -1.9868  1.7768
   46CHL1   H4B 3337   2.367   1.167   7.027  0.2859  1.0076  0.7523
   46CHL1    C5 3338   2.206   1.206   7.180 -0.1218 -0.1693 -0.1969
   46CHL1    C6 3339   2.275   1.150   7.278 -0.1500 -0.3444  1.3603
   46CHL1    H6 3340   2.371   1.104   7.250  0.6434  1.3686  1.2375
   46CHL1    C7 3341   2.223   1.129   7.417  0.2773 -0.2637  0.4728
   46CHL1   H7A 3342   2.251   1.035   7.468  0.6869  1.2029  3.0462
   46CHL1   H7B 3343   2.263   1.213   7.478  0.5908  0.3799 -0.5900
   46CHL1    C8 3344   2.069   1.153   7.423 -0.5903 -0.3127  0.2843
   46CHL1    H8 3345   2.017   1.060   7.391  0.3197 -0.6811 -0.1452
   46CHL1   C14 3346   2.038   1.179   7.566 -0.2113  0.4356 -0.3091
   46CHL1   H14 3347   2.091   1.276   7.584 -0.5888  0.4037  0.9890
   46CHL1   C15 3348   2.100   1.078   7.671  0.9577 -0.0942 -0.9207
   46CHL1  H15A 3349   2.074   0.971   7.654  0.3894  0.0483 -0.9342
   46CHL1  H15B 3350   2.210   1.080   7.687  0.7333  0.6621  0.5254
   46CHL1   C16 3351   2.032   1.119   7.800  0.0164 -0.6354 -0.1706
   46CHL1  H16A 3352   1.990   1.029   7.849  1.2602 -1.4169 -0.5091
   46CHL1  H16B 3353   2.102   1.167   7.872 -0.3814 -2.1634  1.2629
   46CHL1   C17 3354   1.910   1.209   7.759 -0.2610  0.4382 -0.5295
   46CHL1   H17 3355   1.948   1.311   7.777 -1.7007  1.3286 -2.3499
   46CHL1   C13 3356   1.893   1.195   7.608 -0.1798 -0.1530 -0.1536
   46CHL1   C18 3357   1.819   1.066   7.578 -0.3920  0.2901 -0.0572
   46CHL1  H18A 3358   1.846   0.981   7.643 -0.0251 -0.1445 -0.7785
   46CHL1  H18B 3359   1.711   1.079   7.600 -0.3707  0.0092  0.2058
   46CHL1  H18C 3360   1.830   1.044   7.469  0.5576 -0.0532  0.1040
   46CHL1   C12 3361   1.835   1.317   7.530 -0.0842 -0.4035 -0.3030
   46CHL1  H12A 3362   1.725   1.303   7.539 -0.2548  0.6642 -0.6842
   46CHL1  H12B 3363   1.871   1.411   7.579 -1.3601 -0.8550  1.5474
   46CHL1   C11 3364   1.877   1.322   7.379  0.2929  0.2362 -0.2949
   46CHL1  H11A 3365   1.815   1.244   7.330  3.0785 -1.2672 -1.5469
   46CHL1  H11B 3366   1.873   1.421   7.329  0.8338  0.3165 -0.1840
   46CHL1    C9 3367   2.028   1.282   7.346 -0.5883  0.5447  0.0707
   46CHL1    H9 3368   2.080   1.372   7.384  0.1125  0.7893 -1.4136
   46CHL1   C10 3369   2.061   1.267   7.194  0.6819 -0.3150 -0.5493
   46CHL1   C19 3370   1.959   1.171   7.132  0.2316 -0.2748  0.2629
   46CHL1  H19A 3371   1.945   1.082   7.197 -3.4306  1.7547  2.4064
   46CHL1  H19B 3372   1.858   1.216   7.115  0.4921  0.7056  1.2311
   46CHL1  H19C 3373   1.990   1.125   7.036  2.1778 -2.0303  1.6980
   46CHL1    C1 3374   2.071   1.408   7.130 -0.0691  0.2245  0.2899
   46CHL1   H1A 3375   1.966   1.442   7.123 -0.6580 -1.2867  1.3792
   46CHL1   H1B 3376   2.123   1.481   7.196 -2.2439  0.2574  1.9953
   46CHL1    C2 3377   2.131   1.418   6.994 -0.8514 -0.1218  0.5795
   46CHL1   H2A 3378   2.129   1.519   6.948  2.4905 -0.8156 -1.3078
   46CHL1   H2B 3379   2.066   1.360   6.925 -1.8178 -0.1714  1.5216
   46CHL1   C20 3380   1.785   1.195   7.843 -0.6307 -0.9951 -0.2500
   46CHL1   H20 3381   1.759   1.087   7.843  2.6511 -1.8406 -0.8470
   46CHL1   C21 3382   1.666   1.268   7.788  0.3689 -0.4573 -0.0410
   46CHL1  H21A 3383   1.618   1.226   7.697 -1.9726 -0.9095  1.3689
   46CHL1  H21B 3384   1.697   1.371   7.759 -2.0565  0.2117 -0.3554
   46CHL1  H21C 3385   1.580   1.279   7.858 -1.0221  0.8799 -1.9136
   46CHL1   C22 3386   1.810   1.242   7.991  0.5097 -0.3032  1.2227
   46CHL1  H22A 3387   1.915   1.225   8.021  1.0544 -2.5714 -1.7373
   46CHL1  H22B 3388   1.790   1.352   7.996 -1.1736 -0.3672 -2.2519
   46CHL1   C23 3389   1.717   1.184   8.095  0.1782  0.2693  0.0210
   46CHL1  H23A 3390   1.613   1.220   8.079  0.7370  2.2140  0.5469
   46CHL1  H23B 3391   1.722   1.073   8.091 -0.0372  0.1861  1.6197
   46CHL1   C24 3392   1.738   1.225   8.242  0.2390 -0.1525  0.2371
   46CHL1  H24A 3393   1.848   1.232   8.258  0.0431  0.1196  1.4905
   46CHL1  H24B 3394   1.689   1.316   8.283 -0.5623 -0.7088  0.5304
   46CHL1   C25 3395   1.689   1.115   8.351  0.0858  0.3222  0.3932
   46CHL1   H25 3396   1.724   1.014   8.322  1.5249  0.6449  0.9686
   46CHL1   C26 3397   1.743   1.141   8.496  0.4106 -0.2128  0.1258
   46CHL1  H26A 3398   1.849   1.173   8.506 -0.6205  3.8093 -0.6817
   46CHL1  H26B 3399   1.685   1.217   8.553  1.3435  0.7827 -0.2449
   46CHL1  H26C 3400   1.739   1.045   8.552 -0.3164  0.3428  1.0456
   46CHL1   C27 3401   1.535   1.102   8.353  0.3251  0.3114  1.0607
   46CHL1  H27A 3402   1.494   1.026   8.423 -0.6155  0.1632  0.3628
   46CHL1  H27B 3403   1.495   1.202   8.383 -1.7135 -0.2586  0.2901
   46CHL1  H27C 3404   1.489   1.071   8.257  2.1905  0.2025  0.1812
   47CHL1    C3 3405   1.289   1.054   6.648  0.4621 -0.5109 -0.7183
   47CHL1    H3 3406   1.263   1.161   6.632 -0.1419 -0.4485  0.6089
   47CHL1    O3 3407   1.311   0.997   6.521  0.5253  0.0777  0.2404
   47CHL1   H3' 3408   1.349   0.911   6.538  0.0911  0.0542  1.1109
   47CHL1    C4 3409   1.419   1.051   6.732 -0.7470  0.8194 -0.3799
   47CHL1   H4A 3410   1.449   0.944   6.730 -0.9177  0.7660  0.1196
   47CHL1   H4B 3411   1.497   1.104   6.673  0.5714  1.4356  1.8728
   47CHL1    C5 3412   1.414   1.099   6.876 -0.5049 -0.0530  0.2397
   47CHL1    C6 3413   1.484   1.202   6.928 -0.0275  0.2661  0.2437
   47CHL1    H6 3414   1.561   1.245   6.861 -0.1662 -0.1498 -0.1837
   47CHL1    C7 3415   1.486   1.250   7.073  0.0978 -0.5117  0.6549
   47CHL1   H7A 3416   1.585   1.239   7.121  1.1202  1.9984 -0.8038
   47CHL1   H7B 3417   1.455   1.357   7.083  1.8035  0.1266 -0.6204
   47CHL1    C8 3418   1.393   1.162   7.157  0.3711 -0.0657  0.1473
   47CHL1    H8 3419   1.440   1.067   7.190  0.6250  0.5656  1.6267
   47CHL1   C14 3420   1.353   1.233   7.292 -0.8324 -0.1990 -0.3231
   47CHL1   H14 3421   1.296   1.324   7.265  0.6890  1.0570  0.5726
   47CHL1   C15 3422   1.456   1.300   7.384  0.2770 -0.4823  0.7090
   47CHL1  H15A 3423   1.552   1.244   7.377  1.6301  2.1102 -2.8145
   47CHL1  H15B 3424   1.486   1.401   7.349  1.1849 -1.3385 -1.0270
   47CHL1   C16 3425   1.392   1.303   7.523  0.9072  0.3923 -0.3280
   47CHL1  H16A 3426   1.458   1.243   7.589  2.3800  2.6298  0.2808
   47CHL1  H16B 3427   1.372   1.396   7.581 -0.5361 -1.6300  2.5448
   47CHL1   C17 3428   1.251   1.237   7.518  0.4831 -0.0211  0.1750
   47CHL1   H17 3429   1.180   1.315   7.481  0.9295 -0.0379 -0.7305
   47CHL1   C13 3430   1.258   1.155   7.380  0.1029  0.0401  0.0014
   47CHL1   C18 3431   1.316   1.019   7.417 -0.1162 -0.1094 -0.3534
   47CHL1  H18A 3432   1.248   0.953   7.476 -0.7847 -0.8808 -1.9598
   47CHL1  H18B 3433   1.331   0.961   7.324 -2.3807 -1.1228 -0.1268
   47CHL1  H18C 3434   1.404   1.011   7.484 -1.7691 -1.4519  1.7517
   47CHL1   C12 3435   1.128   1.142   7.303  0.5723 -0.9712 -0.4454
   47CHL1  H12A 3436   1.046   1.087   7.355 -1.1625 -0.5444 -2.6899
   47CHL1  H12B 3437   1.080   1.241   7.288  0.2718 -1.0245  0.1472
   47CHL1   C11 3438   1.150   1.066   7.174  0.6168 -0.7843  0.2684
   47CHL1  H11A 3439   1.164   0.957   7.193 -2.6834 -1.2478  0.3266
   47CHL1  H11B 3440   1.051   1.065   7.124  1.1718 -2.9597 -0.8705
   47CHL1    C9 3441   1.264   1.127   7.079 -0.8024  0.4894  0.4782
   47CHL1    H9 3442   1.224   1.224   7.043  2.3835  1.3015 -1.0599
   47CHL1   C10 3443   1.297   1.039   6.953 -0.3613 -0.8219 -0.1297
   47CHL1   C19 3444   1.335   0.890   6.993 -1.0769  0.0985  0.1378
   47CHL1  H19A 3445   1.347   0.818   6.910  0.2960 -1.8891  2.0165
   47CHL1  H19B 3446   1.421   0.876   7.062 -0.6145 -1.4179 -0.7383
   47CHL1  H19C 3447   1.248   0.847   7.047 -1.3342 -0.4602 -0.7172
   47CHL1    C1 3448   1.164   1.037   6.867 -0.0092  0.2707 -1.0945
   47CHL1   H1A 3449   1.089   0.979   6.925 -0.7725  0.7401 -1.5968
   47CHL1   H1B 3450   1.127   1.141   6.852  0.6617  0.4704 -1.3486
   47CHL1    C2 3451   1.174   0.990   6.725  0.6441  0.9017  0.4369
   47CHL1   H2A 3452   1.073   1.006   6.680 -0.2430  1.0971  2.4323
   47CHL1   H2B 3453   1.204   0.885   6.743 -0.6087  1.0588  3.8028
   47CHL1   C20 3454   1.208   1.165   7.642  0.9425  0.1103  0.8938
   47CHL1   H20 3455   1.277   1.080   7.657 -0.5264 -1.6122 -1.7294
   47CHL1   C21 3456   1.064   1.108   7.625 -0.3925 -0.5772  0.4437
   47CHL1  H21A 3457   1.027   1.067   7.721 -3.1692  0.2088 -0.2713
   47CHL1  H21B 3458   1.063   1.028   7.547  1.0323 -1.5622  1.3996
   47CHL1  H21C 3459   0.995   1.187   7.589 -0.2679 -1.7792 -2.6320
   47CHL1   C22 3460   1.203   1.259   7.765 -0.6744 -0.5278 -0.1572
   47CHL1  H22A 3461   1.294   1.322   7.769 -1.2922  0.3994 -0.6363
   47CHL1  H22B 3462   1.124   1.336   7.751  0.8861  1.4435  1.4578
   47CHL1   C23 3463   1.193   1.199   7.900  0.3586  0.1076  0.4605
   47CHL1  H23A 3464   1.090   1.158   7.901  0.2851  0.1852 -2.0559
   47CHL1  H23B 3465   1.262   1.111   7.901 -0.4837 -0.5563  1.5394
   47CHL1   C24 3466   1.224   1.293   8.014 -0.5896  0.5485  0.0161
   47CHL1  H24A 3467   1.324   1.341   8.002 -0.4363 -0.1811 -1.7809
   47CHL1  H24B 3468   1.147   1.373   8.016  1.7912  2.9999 -1.1381
   47CHL1   C25 3469   1.221   1.222   8.152 -0.3582 -0.0916  0.3520
   47CHL1   H25 3470   1.281   1.129   8.143  0.3425  0.2725  1.2021
   47CHL1   C26 3471   1.286   1.316   8.259  0.5828  0.6355  0.6481
   47CHL1  H26A 3472   1.222   1.406   8.271  1.1143  0.9315  1.2914
   47CHL1  H26B 3473   1.289   1.262   8.357  0.8387  0.9491  0.8145
   47CHL1  H26C 3474   1.390   1.332   8.225  0.5243 -0.5431 -0.1128
   47CHL1   C27 3475   1.080   1.178   8.198  0.3884 -0.2640  0.2376
   47CHL1  H27A 3476   1.050   1.089   8.138 -1.0913 -1.4636  2.6357
   47CHL1  H27B 3477   1.073   1.145   8.304 -1.2436  1.3508  0.6462
   47CHL1  H27C 3478   1.016   1.266   8.176  1.8250  0.0851 -2.6600
   48CHL1    C3 3479   4.771   4.538   6.445  0.4225  0.0201  0.0524
   48CHL1    H3 3480   4.869   4.586   6.426 -0.1171  1.1504  0.0702
   48CHL1    O3 3481   4.713   4.537   6.317 -0.6875 -0.2086  0.2669
   48CHL1   H3' 3482   4.727   4.450   6.278 -2.1380 -0.3835  0.1098
   48CHL1    C4 3483   4.783   4.395   6.499 -0.4222  0.0585 -0.0585
   48CHL1   H4A 3484   4.679   4.356   6.499 -0.9601  1.4339 -1.3788
   48CHL1   H4B 3485   4.847   4.335   6.431  0.0931  0.7107 -0.1427
   48CHL1    C5 3486   4.826   4.388   6.642 -0.6797  0.8758 -0.2907
   48CHL1    C6 3487   4.926   4.306   6.689  0.5099  0.9064  0.2093
   48CHL1    H6 3488   4.983   4.243   6.618  0.9614 -1.0317  2.2337
   48CHL1    C7 3489   4.960   4.312   6.834  0.7938 -0.1226 -0.1882
   48CHL1   H7A 3490   4.981   4.212   6.878  0.9130 -0.3022 -0.6600
   48CHL1   H7B 3491   5.048   4.380   6.846  0.2948  0.4924  0.0285
   48CHL1    C8 3492   4.861   4.378   6.932 -0.0035  0.7183  0.1478
   48CHL1    H8 3493   4.778   4.305   6.944  1.4995 -1.0007  0.3708
   48CHL1   C14 3494   4.928   4.397   7.071 -0.1141 -0.3872 -0.1591
   48CHL1   H14 3495   5.018   4.462   7.059 -0.5138  0.2023  0.0136
   48CHL1   C15 3496   4.978   4.271   7.143 -0.2871 -0.3645 -0.1029
   48CHL1  H15A 3497   4.907   4.190   7.118 -1.7622  1.1064 -0.8368
   48CHL1  H15B 3498   5.080   4.243   7.111 -1.8907 -1.4835 -4.5649
   48CHL1   C16 3499   4.980   4.310   7.292 -0.6134 -0.0418  0.5388
   48CHL1  H16A 3500   4.917   4.242   7.353  0.5617 -2.2298 -0.6437
   48CHL1  H16B 3501   5.086   4.312   7.325 -0.1217 -0.4154 -0.9758
   48CHL1   C17 3502   4.936   4.457   7.297  0.2098  0.0113 -0.0917
   48CHL1   H17 3503   5.017   4.529   7.273  0.8035 -0.3281  0.8631
   48CHL1   C13 3504   4.840   4.468   7.171 -0.1312 -0.4578  0.2912
   48CHL1   C18 3505   4.709   4.392   7.192  0.1194 -0.1049 -0.0061
   48CHL1  H18A 3506   4.629   4.461   7.227  0.4846  0.3214 -0.0137
   48CHL1  H18B 3507   4.671   4.350   7.097 -0.1679 -0.4481  0.2597
   48CHL1  H18C 3508   4.717   4.300   7.254 -0.6049 -0.5605 -0.5876
   48CHL1   C12 3509   4.811   4.610   7.107  0.7500 -0.3358 -0.9332
   48CHL1  H12A 3510   4.749   4.656   7.186 -0.4230 -0.9310 -1.4885
   48CHL1  H12B 3511   4.901   4.673   7.092 -0.8740  2.4740  0.8556
   48CHL1   C11 3512   4.743   4.606   6.972  0.6511  0.0609  0.2454
   48CHL1  H11A 3513   4.639   4.572   6.989  0.3216  0.5049 -0.8758
   48CHL1  H11B 3514   4.737   4.708   6.928  0.2318 -0.5622 -1.1467
   48CHL1    C9 3515   4.815   4.512   6.871 -0.4415  0.1179  0.4605
   48CHL1    H9 3516   4.912   4.564   6.856 -0.3747  0.0093  0.5191
   48CHL1   C10 3517   4.748   4.489   6.733  0.0845 -0.5881  0.1400
   48CHL1   C19 3518   4.595   4.430   6.750 -0.4018  0.7031 -0.4996
   48CHL1  H19A 3519   4.593   4.327   6.790  0.9213  0.2432 -1.5715
   48CHL1  H19B 3520   4.530   4.490   6.817  0.0860  1.1399 -0.4131
   48CHL1  H19C 3521   4.544   4.426   6.652 -0.2101  1.0323 -0.6148
   48CHL1    C1 3522   4.722   4.635   6.673 -0.5663 -0.4330  0.6826
   48CHL1   H1A 3523   4.644   4.697   6.722 -0.6066  0.0709 -0.0184
   48CHL1   H1B 3524   4.821   4.684   6.677  0.2670 -2.1197  1.1990
   48CHL1    C2 3525   4.673   4.628   6.525  0.2940 -0.6238  0.2809
   48CHL1   H2A 3526   4.672   4.731   6.484  3.1440 -0.9544 -0.7085
   48CHL1   H2B 3527   4.569   4.590   6.509  0.6274 -0.1198 -3.5781
   48CHL1   C20 3528   4.880   4.504   7.434  0.1581 -0.5072 -0.3774
   48CHL1   H20 3529   4.769   4.504   7.427  0.1340  0.5951  0.0400
   48CHL1   C21 3530   4.905   4.658   7.442 -0.0463 -0.1596 -0.3312
   48CHL1  H21A 3531   5.014   4.672   7.461 -0.0267  0.2872 -0.7703
   48CHL1  H21B 3532   4.840   4.695   7.525  0.1741 -0.3066 -0.0912
   48CHL1  H21C 3533   4.877   4.706   7.346  1.1516  0.0064 -0.6042
   48CHL1   C22 3534   4.925   4.430   7.565  0.2989 -0.2257  0.2706
   48CHL1  H22A 3535   4.893   4.324   7.555  1.4867 -0.4195 -1.6455
   48CHL1  H22B 3536   5.035   4.428   7.576  0.2404 -0.6041  0.8310
   48CHL1   C23 3537   4.870   4.480   7.701 -0.5189  0.3708  0.2153
   48CHL1  H23A 3538   4.904   4.583   7.723  1.4689  0.1447 -1.6180
   48CHL1  H23B 3539   4.762   4.501   7.682 -0.6719  0.0429  0.7397
   48CHL1   C24 3540   4.889   4.382   7.818 -0.6199 -0.4882  0.1742
   48CHL1  H24A 3541   4.841   4.286   7.790  1.6304 -1.4036 -0.6570
   48CHL1  H24B 3542   4.997   4.360   7.828 -0.6352  0.5886  3.2281
   48CHL1   C25 3543   4.821   4.426   7.950 -0.4925 -0.1711  0.9882
   48CHL1   H25 3544   4.718   4.455   7.919  0.5194  1.0931 -1.2885
   48CHL1   C26 3545   4.801   4.308   8.045  0.2342 -0.4377  1.0791
   48CHL1  H26A 3546   4.729   4.239   7.996  0.5364  0.5151 -0.7677
   48CHL1  H26B 3547   4.905   4.270   8.054  1.6493  2.3894 -2.0091
   48CHL1  H26C 3548   4.768   4.336   8.147  1.0191 -0.5226  1.3615
   48CHL1   C27 3549   4.898   4.532   8.028  0.3224  0.4197  0.1195
   48CHL1  H27A 3550   4.959   4.600   7.965  2.4997 -1.5142  0.0890
   48CHL1  H27B 3551   4.829   4.595   8.089 -2.1077 -0.8759 -1.2359
   48CHL1  H27C 3552   4.969   4.479   8.095 -2.0382  0.4863  2.7401
   49CHL1    C3 3553   3.146   4.876   6.626 -0.0235  0.2927 -0.0967
   49CHL1    H3 3554   3.142   4.765   6.626 -0.2151  0.2869  1.4830
   49CHL1    O3 3555   3.090   4.917   6.506  0.2147 -0.0201  0.6135
   49CHL1   H3' 3556   3.104   5.012   6.518 -1.0993  0.0997  1.2742
   49CHL1    C4 3557   3.064   4.938   6.735  0.4840  0.5407  0.5367
   49CHL1   H4A 3558   3.039   5.046   6.729 -1.5166 -0.0201 -1.7783
   49CHL1   H4B 3559   2.972   4.879   6.713  1.3241 -1.0148  1.1397
   49CHL1    C5 3560   3.123   4.903   6.871  0.3435 -0.3177 -0.0883
   49CHL1    C6 3561   3.047   4.843   6.967 -0.3484  0.2467 -0.3456
   49CHL1    H6 3562   2.945   4.826   6.929 -0.8313  2.3681 -0.0790
   49CHL1    C7 3563   3.098   4.813   7.108 -0.3236  0.2887 -0.9079
   49CHL1   H7A 3564   3.021   4.841   7.183 -1.0028  0.2842 -1.5856
   49CHL1   H7B 3565   3.109   4.702   7.108 -0.8826  0.1761  2.3891
   49CHL1    C8 3566   3.237   4.881   7.144 -0.3764  0.8024 -0.1297
   49CHL1    H8 3567   3.197   4.984   7.157 -0.9143  0.6333 -0.4431
   49CHL1   C14 3568   3.302   4.823   7.265  0.5633 -0.3856  0.0120
   49CHL1   H14 3569   3.326   4.719   7.234 -0.5831 -1.0263  1.2301
   49CHL1   C15 3570   3.209   4.814   7.388  0.0171 -0.0741  0.4980
   49CHL1  H15A 3571   3.166   4.912   7.420  1.8884  0.7859  0.4938
   49CHL1  H15B 3572   3.127   4.740   7.379 -0.6025  0.8505 -1.6193
   49CHL1   C16 3573   3.312   4.785   7.490 -0.3003 -0.1924  0.1370
   49CHL1  H16A 3574   3.291   4.841   7.584 -2.4337 -0.8808  0.0856
   49CHL1  H16B 3575   3.305   4.676   7.514  0.3035 -0.1594  0.4794
   49CHL1   C17 3576   3.459   4.819   7.445  0.2537  0.1299 -0.3177
   49CHL1   H17 3577   3.510   4.723   7.423 -0.2473 -0.5359  1.2955
   49CHL1   C13 3578   3.431   4.887   7.310 -0.2477 -0.2442  0.2435
   49CHL1   C18 3579   3.403   5.036   7.345  0.1923 -0.1791 -0.0961
   49CHL1  H18A 3580   3.496   5.090   7.373  1.2651  0.4169 -4.4243
   49CHL1  H18B 3581   3.359   5.092   7.260  3.0763 -0.1502 -1.6393
   49CHL1  H18C 3582   3.328   5.047   7.426 -0.0854  0.2223 -0.4065
   49CHL1   C12 3583   3.533   4.867   7.193  0.2409 -0.2681 -0.4994
   49CHL1  H12A 3584   3.626   4.923   7.219  0.2355 -0.5914  0.2455
   49CHL1  H12B 3585   3.564   4.763   7.168 -0.9726 -0.7281 -0.1127
   49CHL1   C11 3586   3.479   4.914   7.053  0.2241  0.6262  0.0979
   49CHL1  H11A 3587   3.488   5.024   7.060 -0.5325  0.6765  0.3881
   49CHL1  H11B 3588   3.551   4.888   6.973 -2.6236  1.5671 -2.8652
   49CHL1    C9 3589   3.333   4.868   7.023 -0.3961  0.6610 -0.3392
   49CHL1    H9 3590   3.339   4.758   7.009  0.1833  0.2909  2.5134
   49CHL1   C10 3591   3.272   4.931   6.889  0.1627  0.0810 -0.7325
   49CHL1   C19 3592   3.279   5.087   6.910  0.5351 -0.5042  0.4402
   49CHL1  H19A 3593   3.383   5.116   6.885  1.0871 -1.1880  1.8773
   49CHL1  H19B 3594   3.220   5.143   6.834  1.1087 -0.7184 -0.1707
   49CHL1  H19C 3595   3.250   5.102   7.016  2.1836  2.4924  0.5414
   49CHL1    C1 3596   3.347   4.880   6.764 -0.1398 -0.4412 -0.3374
   49CHL1   H1A 3597   3.457   4.900   6.759 -0.0281 -1.4528 -2.3984
   49CHL1   H1B 3598   3.342   4.769   6.770  0.9738 -0.4485  0.7709
   49CHL1    C2 3599   3.287   4.927   6.631 -0.4673 -0.2166 -0.5860
   49CHL1   H2A 3600   3.341   4.900   6.538 -0.5257  0.8837 -0.9530
   49CHL1   H2B 3601   3.295   5.038   6.632  2.7085 -0.4227  0.5495
   49CHL1   C20 3602   3.544   4.871   7.562  0.6078  0.3138 -0.6655
   49CHL1   H20 3603   3.495   4.962   7.604  1.1912 -1.1375  3.4462
   49CHL1   C21 3604   3.676   4.920   7.503 -0.5905  0.7190  0.5411
   49CHL1  H21A 3605   3.720   4.988   7.578  0.2192  1.3519 -0.5006
   49CHL1  H21B 3606   3.659   4.965   7.403 -0.7130  1.0474  0.7079
   49CHL1  H21C 3607   3.737   4.829   7.485 -1.4286 -0.1553  1.9773
   49CHL1   C22 3608   3.557   4.772   7.682  0.3853 -0.2285 -0.0693
   49CHL1  H22A 3609   3.458   4.730   7.711 -0.3220  1.1121 -0.5147
   49CHL1  H22B 3610   3.624   4.688   7.652  1.1866  0.8611 -1.3825
   49CHL1   C23 3611   3.616   4.838   7.802 -0.8890  0.4702 -0.0792
   49CHL1  H23A 3612   3.710   4.893   7.779  0.2748 -0.5569  2.0014
   49CHL1  H23B 3613   3.539   4.914   7.826 -0.2580  1.0899  0.0186
   49CHL1   C24 3614   3.637   4.734   7.922  0.7049 -0.2671  0.2939
   49CHL1  H24A 3615   3.548   4.670   7.933  1.0230 -0.9879 -1.2109
   49CHL1  H24B 3616   3.719   4.662   7.900 -1.9059 -3.1183 -0.4149
   49CHL1   C25 3617   3.667   4.810   8.056  0.8141 -0.3670 -0.1058
   49CHL1   H25 3618   3.599   4.897   8.054 -0.5662 -1.3678  1.5376
   49CHL1   C26 3619   3.637   4.732   8.186  0.6430  0.0495 -0.1854
   49CHL1  H26A 3620   3.684   4.631   8.190  0.1362 -0.1230  2.6608
   49CHL1  H26B 3621   3.673   4.795   8.270  0.8725  0.2987 -0.4746
   49CHL1  H26C 3622   3.530   4.707   8.205  0.7483 -0.1984  0.1037
   49CHL1   C27 3623   3.814   4.862   8.059  0.7960 -0.5682  0.0657
   49CHL1  H27A 3624   3.871   4.767   8.058  2.0349  0.1691 -0.1320
   49CHL1  H27B 3625   3.834   4.928   7.972 -0.5510  1.1591  1.0240
   49CHL1  H27C 3626   3.836   4.924   8.148 -1.2567 -0.2216  0.3407
   50CHL1    C3 3627   4.490   6.009   6.804  0.6017 -0.4853  0.0942
   50CHL1    H3 3628   4.580   6.070   6.780  0.6652 -0.7328 -0.2871
   50CHL1    O3 3629   4.459   5.948   6.689  0.6721 -0.2928 -0.7990
   50CHL1   H3' 3630   4.405   6.007   6.637  0.3761  0.7314  0.6464
   50CHL1    C4 3631   4.522   5.911   6.918  0.3470  0.3930  0.5530
   50CHL1   H4A 3632   4.442   5.834   6.921 -0.4369  1.1776  0.1604
   50CHL1   H4B 3633   4.613   5.862   6.878  1.7838  2.4279  1.2646
   50CHL1    C5 3634   4.546   5.972   7.052 -0.6316  0.7114 -0.0647
   50CHL1    C6 3635   4.661   5.953   7.119 -0.1787 -0.1972  0.6169
   50CHL1    H6 3636   4.743   5.886   7.088  0.3601  1.2315 -1.1317
   50CHL1    C7 3637   4.678   5.997   7.258  0.7050 -0.1247  0.1576
   50CHL1   H7A 3638   4.705   5.920   7.334 -0.4556 -1.3035 -0.6110
   50CHL1   H7B 3639   4.771   6.058   7.266  1.4050 -1.1088 -0.3977
   50CHL1    C8 3640   4.560   6.079   7.324 -0.4972  0.5594 -0.1622
   50CHL1    H8 3641   4.491   6.009   7.376 -0.0240  0.5030  0.3989
   50CHL1   C14 3642   4.612   6.173   7.429 -0.2331 -0.0250 -1.1039
   50CHL1   H14 3643   4.683   6.233   7.367  1.2761  0.9438  1.5125
   50CHL1   C15 3644   4.699   6.114   7.545 -0.1459 -0.1710  0.6270
   50CHL1  H15A 3645   4.643   6.029   7.588 -1.7469  0.8751  0.6321
   50CHL1  H15B 3646   4.804   6.085   7.521 -1.0901 -2.7655 -0.5484
   50CHL1   C16 3647   4.698   6.229   7.643  0.1883  0.2540  0.2683
   50CHL1  H16A 3648   4.652   6.195   7.739  3.0228 -2.7759  0.6144
   50CHL1  H16B 3649   4.801   6.266   7.656  0.1105  0.9781 -1.0415
   50CHL1   C17 3650   4.614   6.355   7.583  0.4480 -0.2011  0.0019
   50CHL1   H17 3651   4.674   6.415   7.511 -2.7003  3.3039  0.1395
   50CHL1   C13 3652   4.515   6.279   7.491  0.0551  0.8611 -0.2192
   50CHL1   C18 3653   4.411   6.209   7.578  0.1711 -0.8695  0.3486
   50CHL1  H18A 3654   4.319   6.271   7.572  2.0304  1.8067 -1.5184
   50CHL1  H18B 3655   4.378   6.110   7.540 -0.4908 -0.5622  0.0993
   50CHL1  H18C 3656   4.432   6.201   7.687  0.6405 -0.0501  0.3235
   50CHL1   C12 3657   4.445   6.361   7.378 -0.3180 -0.2808  0.3509
   50CHL1  H12A 3658   4.362   6.415   7.427  1.5328 -0.4092  3.7859
   50CHL1  H12B 3659   4.525   6.423   7.332  0.8847 -0.8921  1.5742
   50CHL1   C11 3660   4.375   6.264   7.280  0.3553 -0.0817 -0.0133
   50CHL1  H11A 3661   4.295   6.217   7.341  0.4376 -0.3139 -0.0852
   50CHL1  H11B 3662   4.331   6.321   7.196  0.4518  0.9710  0.6389
   50CHL1    C9 3663   4.473   6.160   7.224 -0.1630 -0.8140 -0.6822
   50CHL1    H9 3664   4.553   6.229   7.192  1.5435 -1.2564  2.3575
   50CHL1   C10 3665   4.434   6.070   7.104  0.3695 -0.6221  0.4689
   50CHL1   C19 3666   4.296   5.997   7.145 -0.0328  0.0823 -0.1054
   50CHL1  H19A 3667   4.213   6.070   7.146  0.4576  0.6720 -1.4201
   50CHL1  H19B 3668   4.278   5.907   7.082 -0.0630 -0.1276  0.1973
   50CHL1  H19C 3669   4.304   5.948   7.245 -2.3509  1.0395  0.5931
   50CHL1    C1 3670   4.404   6.169   6.983  0.6665  0.6461  0.1986
   50CHL1   H1A 3671   4.313   6.225   7.013 -0.0697  0.0177 -0.8646
   50CHL1   H1B 3672   4.490   6.239   6.979  0.7775  0.3858 -2.3721
   50CHL1    C2 3673   4.372   6.104   6.848 -0.2784  0.1400 -1.1741
   50CHL1   H2A 3674   4.357   6.180   6.768 -1.3845 -0.5424 -1.6327
   50CHL1   H2B 3675   4.277   6.047   6.861  0.6920 -0.8229  2.0594
   50CHL1   C20 3676   4.561   6.453   7.694  0.1189  0.8365  0.0595
   50CHL1   H20 3677   4.514   6.395   7.776  1.3886  1.4430  1.2236
   50CHL1   C21 3678   4.459   6.550   7.642  0.2227 -0.4556 -0.0002
   50CHL1  H21A 3679   4.498   6.598   7.550 -0.0360 -0.4673 -0.1170
   50CHL1  H21B 3680   4.434   6.635   7.710  0.3681 -0.3955 -0.0228
   50CHL1  H21C 3681   4.371   6.488   7.617  0.7117 -0.4489 -1.8314
   50CHL1   C22 3682   4.681   6.516   7.767 -0.2573  0.5438 -0.0519
   50CHL1  H22A 3683   4.755   6.434   7.781  1.0536  1.3444 -2.0232
   50CHL1  H22B 3684   4.734   6.590   7.703  2.0421 -0.2316  0.8891
   50CHL1   C23 3685   4.656   6.567   7.903  0.0587 -0.4413 -0.3270
   50CHL1  H23A 3686   4.751   6.603   7.948  0.1375  0.6611 -1.3604
   50CHL1  H23B 3687   4.586   6.653   7.894  1.4199  0.5818 -1.2480
   50CHL1   C24 3688   4.621   6.459   8.011  0.2610  0.1739 -0.1650
   50CHL1  H24A 3689   4.527   6.405   7.987  0.0687  0.7576 -0.7651
   50CHL1  H24B 3690   4.700   6.381   8.011 -0.9506 -1.0936 -1.7753
   50CHL1   C25 3691   4.587   6.512   8.154 -0.3464  0.3391 -0.5191
   50CHL1   H25 3692   4.681   6.562   8.186 -0.4937 -0.2845  0.9654
   50CHL1   C26 3693   4.479   6.612   8.162 -0.3146 -0.3739 -0.0109
   50CHL1  H26A 3694   4.501   6.702   8.101  2.8782 -0.6377  0.6466
   50CHL1  H26B 3695   4.382   6.567   8.133 -1.0131  0.6435  0.6976
   50CHL1  H26C 3696   4.459   6.654   8.263 -1.4883  1.6158 -1.0374
   50CHL1   C27 3697   4.563   6.397   8.250  0.3279  0.5466  0.2838
   50CHL1  H27A 3698   4.537   6.424   8.355  0.8976  0.8197  0.3541
   50CHL1  H27B 3699   4.489   6.318   8.226  3.6122 -2.2428 -1.0636
   50CHL1  H27C 3700   4.664   6.350   8.261 -0.6904 -1.6735  0.5683
   51CHL1    C3 3701   3.783   5.254   6.705  0.2273 -0.9689 -0.3334
   51CHL1    H3 3702   3.787   5.362   6.732  2.3821 -0.9801 -0.5900
   51CHL1    O3 3703   3.736   5.226   6.572  0.0192 -0.8483  0.3487
   51CHL1   H3' 3704   3.742   5.130   6.567 -0.7698 -0.9288  0.8966
   51CHL1    C4 3705   3.923   5.204   6.725  0.2386 -0.2076 -0.4874
   51CHL1   H4A 3706   3.930   5.097   6.696  1.2681 -0.8835  2.1675
   51CHL1   H4B 3707   4.000   5.247   6.657 -0.4894  1.8124 -0.0870
   51CHL1    C5 3708   3.977   5.221   6.865  0.6612 -0.2488 -0.4580
   51CHL1    C6 3709   4.096   5.280   6.895  0.6682  0.1542 -0.1418
   51CHL1    H6 3710   4.165   5.314   6.817  1.6046 -0.0768  0.5807
   51CHL1    C7 3711   4.155   5.282   7.038  0.2870  0.7541 -0.1569
   51CHL1   H7A 3712   4.258   5.242   7.039 -0.2499 -0.8149 -2.5474
   51CHL1   H7B 3713   4.154   5.387   7.075  0.0881 -0.1556  2.5653
   51CHL1    C8 3714   4.076   5.203   7.139 -0.2780 -0.3236  0.5687
   51CHL1    H8 3715   4.094   5.094   7.135  1.4509 -0.0447  0.0754
   51CHL1   C14 3716   4.103   5.250   7.285 -0.6609  0.0955 -0.0981
   51CHL1   H14 3717   4.062   5.353   7.280  0.7249  0.6329 -0.5545
   51CHL1   C15 3718   4.247   5.264   7.321  0.4345 -0.9174 -0.2013
   51CHL1  H15A 3719   4.314   5.182   7.288  1.6805  0.7190 -1.7870
   51CHL1  H15B 3720   4.287   5.356   7.273  1.0931  0.0568  2.1618
   51CHL1   C16 3721   4.247   5.273   7.476  0.2140  0.1684  0.6411
   51CHL1  H16A 3722   4.307   5.191   7.523  0.6613  1.6709  2.7691
   51CHL1  H16B 3723   4.293   5.370   7.504  1.0226  0.3199 -1.1321
   51CHL1   C17 3724   4.095   5.270   7.516 -0.1920  0.3809 -0.4744
   51CHL1   H17 3725   4.053   5.372   7.501  2.6588  1.6996  0.0393
   51CHL1   C13 3726   4.031   5.182   7.403 -0.0252 -0.2314  0.2110
   51CHL1   C18 3727   4.077   5.034   7.409 -0.3565 -0.0859 -0.2200
   51CHL1  H18A 3728   4.056   4.980   7.314  1.1586 -0.7367 -0.2022
   51CHL1  H18B 3729   4.183   5.022   7.440 -0.4712 -0.3583  0.0646
   51CHL1  H18C 3730   4.014   4.993   7.491  1.2564 -0.2996  0.9312
   51CHL1   C12 3731   3.883   5.201   7.377  0.4631 -0.0073 -0.3776
   51CHL1  H12A 3732   3.820   5.148   7.452 -1.8296  1.6815 -1.0562
   51CHL1  H12B 3733   3.870   5.309   7.400  2.4397  0.4483 -1.3064
   51CHL1   C11 3734   3.843   5.155   7.234  0.0449 -0.2718  0.7495
   51CHL1  H11A 3735   3.868   5.046   7.240 -1.2151 -0.6556 -0.7357
   51CHL1  H11B 3736   3.734   5.177   7.227 -0.4540 -2.6770  0.3273
   51CHL1    C9 3737   3.922   5.216   7.121  0.8804 -0.9410 -0.1952
   51CHL1    H9 3738   3.906   5.326   7.120  0.2339 -1.0084 -2.8903
   51CHL1   C10 3739   3.875   5.169   6.981 -0.7317 -0.1167  0.3282
   51CHL1   C19 3740   3.877   5.011   6.974 -1.1790  0.4806  0.0852
   51CHL1  H19A 3741   3.977   4.969   6.997 -1.1120  1.8914  2.5875
   51CHL1  H19B 3742   3.812   4.962   7.050  0.9481 -2.3999  0.1169
   51CHL1  H19C 3743   3.852   4.977   6.871  0.1359  0.0639 -0.1043
   51CHL1    C1 3744   3.732   5.206   6.948  0.4383 -0.3357 -0.8118
   51CHL1   H1A 3745   3.663   5.160   7.022  0.1359  1.4000  0.0329
   51CHL1   H1B 3746   3.722   5.315   6.971 -2.0741 -0.5779 -0.6272
   51CHL1    C2 3747   3.686   5.180   6.803  0.6335 -0.0904  0.0564
   51CHL1   H2A 3748   3.584   5.219   6.781  0.4924 -0.7907 -0.5315
   51CHL1   H2B 3749   3.677   5.071   6.784  0.5381 -0.2735  1.1349
   51CHL1   C20 3750   4.068   5.227   7.664  0.6102 -0.3693  0.6562
   51CHL1   H20 3751   4.041   5.119   7.664 -1.4409  0.1335 -0.5706
   51CHL1   C21 3752   3.936   5.285   7.718 -0.1607  0.3552 -0.3107
   51CHL1  H21A 3753   3.859   5.278   7.638  0.4070  2.1907 -1.0587
   51CHL1  H21B 3754   3.958   5.394   7.726 -1.4427  0.6452 -0.5915
   51CHL1  H21C 3755   3.916   5.239   7.817  2.4373  0.6741  0.4001
   51CHL1   C22 3756   4.185   5.251   7.762 -0.5723  0.1750 -0.0818
   51CHL1  H22A 3757   4.280   5.215   7.716 -0.7768 -0.7286  0.1900
   51CHL1  H22B 3758   4.203   5.360   7.776 -0.3712  0.0707  0.5032
   51CHL1   C23 3759   4.176   5.177   7.895  0.5675 -0.2134 -0.3262
   51CHL1  H23A 3760   4.079   5.206   7.939  0.0364 -2.4777  0.0629
   51CHL1  H23B 3761   4.165   5.067   7.888  0.0386 -0.2738  1.4433
   51CHL1   C24 3762   4.285   5.207   7.993  0.2591  0.0026 -0.8405
   51CHL1  H24A 3763   4.384   5.173   7.957  1.1966  0.2299  1.4115
   51CHL1  H24B 3764   4.274   5.317   8.009 -0.3213  0.1231 -2.0183
   51CHL1   C25 3765   4.266   5.140   8.131 -0.0163  0.3374  0.3978
   51CHL1   H25 3766   4.264   5.030   8.122  0.8561  0.4487 -1.1717
   51CHL1   C26 3767   4.399   5.167   8.210  0.5957 -0.2319 -0.5191
   51CHL1  H26A 3768   4.477   5.101   8.166 -0.8008 -2.1300 -0.2440
   51CHL1  H26B 3769   4.431   5.273   8.217  0.4109 -0.1767 -0.5065
   51CHL1  H26C 3770   4.386   5.116   8.308  2.7159 -2.1430 -1.1760
   51CHL1   C27 3771   4.144   5.201   8.207  0.3300  0.2251 -0.2678
   51CHL1  H27A 3772   4.160   5.311   8.217  0.6349  0.1607 -0.0490
   51CHL1  H27B 3773   4.045   5.194   8.158 -0.1310  0.5086  0.6185
   51CHL1  H27C 3774   4.137   5.146   8.303  0.5268 -1.3116 -1.1167
   52CHL1    C3 3775   6.557   6.532   6.862 -0.7167  0.0598  0.5900
   52CHL1    H3 3776   6.451   6.566   6.860 -0.4642  0.8813  0.7734
   52CHL1    O3 3777   6.608   6.542   6.729 -0.4394 -0.3450 -0.8059
   52CHL1   H3' 3778   6.565   6.468   6.685 -0.5056 -0.7627 -0.0552
   52CHL1    C4 3779   6.636   6.627   6.958 -0.8464 -0.1856  1.6283
   52CHL1   H4A 3780   6.745   6.607   6.944 -0.4941  2.9768 -0.8811
   52CHL1   H4B 3781   6.628   6.728   6.912 -0.1504 -1.3808 -1.2227
   52CHL1    C5 3782   6.601   6.615   7.108 -0.4035  0.8992  0.3116
   52CHL1    C6 3783   6.572   6.718   7.185  0.2058  0.9035  0.2178
   52CHL1    H6 3784   6.572   6.815   7.133  1.6924 -0.2708 -2.0645
   52CHL1    C7 3785   6.548   6.717   7.335  0.4212 -0.1274 -0.0799
   52CHL1   H7A 3786   6.603   6.794   7.393  0.6243 -0.9671  0.8676
   52CHL1   H7B 3787   6.440   6.732   7.359  0.5647  0.7021  0.0593
   52CHL1    C8 3788   6.596   6.582   7.391 -0.2340 -0.7746  0.1697
   52CHL1    H8 3789   6.707   6.582   7.384 -0.2102  2.5508 -0.1523
   52CHL1   C14 3790   6.559   6.567   7.535  0.1997 -0.0071 -0.4208
   52CHL1   H14 3791   6.448   6.564   7.539  0.1828  1.0926  0.2169
   52CHL1   C15 3792   6.603   6.686   7.623  0.0297  0.4477  0.6638
   52CHL1  H15A 3793   6.706   6.711   7.588 -0.2826  0.4886 -0.2200
   52CHL1  H15B 3794   6.537   6.771   7.600 -0.7823 -0.7965 -1.7642
   52CHL1   C16 3795   6.600   6.618   7.759 -0.5543  0.2972 -0.3972
   52CHL1  H16A 3796   6.704   6.628   7.797  0.4197 -2.0262 -2.3234
   52CHL1  H16B 3797   6.529   6.675   7.823 -0.8215  1.5592 -1.8131
   52CHL1   C17 3798   6.559   6.463   7.743 -0.0799 -0.2138 -0.4265
   52CHL1   H17 3799   6.448   6.465   7.750 -0.0575  2.1713 -0.5230
   52CHL1   C13 3800   6.609   6.436   7.598 -0.0314 -0.1820 -0.3148
   52CHL1   C18 3801   6.760   6.417   7.595  0.5208 -0.5556  1.2459
   52CHL1  H18A 3802   6.817   6.505   7.630  1.1202 -0.1415 -0.7011
   52CHL1  H18B 3803   6.794   6.328   7.652  0.6352  0.2544  2.4604
   52CHL1  H18C 3804   6.798   6.399   7.492 -1.3791  0.5535  0.3247
   52CHL1   C12 3805   6.539   6.317   7.531  0.1837 -0.8257 -0.6601
   52CHL1  H12A 3806   6.584   6.225   7.576  0.2608 -0.6785 -0.4397
   52CHL1  H12B 3807   6.430   6.317   7.548  0.6542 -0.1734  2.6557
   52CHL1   C11 3808   6.563   6.322   7.373  0.2555  0.5866 -0.1879
   52CHL1  H11A 3809   6.665   6.279   7.364  0.7088  1.1218  2.1932
   52CHL1  H11B 3810   6.488   6.255   7.326  0.6821 -1.1297  1.5280
   52CHL1    C9 3811   6.542   6.463   7.306 -0.5288  0.5009 -0.5374
   52CHL1    H9 3812   6.431   6.470   7.307 -0.5744 -0.1824  1.8746
   52CHL1   C10 3813   6.597   6.468   7.163  0.6435  0.2286 -0.3511
   52CHL1   C19 3814   6.745   6.429   7.160 -0.9423 -0.5610  0.9210
   52CHL1  H19A 3815   6.754   6.321   7.187  0.4206 -1.1892 -1.8677
   52CHL1  H19B 3816   6.788   6.431   7.058 -0.4302 -1.6237  1.1004
   52CHL1  H19C 3817   6.809   6.486   7.230 -0.1108 -2.3620  1.6818
   52CHL1    C1 3818   6.507   6.385   7.062  0.3668  0.1900  0.9071
   52CHL1   H1A 3819   6.507   6.280   7.097  1.4659 -0.4189 -0.8694
   52CHL1   H1B 3820   6.404   6.429   7.064  0.4794  0.6233 -1.5598
   52CHL1    C2 3821   6.554   6.390   6.908  1.0332 -0.2116  0.6157
   52CHL1   H2A 3822   6.497   6.312   6.853  4.0955 -2.4909  0.5571
   52CHL1   H2B 3823   6.652   6.339   6.901  0.7255 -1.1979  2.9934
   52CHL1   C20 3824   6.610   6.377   7.864 -0.0277 -0.3691 -0.2036
   52CHL1   H20 3825   6.719   6.359   7.848  0.5628  0.8811  2.1330
   52CHL1   C21 3826   6.535   6.240   7.863 -0.2216 -0.1386 -0.6887
   52CHL1  H21A 3827   6.525   6.204   7.758  2.8946  3.2122 -2.2602
   52CHL1  H21B 3828   6.427   6.254   7.882  0.6826  2.6375  2.7830
   52CHL1  H21C 3829   6.585   6.169   7.933 -1.0491  0.0914  0.1395
   52CHL1   C22 3830   6.583   6.444   8.008  0.1901  0.0337  0.0968
   52CHL1  H22A 3831   6.626   6.546   8.013 -0.2856  0.3179 -1.4494
   52CHL1  H22B 3832   6.474   6.438   8.030  0.2552 -3.5175 -0.1194
   52CHL1   C23 3833   6.652   6.364   8.117 -0.0424  0.5804  0.2023
   52CHL1  H23A 3834   6.629   6.256   8.130  1.3862  0.2151 -0.3129
   52CHL1  H23B 3835   6.763   6.367   8.110 -0.0101  0.7777  0.7184
   52CHL1   C24 3836   6.610   6.413   8.258  0.4859  0.4265 -0.4483
   52CHL1  H24A 3837   6.500   6.431   8.262  0.4466  0.5724 -1.9000
   52CHL1  H24B 3838   6.621   6.337   8.337  1.1578  1.1027  0.1174
   52CHL1   C25 3839   6.674   6.549   8.296  0.3378 -0.5496 -0.0336
   52CHL1   H25 3840   6.687   6.607   8.203  0.1162 -0.0660  0.2377
   52CHL1   C26 3841   6.576   6.630   8.383  0.3551  0.4336 -0.2583
   52CHL1  H26A 3842   6.554   6.565   8.470 -1.4610  0.4067 -0.7178
   52CHL1  H26B 3843   6.620   6.725   8.421  0.2503  0.2277  0.3829
   52CHL1  H26C 3844   6.483   6.654   8.327  0.3439  4.8935  1.4478
   52CHL1   C27 3845   6.811   6.540   8.370 -0.5184  0.1118  0.5119
   52CHL1  H27A 3846   6.888   6.474   8.324 -0.1958  0.7022  0.2091
   52CHL1  H27B 3847   6.855   6.642   8.369 -4.0450  1.7216  2.2506
   52CHL1  H27C 3848   6.803   6.493   8.470 -1.9263  2.0672  1.3406
   53CHL1    C3 3849   2.160   2.929   7.216 -0.4600 -0.1241  0.2537
   53CHL1    H3 3850   2.148   3.034   7.250  1.8251  0.1933  0.1461
   53CHL1    O3 3851   2.158   2.922   7.072  0.1353  0.0405  0.0313
   53CHL1   H3' 3852   2.175   2.829   7.055 -3.2824 -0.3042 -2.0083
   53CHL1    C4 3853   2.292   2.875   7.282 -0.0493  0.4670  0.5350
   53CHL1   H4A 3854   2.308   2.768   7.259  0.6970  0.7720 -0.3733
   53CHL1   H4B 3855   2.374   2.936   7.237  0.0170 -0.2758 -0.3569
   53CHL1    C5 3856   2.290   2.885   7.426 -0.0388 -0.0816 -0.6138
   53CHL1    C6 3857   2.396   2.938   7.485 -0.5771  0.2592 -0.3916
   53CHL1    H6 3858   2.478   2.987   7.431  1.2703 -1.6612  0.6049
   53CHL1    C7 3859   2.420   2.933   7.633 -0.3570  0.6150 -0.4071
   53CHL1   H7A 3860   2.519   2.896   7.669 -1.7335 -1.9787  0.8397
   53CHL1   H7B 3861   2.378   3.022   7.685 -2.1310 -0.6669  0.4054
   53CHL1    C8 3862   2.329   2.835   7.701 -0.3174 -0.4102  0.7396
   53CHL1    H8 3863   2.358   2.731   7.674  0.4617 -0.5504  2.0633
   53CHL1   C14 3864   2.323   2.846   7.853 -0.0427  0.3600 -0.3185
   53CHL1   H14 3865   2.280   2.943   7.887 -1.6019 -0.1214 -0.9036
   53CHL1   C15 3866   2.453   2.841   7.926 -0.3443  0.0104 -0.0210
   53CHL1  H15A 3867   2.510   2.759   7.876 -1.1951 -0.7335  0.2183
   53CHL1  H15B 3868   2.513   2.933   7.910 -1.2226  1.0677  2.5001
   53CHL1   C16 3869   2.429   2.800   8.073  0.0811 -0.0104  0.1594
   53CHL1  H16A 3870   2.494   2.716   8.103  1.2502  0.3363 -1.3338
   53CHL1  H16B 3871   2.453   2.880   8.146 -0.2033 -0.7586  1.0891
   53CHL1   C17 3872   2.277   2.759   8.069 -0.1244  0.5598  0.4546
   53CHL1   H17 3873   2.218   2.847   8.103 -0.7221 -0.2231  1.4761
   53CHL1   C13 3874   2.234   2.744   7.921  0.5547 -0.7136 -0.0991
   53CHL1   C18 3875   2.273   2.599   7.876  0.8512 -0.3163  0.3560
   53CHL1  H18A 3876   2.209   2.532   7.938 -0.4937  0.9476  0.3645
   53CHL1  H18B 3877   2.260   2.574   7.768 -1.2714 -1.9011  0.9373
   53CHL1  H18C 3878   2.379   2.595   7.909  1.1043  0.7562 -0.2897
   53CHL1   C12 3879   2.091   2.773   7.878 -0.6038 -0.0209 -0.3422
   53CHL1  H12A 3880   2.021   2.698   7.920  2.1510 -2.6328 -0.2368
   53CHL1  H12B 3881   2.056   2.870   7.919  1.1186  0.0927  0.9082
   53CHL1   C11 3882   2.076   2.765   7.723  0.0721  0.0204 -0.0244
   53CHL1  H11A 3883   2.090   2.658   7.694 -0.7353  0.5219 -2.3836
   53CHL1  H11B 3884   1.978   2.810   7.696 -0.1189  1.3299  2.6583
   53CHL1    C9 3885   2.183   2.843   7.643 -0.2102 -0.4855 -0.3582
   53CHL1    H9 3886   2.146   2.946   7.662 -0.8506 -1.0431  1.6188
   53CHL1   C10 3887   2.176   2.815   7.488 -0.3445  0.1138 -0.6467
   53CHL1   C19 3888   2.183   2.662   7.471  0.3418 -0.2276  0.1605
   53CHL1  H19A 3889   2.097   2.601   7.505  1.2369 -1.8902 -0.5049
   53CHL1  H19B 3890   2.170   2.641   7.363 -1.8471  1.7902 -0.0282
   53CHL1  H19C 3891   2.282   2.623   7.501  0.9139  0.6661 -0.5142
   53CHL1    C1 3892   2.035   2.860   7.431  0.6114 -0.0229  0.1785
   53CHL1   H1A 3893   1.955   2.791   7.466 -1.1296  1.5313 -0.6318
   53CHL1   H1B 3894   2.012   2.966   7.454  2.2829  0.4016 -0.0797
   53CHL1    C2 3895   2.036   2.854   7.273 -0.3259 -0.0003  0.9390
   53CHL1   H2A 3896   1.946   2.903   7.230  1.1790  2.9821  1.0994
   53CHL1   H2B 3897   2.040   2.749   7.237  2.2428  0.1790  0.6235
   53CHL1   C20 3898   2.240   2.656   8.172  0.0197  0.5670 -0.2200
   53CHL1   H20 3899   2.291   2.563   8.142  0.7048  1.5249 -2.1008
   53CHL1   C21 3900   2.091   2.628   8.175  0.7013 -0.5182 -0.2170
   53CHL1  H21A 3901   2.055   2.566   8.089 -4.7430  0.9941  0.7750
   53CHL1  H21B 3902   2.035   2.724   8.169  0.7985 -0.5572 -2.3754
   53CHL1  H21C 3903   2.047   2.584   8.267  1.7598 -1.3111 -0.0842
   53CHL1   C22 3904   2.284   2.679   8.313 -0.5672 -0.1783  0.2021
   53CHL1  H22A 3905   2.243   2.597   8.376  2.0857 -0.7850  1.2262
   53CHL1  H22B 3906   2.390   2.648   8.322  0.5769  3.5831  0.7066
   53CHL1   C23 3907   2.243   2.814   8.383 -0.3022  0.1428 -0.9615
   53CHL1  H23A 3908   2.271   2.904   8.325  0.5691  2.5375  3.0772
   53CHL1  H23B 3909   2.133   2.814   8.399 -0.1693  1.1597 -0.0383
   53CHL1   C24 3910   2.321   2.830   8.519  0.2134  0.9159  0.9099
   53CHL1  H24A 3911   2.296   2.742   8.582 -0.9071  0.2946 -0.3861
   53CHL1  H24B 3912   2.432   2.825   8.505  0.3161 -0.6395  2.1006
   53CHL1   C25 3913   2.281   2.961   8.600 -0.3253  0.2284 -0.0858
   53CHL1   H25 3914   2.179   2.945   8.641  0.6155 -1.7804  1.5006
   53CHL1   C26 3915   2.378   2.981   8.723  0.2017 -0.0644  0.3141
   53CHL1  H26A 3916   2.480   3.008   8.690 -0.7022  1.8575 -0.9711
   53CHL1  H26B 3917   2.338   3.060   8.790  0.0371 -1.6579  2.1597
   53CHL1  H26C 3918   2.391   2.885   8.778 -1.6889 -1.3047 -1.3172
   53CHL1   C27 3919   2.271   3.092   8.523 -0.9922  0.0665  0.3536
   53CHL1  H27A 3920   2.361   3.103   8.459 -3.6141  2.5442 -3.1725
   53CHL1  H27B 3921   2.189   3.094   8.447  1.9983 -1.9176 -3.0735
   53CHL1  H27C 3922   2.271   3.178   8.593  1.6466  1.1200 -0.8886
   54CHL1    C3 3923   2.460   4.569   6.969 -0.5135 -0.5164 -0.0438
   54CHL1    H3 3924   2.568   4.592   6.976 -0.7427  1.4209 -2.0819
   54CHL1    O3 3925   2.410   4.614   6.841  0.4749  0.5915 -0.4942
   54CHL1   H3' 3926   2.461   4.561   6.780  0.8793  2.0526 -1.4289
   54CHL1    C4 3927   2.443   4.421   6.983 -0.1234 -0.4524  0.0286
   54CHL1   H4A 3928   2.337   4.395   6.961 -0.5057 -2.6126  3.9607
   54CHL1   H4B 3929   2.492   4.383   6.890  0.4690  2.6562 -0.9954
   54CHL1    C5 3930   2.493   4.366   7.115  0.1869  0.3194 -0.5319
   54CHL1    C6 3931   2.582   4.270   7.118 -0.3590  1.0830  0.1194
   54CHL1    H6 3932   2.607   4.227   7.020 -2.2823 -1.1949  0.6018
   54CHL1    C7 3933   2.621   4.186   7.239  0.4562  0.0788  0.3031
   54CHL1   H7A 3934   2.600   4.078   7.222  2.3535 -0.6816  2.4408
   54CHL1   H7B 3935   2.731   4.188   7.246  0.5747  2.8181 -1.6455
   54CHL1    C8 3936   2.557   4.235   7.374 -0.1686  0.2740 -0.5364
   54CHL1    H8 3937   2.456   4.192   7.393 -0.8343  1.8049 -0.5392
   54CHL1   C14 3938   2.648   4.213   7.491 -0.4792 -0.2583 -0.1861
   54CHL1   H14 3939   2.738   4.270   7.459 -1.1765  1.3019  0.5473
   54CHL1   C15 3940   2.705   4.069   7.520 -0.6023 -0.3162  0.1549
   54CHL1  H15A 3941   2.642   3.977   7.524 -0.1563 -0.5441  2.2593
   54CHL1  H15B 3942   2.772   4.050   7.433  2.0428  1.7863  1.6787
   54CHL1   C16 3943   2.757   4.081   7.667  0.4933  0.5203 -0.4794
   54CHL1  H16A 3944   2.705   4.002   7.725  0.5861  0.5274 -0.3889
   54CHL1  H16B 3945   2.862   4.048   7.679  0.4987  1.1175  1.1901
   54CHL1   C17 3946   2.727   4.219   7.716 -0.3822 -0.5186  0.3786
   54CHL1   H17 3947   2.802   4.287   7.670 -1.4154  0.4378  0.0874
   54CHL1   C13 3948   2.610   4.269   7.630  0.2035  0.0694 -0.1372
   54CHL1   C18 3949   2.483   4.189   7.673  0.4687 -0.6627 -0.1831
   54CHL1  H18A 3950   2.487   4.078   7.661 -2.4723 -0.8021 -0.0316
   54CHL1  H18B 3951   2.473   4.204   7.783  0.4423 -1.7569 -0.0306
   54CHL1  H18C 3952   2.386   4.217   7.628 -0.6538 -2.5314  0.9952
   54CHL1   C12 3953   2.590   4.429   7.609  0.5829  0.4864  0.2011
   54CHL1  H12A 3954   2.562   4.484   7.701 -0.4560  1.3081 -0.5884
   54CHL1  H12B 3955   2.689   4.462   7.572  0.0588 -1.0936 -2.7993
   54CHL1   C11 3956   2.493   4.461   7.496  0.2324  0.5445 -0.3040
   54CHL1  H11A 3957   2.390   4.438   7.533 -0.2039  1.8834 -0.6645
   54CHL1  H11B 3958   2.502   4.569   7.475  0.8086  0.5747  0.0903
   54CHL1    C9 3959   2.528   4.385   7.363 -0.0701  0.4397  0.7293
   54CHL1    H9 3960   2.627   4.422   7.330 -0.2143  1.0555  0.9747
   54CHL1   C10 3961   2.442   4.433   7.244  0.6208  0.6218 -0.1915
   54CHL1   C19 3962   2.293   4.372   7.262 -0.2328 -0.1549 -0.4946
   54CHL1  H19A 3963   2.235   4.404   7.174 -1.7264  0.9645  0.8744
   54CHL1  H19B 3964   2.293   4.261   7.270  1.9576 -0.1710 -0.3413
   54CHL1  H19C 3965   2.262   4.424   7.355  0.3277  1.8257 -1.3961
   54CHL1    C1 3966   2.438   4.589   7.216  0.1712 -0.1059 -1.1061
   54CHL1   H1A 3967   2.375   4.638   7.294  1.0862  0.8932 -0.9762
   54CHL1   H1B 3968   2.545   4.619   7.227 -0.2557  1.4834 -1.1573
   54CHL1    C2 3969   2.381   4.634   7.083  0.1357 -0.1354 -0.3703
   54CHL1   H2A 3970   2.388   4.745   7.088 -1.4267 -0.0686  1.2234
   54CHL1   H2B 3971   2.278   4.592   7.081 -0.5189  1.4296 -0.6016
   54CHL1   C20 3972   2.722   4.232   7.868  0.1261  0.3378  1.2980
   54CHL1   H20 3973   2.621   4.198   7.898 -0.8012  0.1730 -1.8670
   54CHL1   C21 3974   2.744   4.373   7.910 -0.5317 -0.0963 -1.1571
   54CHL1  H21A 3975   2.775   4.381   8.016  1.4326  0.5408 -1.7524
   54CHL1  H21B 3976   2.660   4.445   7.903  0.0554  0.8509  1.0064
   54CHL1  H21C 3977   2.833   4.411   7.855  0.8758 -0.4607  0.8207
   54CHL1   C22 3978   2.830   4.146   7.942 -0.8287 -0.0799  0.6869
   54CHL1  H22A 3979   2.844   4.042   7.905 -2.5317 -0.1042  0.0910
   54CHL1  H22B 3980   2.925   4.198   7.917 -2.0435  1.4593 -0.8253
   54CHL1   C23 3981   2.817   4.148   8.092  0.0647  0.0371 -0.3366
   54CHL1  H23A 3982   2.893   4.078   8.132  0.7691  2.3617  2.6014
   54CHL1  H23B 3983   2.850   4.247   8.131 -1.4023 -0.3079  1.8831
   54CHL1   C24 3984   2.675   4.132   8.141 -0.0062  0.0971 -0.7360
   54CHL1  H24A 3985   2.607   4.212   8.107 -1.0126 -0.0222  0.9018
   54CHL1  H24B 3986   2.636   4.041   8.090  0.6662 -0.1357 -0.8395
   54CHL1   C25 3987   2.667   4.133   8.296 -0.0952  0.4599 -0.6900
   54CHL1   H25 3988   2.717   4.227   8.327  1.7905 -0.6451 -0.3014
   54CHL1   C26 3989   2.524   4.132   8.334 -0.5261 -0.3009  0.1017
   54CHL1  H26A 3990   2.477   4.032   8.325 -1.4245  0.0320  1.1021
   54CHL1  H26B 3991   2.512   4.157   8.441 -0.6498  1.9455 -0.4268
   54CHL1  H26C 3992   2.468   4.205   8.272  0.5809  1.7101  1.4154
   54CHL1   C27 3993   2.753   4.024   8.359 -0.4165 -0.2506  0.0817
   54CHL1  H27A 3994   2.736   4.029   8.469 -0.5887 -0.8642  0.0871
   54CHL1  H27B 3995   2.724   3.922   8.324  1.7200 -0.2904 -1.6222
   54CHL1  H27C 3996   2.862   4.042   8.354 -0.7432  1.7056 -0.4618
   55CHL1    C3 3997   2.110   5.964   6.859  0.4547 -0.8435 -0.3633
   55CHL1    H3 3998   2.066   5.877   6.912 -1.2593 -1.4395 -2.6668
   55CHL1    O3 3999   2.066   5.940   6.732 -0.3668  0.3048 -0.2303
   55CHL1   H3' 4000   2.008   6.016   6.719 -1.8224 -0.7317  0.0520
   55CHL1    C4 4001   2.069   6.095   6.918 -0.0539  0.3986  0.1582
   55CHL1   H4A 4002   2.099   6.183   6.857  1.4909 -0.7202 -0.7432
   55CHL1   H4B 4003   1.958   6.101   6.920  0.0796  2.7704  0.9097
   55CHL1    C5 4004   2.116   6.091   7.064 -0.4587  0.3619  0.1849
   55CHL1    C6 4005   2.039   6.098   7.172 -0.7217  0.6501  0.4754
   55CHL1    H6 4006   1.931   6.111   7.156 -0.8568 -1.6570 -0.6958
   55CHL1    C7 4007   2.081   6.103   7.311  0.1287  0.0931 -0.3767
   55CHL1   H7A 4008   2.013   6.165   7.374 -2.8889 -0.1254 -3.2702
   55CHL1   H7B 4009   2.072   5.998   7.346 -1.1798 -0.3480 -1.9977
   55CHL1    C8 4010   2.232   6.142   7.331 -0.3701  0.4358  0.1978
   55CHL1    H8 4011   2.239   6.252   7.314 -1.0040  0.4098 -0.2456
   55CHL1   C14 4012   2.280   6.098   7.473 -0.8547 -1.3768  0.0275
   55CHL1   H14 4013   2.261   5.990   7.484  1.0131 -1.7687 -0.3614
   55CHL1   C15 4014   2.200   6.145   7.600  0.2419  0.2667  1.1334
   55CHL1  H15A 4015   2.165   6.248   7.580  0.4843  0.1527  0.0975
   55CHL1  H15B 4016   2.111   6.082   7.625  0.6152 -1.0932 -0.8432
   55CHL1   C16 4017   2.301   6.144   7.708 -0.1209  0.1631  0.2522
   55CHL1  H16A 4018   2.320   6.251   7.731 -0.9164  0.7212 -1.6110
   55CHL1  H16B 4019   2.277   6.080   7.796  1.7504  0.8534  1.2972
   55CHL1   C17 4020   2.440   6.092   7.647 -0.5457  0.4975 -0.3405
   55CHL1   H17 4021   2.439   5.984   7.672  1.3821  0.3668 -0.7301
   55CHL1   C13 4022   2.433   6.126   7.500 -0.0104 -0.5410 -0.4950
   55CHL1   C18 4023   2.454   6.276   7.467 -0.4100  0.0537  0.3102
   55CHL1  H18A 4024   2.565   6.288   7.463 -0.2597 -1.7367 -1.4427
   55CHL1  H18B 4025   2.421   6.292   7.363  1.2437  1.8521  0.0447
   55CHL1  H18C 4026   2.403   6.355   7.526  0.4469 -0.4411  1.7473
   55CHL1   C12 4027   2.501   6.030   7.394  1.0354 -0.1249  0.2986
   55CHL1  H12A 4028   2.612   6.025   7.401  1.0248 -0.2475  0.3866
   55CHL1  H12B 4029   2.458   5.929   7.411  1.0039 -0.5974 -2.3831
   55CHL1   C11 4030   2.462   6.064   7.250 -0.7055  0.1463 -0.1277
   55CHL1  H11A 4031   2.496   6.168   7.228  0.3883 -0.2174 -0.1907
   55CHL1  H11B 4032   2.520   6.004   7.176  0.2245  0.7543  0.0928
   55CHL1    C9 4033   2.310   6.049   7.225  0.2349 -0.3299  0.0433
   55CHL1    H9 4034   2.293   5.942   7.250 -2.5434 -0.2484 -1.2484
   55CHL1   C10 4035   2.264   6.069   7.083  0.3685 -0.0790 -0.0113
   55CHL1   C19 4036   2.355   6.191   7.040  0.2298  0.3437 -0.1752
   55CHL1  H19A 4037   2.347   6.282   7.102 -0.9558 -0.5703  1.0466
   55CHL1  H19B 4038   2.462   6.168   7.023  0.2410 -0.0643  0.4394
   55CHL1  H19C 4039   2.328   6.218   6.936  0.4036  1.7674  0.1401
   55CHL1    C1 4040   2.314   5.945   6.997 -0.0591  0.4482 -0.4096
   55CHL1   H1A 4041   2.421   5.915   6.987 -0.6431 -1.8851 -0.1083
   55CHL1   H1B 4042   2.271   5.859   7.053  0.4644  0.5117  0.0893
   55CHL1    C2 4043   2.261   5.954   6.857 -0.2101 -0.3320  0.9280
   55CHL1   H2A 4044   2.296   5.870   6.794 -2.0965 -0.1672 -0.4103
   55CHL1   H2B 4045   2.290   6.048   6.805 -1.7731 -0.9567 -1.1763
   55CHL1   C20 4046   2.554   6.147   7.730 -0.1702  0.0140 -0.2426
   55CHL1   H20 4047   2.556   6.256   7.710  1.4227 -0.0676 -0.6247
   55CHL1   C21 4048   2.689   6.088   7.683  0.9192  0.1964 -0.1698
   55CHL1  H21A 4049   2.701   5.984   7.718 -0.9253 -1.1064 -3.2274
   55CHL1  H21B 4050   2.771   6.152   7.721  1.6177 -0.4385 -0.5966
   55CHL1  H21C 4051   2.698   6.094   7.572  1.8757  1.3885 -0.0440
   55CHL1   C22 4052   2.532   6.119   7.878 -0.1140 -0.3866 -0.2348
   55CHL1  H22A 4053   2.457   6.180   7.932  0.1681 -0.1072 -0.1568
   55CHL1  H22B 4054   2.506   6.011   7.885  0.3289 -0.4409  0.6139
   55CHL1   C23 4055   2.648   6.150   7.973  0.5943 -0.7632 -0.2355
   55CHL1  H23A 4056   2.738   6.098   7.933  0.0949 -1.8113 -0.0108
   55CHL1  H23B 4057   2.668   6.258   7.959 -0.8592 -0.5279 -0.6206
   55CHL1   C24 4058   2.615   6.116   8.121  0.1250  0.0606  0.5601
   55CHL1  H24A 4059   2.506   6.138   8.131 -0.1804 -1.5472  0.8711
   55CHL1  H24B 4060   2.633   6.011   8.152 -0.0942  0.4587  2.1059
   55CHL1   C25 4061   2.711   6.198   8.205 -0.5348  0.0719  0.0514
   55CHL1   H25 4062   2.679   6.299   8.171  0.3148 -0.0310 -1.0791
   55CHL1   C26 4063   2.675   6.168   8.346  0.1593  0.3664 -0.1541
   55CHL1  H26A 4064   2.733   6.079   8.378 -0.0174  0.4091  0.2847
   55CHL1  H26B 4065   2.721   6.246   8.411  2.0803 -1.0060  0.1810
   55CHL1  H26C 4066   2.568   6.142   8.359  0.2379  0.6226  1.1039
   55CHL1   C27 4067   2.859   6.162   8.171 -0.0568  0.4289 -0.6192
   55CHL1  H27A 4068   2.915   6.177   8.266 -0.0333 -2.5991 -0.0812
   55CHL1  H27B 4069   2.862   6.056   8.137 -0.1245 -0.3591  1.7581
   55CHL1  H27C 4070   2.890   6.233   8.091 -0.8454  0.4133 -0.9364
   56CHL1    C3 4071   1.484   4.354   7.049  0.2607  0.4242  0.8356
   56CHL1    H3 4072   1.504   4.460   7.073  2.0706  0.2967 -0.0735
   56CHL1    O3 4073   1.413   4.349   6.929  0.1206  0.4443  0.8619
   56CHL1   H3' 4074   1.469   4.372   6.854 -1.6505 -3.4226 -1.8123
   56CHL1    C4 4075   1.623   4.287   7.038  0.4567 -0.2830  0.2761
   56CHL1   H4A 4076   1.621   4.182   7.001  1.4894  0.4023 -1.8011
   56CHL1   H4B 4077   1.672   4.342   6.955 -1.8423 -0.7113 -1.4398
   56CHL1    C5 4078   1.701   4.288   7.170  0.7260 -0.0113 -0.5603
   56CHL1    C6 4079   1.817   4.341   7.177 -0.7890  0.8370  0.3925
   56CHL1    H6 4080   1.868   4.384   7.090 -1.7784 -0.1616 -0.6832
   56CHL1    C7 4081   1.900   4.335   7.303 -0.4963 -0.2897  0.1469
   56CHL1   H7A 4082   1.998   4.288   7.276 -2.3546 -4.1443 -0.2620
   56CHL1   H7B 4083   1.916   4.440   7.334 -0.8557 -0.9656  2.7505
   56CHL1    C8 4084   1.844   4.250   7.415  0.2286 -0.0412 -0.6309
   56CHL1    H8 4085   1.866   4.142   7.399 -0.1235 -0.3177  0.7042
   56CHL1   C14 4086   1.904   4.302   7.547 -0.3859  0.3356  0.5317
   56CHL1   H14 4087   1.869   4.407   7.550 -0.0255  0.5423 -1.7396
   56CHL1   C15 4088   2.052   4.321   7.578  0.2566  0.5100  0.0555
   56CHL1  H15A 4089   2.123   4.250   7.530  0.7890  0.4973  0.8445
   56CHL1  H15B 4090   2.080   4.413   7.523  2.4056 -0.2042 -0.1029
   56CHL1   C16 4091   2.067   4.336   7.726  0.7237  0.3769  0.5814
   56CHL1  H16A 4092   2.128   4.250   7.763  2.1859  1.1822  0.0999
   56CHL1  H16B 4093   2.108   4.434   7.757  1.6663  0.1199  0.1860
   56CHL1   C17 4094   1.917   4.317   7.782  0.1542 -0.3181  0.0422
   56CHL1   H17 4095   1.880   4.421   7.770  1.9490  0.5310  1.5684
   56CHL1   C13 4096   1.848   4.227   7.677 -0.0454 -0.3243 -0.3106
   56CHL1   C18 4097   1.893   4.083   7.695 -0.1052 -0.7572  0.3393
   56CHL1  H18A 4098   1.861   4.044   7.794 -1.6281  4.0018  1.8504
   56CHL1  H18B 4099   1.853   4.018   7.615 -1.6598  1.3669 -0.6420
   56CHL1  H18C 4100   2.003   4.064   7.689  0.8378  3.6195  1.4542
   56CHL1   C12 4101   1.694   4.233   7.683  0.0140  0.2281  0.0035
   56CHL1  H12A 4102   1.670   4.167   7.769 -1.3212  0.3471 -0.2659
   56CHL1  H12B 4103   1.663   4.339   7.692  0.6672  0.5816 -1.7518
   56CHL1   C11 4104   1.632   4.183   7.550 -0.1383 -0.0418 -0.3177
   56CHL1  H11A 4105   1.663   4.077   7.540 -0.6881 -0.2924  0.5298
   56CHL1  H11B 4106   1.522   4.177   7.565 -0.1454 -0.0564 -0.3758
   56CHL1    C9 4107   1.689   4.258   7.420  0.6810 -0.2989 -0.2144
   56CHL1    H9 4108   1.664   4.364   7.441 -1.3688 -1.0513  1.2700
   56CHL1   C10 4109   1.620   4.225   7.288  0.1645  0.3252 -0.1902
   56CHL1   C19 4110   1.604   4.073   7.279 -0.1094  0.6799  0.1124
   56CHL1  H19A 4111   1.550   4.044   7.186 -4.2835  0.3674  2.4981
   56CHL1  H19B 4112   1.703   4.024   7.268 -0.7571 -0.4781 -0.6633
   56CHL1  H19C 4113   1.543   4.021   7.356  2.1555 -3.7597 -0.9457
   56CHL1    C1 4114   1.476   4.288   7.291 -0.2127  0.6980  0.9003
   56CHL1   H1A 4115   1.416   4.228   7.364  0.9090  1.1046  2.1897
   56CHL1   H1B 4116   1.495   4.393   7.323  2.4197  0.8181 -0.9477
   56CHL1    C2 4117   1.392   4.301   7.160  0.4718  0.0740  0.0836
   56CHL1   H2A 4118   1.311   4.374   7.181  1.2545  1.5971 -2.0669
   56CHL1   H2B 4119   1.368   4.198   7.127  0.2198  0.2003 -0.1251
   56CHL1   C20 4120   1.916   4.271   7.930 -0.1608 -0.3269 -0.2118
   56CHL1   H20 4121   1.934   4.162   7.946  1.6487  0.0062  0.1220
   56CHL1   C21 4122   1.776   4.311   7.991  0.4574  0.0331  0.0808
   56CHL1  H21A 4123   1.776   4.304   8.102 -0.2808 -0.4958  0.0461
   56CHL1  H21B 4124   1.698   4.237   7.965  0.1470  0.1763  0.5934
   56CHL1  H21C 4125   1.728   4.403   7.953 -0.6692  0.4127  2.3527
   56CHL1   C22 4126   2.035   4.339   8.001 -0.1165  0.4058  0.8667
   56CHL1  H22A 4127   2.125   4.297   7.952  0.8003  2.7319  0.4804
   56CHL1  H22B 4128   2.052   4.448   7.985  0.0156  0.2926  0.2252
   56CHL1   C23 4129   2.046   4.296   8.148  0.3928  0.0162 -0.6019
   56CHL1  H23A 4130   1.949   4.322   8.198  1.4752  1.6655  0.7121
   56CHL1  H23B 4131   2.058   4.186   8.142 -0.8736 -0.1475 -0.3992
   56CHL1   C24 4132   2.172   4.358   8.219 -0.3247  0.4299 -0.5954
   56CHL1  H24A 4133   2.257   4.304   8.173 -0.0742 -0.7828  1.2499
   56CHL1  H24B 4134   2.195   4.465   8.198  0.0837 -0.0766 -2.7811
   56CHL1   C25 4135   2.176   4.329   8.370  0.2185  0.1149  0.1609
   56CHL1   H25 4136   2.078   4.368   8.406  0.0374  0.4886 -0.7373
   56CHL1   C26 4137   2.176   4.173   8.397  0.2799  0.2078 -0.1516
   56CHL1  H26A 4138   2.081   4.129   8.360  0.3529 -1.0787  1.1550
   56CHL1  H26B 4139   2.175   4.149   8.505  1.1169  0.1705 -0.1419
   56CHL1  H26C 4140   2.260   4.118   8.348  0.0028 -0.2518 -0.1080
   56CHL1   C27 4141   2.300   4.401   8.424 -0.1281  0.4199 -0.6481
   56CHL1  H27A 4142   2.384   4.380   8.354 -0.0453  1.9739 -1.0270
   56CHL1  H27B 4143   2.288   4.512   8.423  1.4241  0.5873 -2.6433
   56CHL1  H27C 4144   2.325   4.373   8.529 -0.4248  1.0198 -0.4154
   57SAPC     N 4145   2.154   1.010  10.853  0.3119 -0.5067  0.1379
   57SAPC   C12 4146   2.112   0.985  10.704  0.8237  0.3196  0.1271
   57SAPC  H12A 4147   2.175   1.044  10.639  0.6443 -1.6115 -1.8343
   57SAPC  H12B 4148   2.011   1.016  10.685  0.2975 -1.3516  0.1501
   57SAPC   C13 4149   2.089   0.912  10.939  0.8697  0.2035 -0.7764
   57SAPC  H13A 4150   2.099   0.813  10.898 -3.3653 -0.8597  0.5098
   57SAPC  H13B 4151   2.141   0.905  11.033  2.2123 -1.1845 -1.5885
   57SAPC  H13C 4152   1.983   0.929  10.951  0.9025 -0.0473 -0.1614
   57SAPC   C14 4153   2.303   1.006  10.872 -0.4420  0.6903  0.1970
   57SAPC  H14A 4154   2.334   1.044  10.969 -0.8686 -2.3640  1.6040
   57SAPC  H14B 4155   2.339   0.904  10.867  0.7236  1.2109 -3.5857
   57SAPC  H14C 4156   2.352   1.070  10.801 -0.9283  0.7028 -0.1313
   57SAPC   C15 4157   2.103   1.141  10.896  0.2809 -0.0803  0.0771
   57SAPC  H15A 4158   1.996   1.143  10.910 -0.2813 -1.5036 -3.3224
   57SAPC  H15B 4159   2.159   1.179  10.980 -1.4016 -2.3062  2.2808
   57SAPC  H15C 4160   2.116   1.216  10.819 -2.2915  0.9390  0.5950
   57SAPC   C11 4161   2.116   0.837  10.640  0.0406  0.8659 -0.5243
   57SAPC  H11A 4162   2.219   0.794  10.646 -0.9376 -1.2500  1.9374
   57SAPC  H11B 4163   2.094   0.850  10.532 -2.4605 -0.5104 -0.2130
   57SAPC     P 4164   1.876   0.769  10.669 -0.2281 -0.0544 -0.0666
   57SAPC   O13 4165   1.810   0.644  10.703 -0.7008 -0.2322  0.0761
   57SAPC   O14 4166   1.820   0.892  10.734 -0.3284  0.2266  0.3559
   57SAPC   O12 4167   2.032   0.758  10.716  0.2946  0.2783 -0.0107
   57SAPC   O11 4168   1.885   0.788  10.512  0.2392 -0.3508 -0.6837
   57SAPC    C1 4169   1.934   0.678  10.435 -0.1887 -0.5049 -0.6320
   57SAPC    HA 4170   1.998   0.729  10.359 -0.7450  0.3251 -0.5501
   57SAPC    HB 4171   1.988   0.597  10.489  0.5937  0.7702  0.5529
   57SAPC    C2 4172   1.811   0.629  10.344 -0.5506 -0.0278  0.0282
   57SAPC    HS 4173   1.762   0.541  10.392  0.8539 -0.6990  0.2646
   57SAPC   O21 4174   1.872   0.595  10.226 -0.8211 -0.5370 -0.2787
   57SAPC   C21 4175   1.825   0.499  10.150 -0.2776 -0.0275  0.3671
   57SAPC   O22 4176   1.721   0.440  10.159 -0.1691  0.2710  0.1993
   57SAPC   C22 4177   1.923   0.482  10.031 -0.1106 -0.3842 -0.1275
   57SAPC   H2R 4178   2.010   0.432  10.080  0.5452  0.1303 -0.7471
   57SAPC   H2S 4179   1.879   0.409   9.959  0.3219 -1.6245  0.8496
   57SAPC    C3 4180   1.702   0.738  10.319  0.6696 -0.2679  0.3593
   57SAPC    HX 4181   1.761   0.824  10.280 -0.8294  0.5135 -0.2341
   57SAPC    HY 4182   1.651   0.774  10.410  0.6219  1.7398 -0.4202
   57SAPC   O31 4183   1.595   0.695  10.237  0.2678 -0.0034 -0.1960
   57SAPC   C31 4184   1.552   0.794  10.150 -0.0820 -0.1318 -0.2910
   57SAPC   O32 4185   1.584   0.912  10.157 -0.2868 -0.1020  0.1862
   57SAPC   C32 4186   1.455   0.735  10.047 -0.1745 -0.5160 -0.1715
   57SAPC   H2X 4187   1.351   0.722  10.084  0.1339  0.2293  0.9854
   57SAPC   H2Y 4188   1.492   0.634  10.019  0.4417  0.1936 -2.0330
   57SAPC   C23 4189   1.958   0.618   9.961  0.5018  0.6512  0.0047
   57SAPC   H3R 4190   2.045   0.603   9.893  0.5192 -0.0531  0.1750
   57SAPC   H3S 4191   1.995   0.693  10.034  2.3298 -0.3118  0.1227
   57SAPC   C24 4192   1.837   0.675   9.895 -0.5822 -0.0189  0.1884
   57SAPC   H4R 4193   1.883   0.752   9.830  0.2698  0.1995  1.0402
   57SAPC   H4S 4194   1.772   0.732   9.964  0.9685 -0.5424  2.1297
   57SAPC   C25 4195   1.754   0.584   9.804 -0.0124  0.4555 -0.5879
   57SAPC   H5R 4196   1.710   0.500   9.861 -1.0841  0.9453 -0.6723
   57SAPC   C26 4197   1.725   0.607   9.679 -0.3554  0.1268  0.4766
   57SAPC   H6R 4198   1.660   0.539   9.624 -0.8255  0.6300  0.3990
   57SAPC   C27 4199   1.773   0.735   9.606  0.0748  0.8946 -0.0985
   57SAPC   H7R 4200   1.883   0.727   9.605  0.0437  0.2654  0.6137
   57SAPC   H7S 4201   1.737   0.827   9.657 -1.0514  0.5516 -0.2606
   57SAPC   C28 4202   1.726   0.740   9.459 -0.1124 -0.1286  0.1739
   57SAPC   H8R 4203   1.632   0.685   9.441  1.1478 -2.0384 -0.6402
   57SAPC   C29 4204   1.785   0.805   9.351 -0.1877 -1.0299 -0.2902
   57SAPC   H9R 4205   1.746   0.805   9.248 -0.2971  1.1332 -0.2739
   57SAPC  C210 4206   1.909   0.896   9.352  0.4752  0.4202 -0.1308
   57SAPC  H10R 4207   1.910   0.967   9.438  1.8001  0.2416  0.0134
   57SAPC  H10S 4208   1.911   0.970   9.269 -1.1618  1.4416  0.7111
   57SAPC  C211 4209   2.034   0.815   9.357  0.8928 -1.0608  0.4793
   57SAPC  H11R 4210   2.085   0.826   9.453 -2.0649  1.9098  1.7856
   57SAPC  C212 4211   2.093   0.731   9.266  0.0327 -0.3616  0.1910
   57SAPC  H12R 4212   2.195   0.690   9.280  0.3860  0.0924 -0.9761
   57SAPC  C213 4213   2.044   0.709   9.123  0.0698 -0.2624 -0.0703
   57SAPC  H13R 4214   2.125   0.686   9.050  1.1194 -1.0205  1.3040
   57SAPC  H13S 4215   1.996   0.801   9.082 -0.0994 -0.2712  0.1074
   57SAPC  C214 4216   1.938   0.601   9.136 -0.2164  0.7122  0.4787
   57SAPC  H14R 4217   1.917   0.553   9.232  1.6346 -1.2224 -0.0537
   57SAPC  C215 4218   1.869   0.553   9.028  0.0045 -0.7410 -0.1229
   57SAPC  H15R 4219   1.792   0.476   9.045 -1.5123  0.7423 -0.1639
   57SAPC  C216 4220   1.880   0.590   8.879 -0.1983 -0.1597  0.0073
   57SAPC  H16R 4221   1.923   0.499   8.833  0.4063 -0.1175  0.4841
   57SAPC  H16S 4222   1.960   0.668   8.871 -0.9830  0.4302 -2.4920
   57SAPC  C217 4223   1.741   0.629   8.823 -0.6729  0.4328  0.1995
   57SAPC  H17R 4224   1.672   0.542   8.835  0.0686 -0.4367 -1.6359
   57SAPC  H17S 4225   1.749   0.651   8.714 -0.2545 -1.0246 -0.0733
   57SAPC  C218 4226   1.682   0.759   8.886  0.0987  0.4958 -0.2912
   57SAPC  H18R 4227   1.686   0.758   8.997 -0.3206  0.2615 -0.2765
   57SAPC  H18S 4228   1.576   0.758   8.850 -0.8109  0.0280  2.3111
   57SAPC  C219 4229   1.756   0.896   8.846  0.0846  0.5298 -0.2286
   57SAPC  H19R 4230   1.767   0.905   8.736 -0.8073  0.6842 -0.3148
   57SAPC  H19S 4231   1.858   0.887   8.889  0.3568 -1.8647 -1.3019
   57SAPC  C220 4232   1.686   1.023   8.901 -0.0926 -0.0781  0.0487
   57SAPC  H20R 4233   1.728   1.115   8.854 -1.3457 -0.6364 -2.2376
   57SAPC  H20S 4234   1.697   1.023   9.012 -0.4625  4.0067  0.1807
   57SAPC  H20T 4235   1.577   1.018   8.884 -0.1254 -1.4456  0.6581
   57SAPC   C33 4236   1.445   0.829   9.921 -0.2363  0.7258 -0.3287
   57SAPC   H3X 4237   1.545   0.834   9.871  0.0754 -1.3360  0.0367
   57SAPC   H3Y 4238   1.413   0.934   9.935 -1.4857  0.3086 -0.0187
   57SAPC   C34 4239   1.348   0.768   9.820  0.0676 -0.5844 -0.5152
   57SAPC   H4X 4240   1.249   0.761   9.871 -0.4845 -0.0408 -1.4969
   57SAPC   H4Y 4241   1.373   0.661   9.802  1.8339 -0.2297 -0.1756
   57SAPC   C35 4242   1.344   0.848   9.691 -0.7949  0.3674  0.0936
   57SAPC   H5X 4243   1.450   0.869   9.665 -1.1457 -0.8462 -2.3923
   57SAPC   H5Y 4244   1.286   0.940   9.714  0.3370  0.7031  1.6691
   57SAPC   C36 4245   1.273   0.768   9.578 -0.0678 -0.1106 -0.1759
   57SAPC   H6X 4246   1.163   0.757   9.589  0.0676 -2.4193 -0.8181
   57SAPC   H6Y 4247   1.305   0.662   9.563  0.4981  0.0620 -0.1944
   57SAPC   C37 4248   1.297   0.836   9.447 -0.1553  0.2772 -0.5619
   57SAPC   H7X 4249   1.405   0.835   9.422  0.2703  0.0970  1.2047
   57SAPC   H7Y 4250   1.274   0.945   9.445 -0.6438  0.1853 -0.0672
   57SAPC   C38 4251   1.231   0.776   9.327  0.2505 -0.6514  0.0690
   57SAPC   H8X 4252   1.120   0.773   9.328  0.2427 -0.2914  0.4700
   57SAPC   H8Y 4253   1.274   0.674   9.323  0.0161 -0.7272 -0.5120
   57SAPC   C39 4254   1.263   0.844   9.191 -0.4410  0.2684 -0.2211
   57SAPC   H9X 4255   1.371   0.870   9.189  0.0576 -1.7569 -1.6692
   57SAPC   H9Y 4256   1.209   0.940   9.178 -2.1412 -0.9420 -2.5079
   57SAPC  C310 4257   1.232   0.751   9.066 -0.5205  0.4392  0.4274
   57SAPC  H10X 4258   1.133   0.700   9.073  0.7407 -2.3254 -1.2582
   57SAPC  H10Y 4259   1.311   0.673   9.064 -1.2589 -0.4633  3.3547
   57SAPC  C311 4260   1.242   0.821   8.931  0.0488  0.5273  0.9378
   57SAPC  H11X 4261   1.339   0.875   8.925  0.0005  0.3166 -2.1780
   57SAPC  H11Y 4262   1.159   0.895   8.930  0.4912  1.0129 -0.4203
   57SAPC  C312 4263   1.227   0.719   8.813  0.1388 -0.5646  0.0918
   57SAPC  H12X 4264   1.165   0.631   8.839 -0.8003  0.1959  0.4389
   57SAPC  H12Y 4265   1.328   0.674   8.805 -0.0904 -1.0724  0.0508
   57SAPC  C313 4266   1.185   0.782   8.681  0.6738  0.3446 -0.6251
   57SAPC  H13X 4267   1.199   0.699   8.609  0.1659  1.6844 -2.2990
   57SAPC  H13Y 4268   1.258   0.861   8.656 -0.3113  1.8453  1.0708
   57SAPC  C314 4269   1.034   0.815   8.669 -1.2932 -0.5343 -0.1423
   57SAPC  H14X 4270   1.013   0.894   8.744 -1.3674  0.4820 -1.2222
   57SAPC  H14Y 4271   0.970   0.732   8.706  2.1685 -3.0667  0.4515
   57SAPC  C315 4272   0.988   0.871   8.532 -0.5395  0.6989  0.6873
   57SAPC  H15X 4273   1.005   0.782   8.467  4.7138  1.8253  0.2958
   57SAPC  H15Y 4274   1.057   0.953   8.504 -1.4771  1.1540 -0.3265
   57SAPC  C316 4275   0.841   0.911   8.536  0.4231 -0.6958  0.6918
   57SAPC  H16X 4276   0.817   0.983   8.618  1.0640  1.1777 -0.7366
   57SAPC  H16Y 4277   0.782   0.817   8.549  0.1352 -0.6717 -0.3978
   57SAPC  C317 4278   0.806   0.979   8.403  0.5150  0.3506  0.2168
   57SAPC  H17X 4279   0.837   0.914   8.318 -1.5367  0.2637 -0.5093
   57SAPC  H17Y 4280   0.861   1.075   8.398  2.3723 -0.6756  0.4824
   57SAPC  C318 4281   0.652   1.010   8.392 -0.5683 -0.5147 -0.3384
   57SAPC  H18X 4282   0.645   1.077   8.304 -0.2105 -2.8252 -2.1898
   57SAPC  H18Y 4283   0.613   1.066   8.478 -1.5757 -0.0891 -1.0651
   57SAPC  H18Z 4284   0.592   0.918   8.375  0.9689 -1.4028 -1.1291
   58SAPC     N 4285   3.309   5.391  10.746 -0.2286  0.6131  0.0648
   58SAPC   C12 4286   3.388   5.434  10.622 -1.1744 -0.4163  0.1981
   58SAPC  H12A 4287   3.321   5.451  10.539 -2.7052 -2.5365  0.9431
   58SAPC  H12B 4288   3.449   5.351  10.589 -1.3474  0.5873 -2.7966
   58SAPC   C13 4289   3.212   5.492  10.802  0.0642  0.4100  1.2370
   58SAPC  H13A 4290   3.270   5.582  10.817  2.8913 -1.2225  0.3442
   58SAPC  H13B 4291   3.138   5.505  10.724  0.9056  0.4993  0.4503
   58SAPC  H13C 4292   3.154   5.466  10.890  0.2412  0.6772  1.4338
   58SAPC   C14 4293   3.225   5.286  10.703 -0.3277  0.2202  0.3538
   58SAPC  H14A 4294   3.151   5.255  10.776 -0.1774 -0.0632  0.3861
   58SAPC  H14B 4295   3.154   5.327  10.634 -0.1724 -1.4479 -0.8252
   58SAPC  H14C 4296   3.272   5.200  10.657 -1.2982  1.9795 -4.0945
   58SAPC   C15 4297   3.400   5.357  10.857 -0.0599 -0.5728 -0.2446
   58SAPC  H15A 4298   3.472   5.437  10.869  0.7802 -1.5454  1.5161
   58SAPC  H15B 4299   3.345   5.330  10.946  1.9615 -0.5637  1.0277
   58SAPC  H15C 4300   3.454   5.265  10.837 -3.6061 -2.1806 -3.0288
   58SAPC   C11 4301   3.480   5.557  10.639  0.5391 -0.2461 -0.2146
   58SAPC  H11A 4302   3.439   5.645  10.693 -1.3088  0.3223 -2.4804
   58SAPC  H11B 4303   3.515   5.587  10.538  2.5846  0.6215  0.7267
   58SAPC     P 4304   3.711   5.440  10.667 -0.3001  0.2319  0.2487
   58SAPC   O13 4305   3.818   5.417  10.771  0.3691  0.5836 -0.1116
   58SAPC   O14 4306   3.669   5.319  10.606 -0.6304  0.3822 -0.3757
   58SAPC   O12 4307   3.585   5.518  10.728 -0.2427 -0.0895  0.2011
   58SAPC   O11 4308   3.768   5.531  10.543  0.1535 -0.2204 -0.3422
   58SAPC    C1 4309   3.844   5.477  10.437 -0.3390 -0.5853 -0.1406
   58SAPC    HA 4310   3.937   5.538  10.440  0.1083 -1.2022 -1.2376
   58SAPC    HB 4311   3.890   5.378  10.458 -0.1417 -0.2307  1.2087
   58SAPC    C2 4312   3.758   5.492  10.309  0.1923 -0.3119  0.5470
   58SAPC    HS 4313   3.827   5.470  10.224 -0.1571 -1.5265  0.5761
   58SAPC   O21 4314   3.695   5.620  10.289  0.5076  0.3254 -0.5594
   58SAPC   C21 4315   3.780   5.718  10.274  0.6221  0.2952 -0.4897
   58SAPC   O22 4316   3.901   5.712  10.256  0.7475  0.1170 -0.3607
   58SAPC   C22 4317   3.698   5.842  10.249 -0.2326  0.0163  0.2376
   58SAPC   H2R 4318   3.613   5.819  10.181  0.7150 -1.1675 -0.5586
   58SAPC   H2S 4319   3.651   5.870  10.346  0.3494  0.7918  0.3001
   58SAPC    C3 4320   3.650   5.384  10.315 -0.2268  0.1730  0.5479
   58SAPC    HX 4321   3.586   5.411  10.401 -0.6842  3.5974 -0.7826
   58SAPC    HY 4322   3.701   5.290  10.346 -0.8356 -0.3623 -0.0740
   58SAPC   O31 4323   3.584   5.366  10.187 -0.0593  0.1495 -0.1940
   58SAPC   C31 4324   3.454   5.335  10.197  0.5842  0.5087  0.5904
   58SAPC   O32 4325   3.394   5.319  10.300  0.1617 -0.5010 -0.3782
   58SAPC   C32 4326   3.393   5.321  10.061  0.3479  0.0691  0.2052
   58SAPC   H2X 4327   3.300   5.383  10.064 -1.5395 -2.7097  1.2203
   58SAPC   H2Y 4328   3.359   5.216  10.050 -0.4352  0.1554  1.7478
   58SAPC   C23 4329   3.776   5.966  10.198 -0.5360 -0.4118  0.2126
   58SAPC   H3R 4330   3.864   5.979  10.265  0.7805  1.9426 -1.9083
   58SAPC   H3S 4331   3.717   6.056  10.228  1.4599  1.0802 -0.2548
   58SAPC   C24 4332   3.806   5.956  10.049 -0.4529  0.2685 -0.2898
   58SAPC   H4R 4333   3.711   5.919  10.004  0.5273 -0.5933 -1.6974
   58SAPC   H4S 4334   3.889   5.884  10.035  0.6135  1.2164  0.9749
   58SAPC   C25 4335   3.844   6.087   9.994 -0.9309  0.2298 -0.1894
   58SAPC   H5R 4336   3.864   6.165  10.069 -0.7274 -1.1006  1.1768
   58SAPC   C26 4337   3.846   6.112   9.867  0.2224 -0.3152 -0.4707
   58SAPC   H6R 4338   3.881   6.211   9.834  0.0483 -0.0920  0.0094
   58SAPC   C27 4339   3.812   6.028   9.745 -0.1694  0.0192  0.4703
   58SAPC   H7R 4340   3.767   5.931   9.775 -0.7403 -0.4539 -1.7966
   58SAPC   H7S 4341   3.909   6.000   9.697  0.1470  2.0952 -0.1410
   58SAPC   C28 4342   3.709   6.089   9.651 -0.1294  0.2850 -0.1503
   58SAPC   H8R 4343   3.607   6.104   9.690 -1.0314 -1.1846 -1.8972
   58SAPC   C29 4344   3.729   6.099   9.518  0.5977  0.0963  0.9338
   58SAPC   H9R 4345   3.648   6.134   9.452  0.6486  1.1015  1.3915
   58SAPC  C210 4346   3.844   6.057   9.438 -0.5587 -0.3751  1.2622
   58SAPC  H10R 4347   3.808   6.037   9.335 -0.2050  1.3728  0.7840
   58SAPC  H10S 4348   3.889   5.963   9.477 -1.7785 -1.5971 -0.2233
   58SAPC  C211 4349   3.945   6.171   9.447  0.0230 -0.1166 -0.4451
   58SAPC  H11R 4350   3.991   6.193   9.544 -0.9549 -1.3359  0.3111
   58SAPC  C212 4351   3.983   6.245   9.344 -0.6340  0.0546  0.3986
   58SAPC  H12R 4352   4.054   6.324   9.371 -1.2804  0.3402  1.2953
   58SAPC  C213 4353   3.950   6.228   9.195  0.6740  0.5505 -0.3923
   58SAPC  H13R 4354   3.870   6.153   9.177  0.6869  0.7490 -1.3193
   58SAPC  H13S 4355   4.038   6.198   9.135  1.6189  0.9492  0.7856
   58SAPC  C214 4356   3.889   6.353   9.134  0.3301 -0.3385 -0.0787
   58SAPC  H14R 4357   3.784   6.377   9.153 -0.1247  1.1758 -3.9156
   58SAPC  C215 4358   3.939   6.434   9.040  0.5041 -0.4173  1.2831
   58SAPC  H15R 4359   3.881   6.521   9.005  0.9789 -0.8039 -0.5341
   58SAPC  C216 4360   4.079   6.429   8.979 -0.5444  0.4817 -0.2752
   58SAPC  H16R 4361   4.146   6.359   9.034 -1.8017  1.1907  2.1722
   58SAPC  H16S 4362   4.137   6.523   8.987  0.2604  0.0889 -1.2289
   58SAPC  C217 4363   4.069   6.381   8.834 -0.4317 -0.1334 -0.6003
   58SAPC  H17R 4364   3.998   6.440   8.773 -0.6708 -0.7085 -0.8830
   58SAPC  H17S 4365   4.045   6.272   8.828  0.1073 -0.1550 -3.1682
   58SAPC  C218 4366   4.203   6.381   8.764  0.2136  0.1104 -0.6123
   58SAPC  H18R 4367   4.268   6.308   8.816 -2.1980 -1.6163  0.1020
   58SAPC  H18S 4368   4.245   6.483   8.772 -0.6105  0.7141 -3.3530
   58SAPC  C219 4369   4.197   6.343   8.613  0.3905 -0.2493 -0.1715
   58SAPC  H19R 4370   4.170   6.236   8.602 -0.0843 -0.0416 -1.0118
   58SAPC  H19S 4371   4.297   6.350   8.564  1.2360 -0.9150  1.3882
   58SAPC  C220 4372   4.090   6.412   8.515 -0.1999  0.2226  0.0986
   58SAPC  H20R 4373   3.994   6.404   8.572  1.0018 -0.6638  2.0657
   58SAPC  H20S 4374   4.085   6.345   8.427  0.6318  0.3995 -0.0900
   58SAPC  H20T 4375   4.118   6.517   8.488  0.6419  1.2605  4.5498
   58SAPC   C33 4376   3.486   5.370   9.946 -0.1849  0.0924 -0.2625
   58SAPC   H3X 4377   3.576   5.306   9.946 -1.1020 -1.2211 -1.5633
   58SAPC   H3Y 4378   3.524   5.474   9.957  2.8063 -0.5472 -3.8015
   58SAPC   C34 4379   3.412   5.362   9.812  0.5858  0.1525  0.3712
   58SAPC   H4X 4380   3.321   5.425   9.823 -0.3248 -0.9825 -0.5684
   58SAPC   H4Y 4381   3.374   5.259   9.794 -0.6973  0.7977 -0.6408
   58SAPC   C35 4382   3.501   5.398   9.693 -0.1817  0.0056 -0.3036
   58SAPC   H5X 4383   3.590   5.332   9.690  0.8187  1.2323  1.3344
   58SAPC   H5Y 4384   3.536   5.504   9.697 -0.7852  0.1578  1.1996
   58SAPC   C36 4385   3.431   5.374   9.559 -0.0961  0.0380  0.3664
   58SAPC   H6X 4386   3.346   5.443   9.542  0.1108  0.2941  0.3690
   58SAPC   H6Y 4387   3.383   5.274   9.566  4.5863 -2.4294 -0.9820
   58SAPC   C37 4388   3.535   5.383   9.448 -0.4242 -0.3535 -0.6559
   58SAPC   H7X 4389   3.596   5.291   9.433  2.6073  1.2892  0.9442
   58SAPC   H7Y 4390   3.608   5.463   9.472  0.2383 -0.6204 -1.7352
   58SAPC   C38 4391   3.466   5.406   9.315  0.1370  0.7246 -0.0859
   58SAPC   H8X 4392   3.399   5.495   9.322 -2.7358 -1.4550  1.1956
   58SAPC   H8Y 4393   3.405   5.317   9.291 -0.1838  0.7917  0.4854
   58SAPC   C39 4394   3.564   5.438   9.202  0.2216 -0.5855  0.4297
   58SAPC   H9X 4395   3.632   5.351   9.192  0.7421  0.1195 -2.4176
   58SAPC   H9Y 4396   3.630   5.522   9.233  2.1752 -1.4776 -1.2552
   58SAPC  C310 4397   3.494   5.465   9.067 -0.2071  0.6521  0.0691
   58SAPC  H10X 4398   3.438   5.561   9.072  0.5557  1.0813  0.5656
   58SAPC  H10Y 4399   3.428   5.380   9.037 -0.3609  1.1689 -1.0726
   58SAPC  C311 4400   3.585   5.490   8.945  0.2625  0.0001 -0.0366
   58SAPC  H11X 4401   3.647   5.398   8.936 -0.9091 -0.7066 -1.1408
   58SAPC  H11Y 4402   3.647   5.580   8.962  0.4933  0.0624 -1.1472
   58SAPC  C312 4403   3.511   5.500   8.808  0.7294  0.1916 -0.1928
   58SAPC  H12X 4404   3.437   5.418   8.792  1.1305 -0.1866 -0.1279
   58SAPC  H12Y 4405   3.585   5.482   8.726  2.2051  1.5972  0.7864
   58SAPC  C313 4406   3.434   5.629   8.779 -0.4247 -0.2337  1.1479
   58SAPC  H13X 4407   3.510   5.709   8.788 -1.9760  1.3660  0.5053
   58SAPC  H13Y 4408   3.360   5.648   8.860 -0.9801  0.7785  0.4277
   58SAPC  C314 4409   3.370   5.634   8.640 -0.1213 -0.2885 -0.2218
   58SAPC  H14X 4410   3.300   5.548   8.633  0.7075 -0.8772 -1.5484
   58SAPC  H14Y 4411   3.448   5.633   8.562  0.2266 -0.3235  0.1238
   58SAPC  C315 4412   3.289   5.766   8.618  0.4508 -0.8112 -0.2739
   58SAPC  H15X 4413   3.352   5.853   8.646  0.0215 -1.2036  2.0602
   58SAPC  H15Y 4414   3.206   5.768   8.691 -0.8626 -3.0005 -1.6418
   58SAPC  C316 4415   3.226   5.770   8.480 -0.2343  0.3998 -0.1886
   58SAPC  H16X 4416   3.152   5.689   8.460  1.4535 -0.9454 -1.0965
   58SAPC  H16Y 4417   3.311   5.769   8.409  0.0252 -1.3000  0.1105
   58SAPC  C317 4418   3.147   5.901   8.450 -0.4167  0.5288 -0.0869
   58SAPC  H17X 4419   3.126   5.919   8.343  1.6402  0.5344 -0.5150
   58SAPC  H17Y 4420   3.221   5.977   8.483 -2.3165  2.8655 -1.0637
   58SAPC  C318 4421   3.024   5.941   8.532  0.3389 -0.3497 -0.2663
   58SAPC  H18X 4422   3.053   5.965   8.637 -0.0840  1.0217 -0.4508
   58SAPC  H18Y 4423   2.953   5.856   8.532  0.7790 -0.7210 -0.8463
   58SAPC  H18Z 4424   2.977   6.034   8.493 -2.8521 -2.0020 -0.5202
   59SAPC     N 4425   5.066   0.119  11.543 -0.1443  0.7379 -1.0952
   59SAPC   C12 4426   5.016   0.227  11.446  0.8588  0.1920 -0.0849
   59SAPC  H12A 4427   5.046   0.321  11.490  0.5287  0.0035  0.5577
   59SAPC  H12B 4428   4.908   0.238  11.437  0.7245 -0.0265  1.1595
   59SAPC   C13 4429   5.033  -0.020  11.502  0.6067  1.1172 -0.0739
   59SAPC  H13A 4430   4.926  -0.037  11.510  0.8908  0.2627  2.6499
   59SAPC  H13B 4431   5.075  -0.043  11.406  1.8961 -2.5092  1.2639
   59SAPC  H13C 4432   5.069  -0.099  11.567 -0.1783 -0.9346 -2.0716
   59SAPC   C14 4433   5.217   0.125  11.544 -0.2894  0.0771  0.1708
   59SAPC  H14A 4434   5.246   0.071  11.455  0.5207 -0.6755  0.8798
   59SAPC  H14B 4435   5.246   0.229  11.541  1.0511 -0.3028 -0.5414
   59SAPC  H14C 4436   5.257   0.074  11.630  3.0683  0.4726 -1.0690
   59SAPC   C15 4437   5.020   0.151  11.681 -0.3467  0.9332 -0.7271
   59SAPC  H15A 4438   5.057   0.094  11.764  0.3005  1.5511 -0.5865
   59SAPC  H15B 4439   5.054   0.249  11.711 -1.5265  0.8409  0.9485
   59SAPC  H15C 4440   4.912   0.152  11.689 -0.4559 -1.9566 -1.4372
   59SAPC   C11 4441   5.065   0.216  11.294 -0.7930  0.5155 -0.1813
   59SAPC  H11A 4442   5.174   0.231  11.313 -1.2596  2.9358  0.8197
   59SAPC  H11B 4443   5.031   0.310  11.246  0.7771  1.3583  0.3043
   59SAPC     P 4444   5.132   0.021  11.135  0.3648  0.4193  0.1746
   59SAPC   O13 4445   5.266   0.028  11.200  0.0513 -0.4967  0.2159
   59SAPC   O14 4446   5.084  -0.120  11.105  0.4585  0.8615 -0.6099
   59SAPC   O12 4447   5.030   0.097  11.224  0.0421 -0.0914  0.6920
   59SAPC   O11 4448   5.139   0.100  11.006 -0.4538 -0.3797  0.0007
   59SAPC    C1 4449   5.030   0.156  10.936 -0.1459  0.8645 -0.3018
   59SAPC    HA 4450   4.947   0.190  11.001 -0.6998  0.7164 -0.9198
   59SAPC    HB 4451   5.059   0.248  10.881  0.3022  1.6136  1.1882
   59SAPC    C2 4452   4.976   0.060  10.831  0.3472 -0.3975 -0.7996
   59SAPC    HS 4453   4.923  -0.020  10.886 -0.8506  0.3021 -0.8984
   59SAPC   O21 4454   5.091   0.006  10.759  0.5520  0.1826 -0.4210
   59SAPC   C21 4455   5.076  -0.104  10.696 -0.3860 -0.2792 -0.0608
   59SAPC   O22 4456   4.971  -0.162  10.679  0.4193 -0.1328 -0.5645
   59SAPC   C22 4457   5.212  -0.155  10.648  0.1004  0.8351  0.1406
   59SAPC   H2R 4458   5.289  -0.075  10.661  1.5230 -0.3635 -0.6447
   59SAPC   H2S 4459   5.250  -0.244  10.702  0.0646  0.4917 -0.3953
   59SAPC    C3 4460   4.875   0.136  10.738  0.3418 -0.3239  0.4871
   59SAPC    HX 4461   4.781   0.153  10.794 -0.4942  0.0514 -0.9944
   59SAPC    HY 4462   4.843   0.076  10.650  1.1627  1.8316 -1.3419
   59SAPC   O31 4463   4.937   0.263  10.692  0.1826  0.1964 -0.5161
   59SAPC   C31 4464   4.994   0.259  10.569  0.1691  0.1031 -0.3214
   59SAPC   O32 4465   5.023   0.160  10.503  0.4025  0.2926 -0.0814
   59SAPC   C32 4466   5.004   0.404  10.524 -0.1115  0.3067 -0.6939
   59SAPC   H2X 4467   5.068   0.464  10.592  1.8245 -0.0196 -2.1916
   59SAPC   H2Y 4468   4.900   0.442  10.523 -0.3429 -0.2924  0.2771
   59SAPC   C23 4469   5.194  -0.196  10.501 -0.6780  0.3519  0.1735
   59SAPC   H3R 4470   5.099  -0.171  10.450  1.2456  0.3273 -3.5481
   59SAPC   H3S 4471   5.211  -0.305  10.493  1.2784  0.5651  1.0702
   59SAPC   C24 4472   5.311  -0.136  10.406 -0.0856  0.6423 -0.5848
   59SAPC   H4R 4473   5.310  -0.181  10.305  3.2047  1.4317 -1.0050
   59SAPC   H4S 4474   5.403  -0.175  10.454  0.0524  0.1821 -1.2212
   59SAPC   C25 4475   5.323   0.011  10.387  0.5464 -0.4854  0.0769
   59SAPC   H5R 4476   5.264   0.080  10.450 -0.0517  2.3718 -3.4825
   59SAPC   C26 4477   5.411   0.069  10.307  0.0209 -0.0930  0.0453
   59SAPC   H6R 4478   5.418   0.178  10.296 -1.1217  0.0117  0.2859
   59SAPC   C27 4479   5.506  -0.008  10.220 -0.1214  0.6018 -0.3554
   59SAPC   H7R 4480   5.452  -0.057  10.137  0.8703 -1.1051 -0.0070
   59SAPC   H7S 4481   5.536  -0.102  10.272  0.3468 -0.3017 -2.2154
   59SAPC   C28 4482   5.634   0.060  10.173  0.4792  0.3528 -0.2642
   59SAPC   H8R 4483   5.718   0.050  10.243  0.0289 -2.0069 -0.0402
   59SAPC   C29 4484   5.664   0.119  10.055  0.2304  0.4280  0.1890
   59SAPC   H9R 4485   5.761   0.168  10.038 -0.2892  2.4223  2.5818
   59SAPC  C210 4486   5.569   0.131   9.938  0.0863 -0.4094  0.2607
   59SAPC  H10R 4487   5.582   0.229   9.886  0.1007 -0.2572  0.5464
   59SAPC  H10S 4488   5.465   0.130   9.976 -0.6841 -3.5383 -1.8272
   59SAPC  C211 4489   5.598   0.022   9.837  0.0021  0.1524 -0.0527
   59SAPC  H11R 4490   5.578  -0.080   9.874 -2.7209 -0.1228 -2.1731
   59SAPC  C212 4491   5.641   0.041   9.709 -0.4528  0.7756 -0.7969
   59SAPC  H12R 4492   5.666  -0.050   9.652  0.1117  0.9000 -0.7526
   59SAPC  C213 4493   5.650   0.171   9.634  0.4687 -0.5194 -0.4273
   59SAPC  H13R 4494   5.747   0.169   9.579  1.2693 -0.3114  0.9681
   59SAPC  H13S 4495   5.682   0.253   9.701 -4.5497  1.1483  0.0636
   59SAPC  C214 4496   5.525   0.211   9.548 -0.0672  0.5432  0.5641
   59SAPC  H14R 4497   5.429   0.186   9.596  0.0725 -0.2697  0.4283
   59SAPC  C215 4498   5.521   0.248   9.419  0.7008  0.7385 -0.0483
   59SAPC  H15R 4499   5.420   0.270   9.381  0.0806 -1.3585  0.2700
   59SAPC  C216 4500   5.637   0.278   9.327  0.2778  0.1575 -0.0140
   59SAPC  H16R 4501   5.732   0.228   9.353 -0.8184 -1.8062  0.2751
   59SAPC  H16S 4502   5.670   0.382   9.351 -1.4207  0.3298  1.6947
   59SAPC  C217 4503   5.609   0.244   9.181  0.0541  0.2604  0.0789
   59SAPC  H17R 4504   5.684   0.300   9.121 -0.6013  1.3272  0.2564
   59SAPC  H17S 4505   5.514   0.291   9.149 -0.0088  0.2775  0.2896
   59SAPC  C218 4506   5.609   0.100   9.135  0.4301  0.2950  0.4022
   59SAPC  H18R 4507   5.534   0.048   9.198 -0.1969  1.5918  0.7537
   59SAPC  H18S 4508   5.710   0.063   9.162  1.4320  3.6351  1.5116
   59SAPC  C219 4509   5.586   0.078   8.985 -0.0802  0.5557  0.3090
   59SAPC  H19R 4510   5.495   0.127   8.943 -0.9962 -2.6100 -1.5690
   59SAPC  H19S 4511   5.571  -0.031   8.967  0.3382  0.6589 -0.7100
   59SAPC  C220 4512   5.712   0.107   8.907 -0.1208 -0.3485  0.6667
   59SAPC  H20R 4513   5.703   0.083   8.799  0.8588  0.3849  0.4133
   59SAPC  H20S 4514   5.788   0.030   8.932 -1.0274 -1.0087  1.4274
   59SAPC  H20T 4515   5.745   0.212   8.922  2.7081 -0.6017 -2.9140
   59SAPC   C33 4516   5.067   0.421  10.387 -0.5171 -0.1479 -0.1046
   59SAPC   H3X 4517   5.155   0.355  10.370 -1.2327 -1.4118  1.0135
   59SAPC   H3Y 4518   5.106   0.525  10.380 -0.7489  0.0903  1.8563
   59SAPC   C34 4519   4.960   0.404  10.273 -0.3718  0.1828 -0.5457
   59SAPC   H4X 4520   4.864   0.457  10.293 -0.4747  0.0493 -0.6879
   59SAPC   H4Y 4521   4.937   0.296  10.259 -1.9906  0.5326 -0.7073
   59SAPC   C35 4522   5.017   0.453  10.137  0.0227 -0.5001 -0.5361
   59SAPC   H5X 4523   5.105   0.391  10.110  0.2456 -0.2020 -0.4988
   59SAPC   H5Y 4524   5.052   0.557  10.153  0.7419 -0.9373  0.8134
   59SAPC   C36 4525   4.919   0.440  10.016 -0.7185  0.3046 -0.2690
   59SAPC   H6X 4526   4.826   0.490  10.050 -0.2393  0.8929  0.2069
   59SAPC   H6Y 4527   4.896   0.332  10.019 -1.6844  0.5436  2.3740
   59SAPC   C37 4528   4.979   0.488   9.886  0.3217 -0.4383  0.3749
   59SAPC   H7X 4529   5.009   0.595   9.891 -2.6941  0.4675  0.0630
   59SAPC   H7Y 4530   4.904   0.481   9.805  2.3607 -0.9546 -1.5034
   59SAPC   C38 4531   5.106   0.401   9.842 -0.3041 -0.2488  0.8612
   59SAPC   H8X 4532   5.071   0.297   9.824  0.1791 -0.4234  0.9271
   59SAPC   H8Y 4533   5.175   0.396   9.929 -1.5551 -2.5974  1.7817
   59SAPC   C39 4534   5.176   0.459   9.722 -0.5609 -0.0489  0.1095
   59SAPC   H9X 4535   5.266   0.396   9.709 -1.5744 -1.3462 -0.7037
   59SAPC   H9Y 4536   5.209   0.565   9.733  0.7165 -0.2778 -1.3598
   59SAPC  C310 4537   5.084   0.450   9.602  0.6898  0.4207 -0.1900
   59SAPC  H10X 4538   5.008   0.531   9.605 -1.3076 -1.4373  1.9078
   59SAPC  H10Y 4539   5.032   0.353   9.617  1.3207  0.4483  2.3124
   59SAPC  C311 4540   5.164   0.462   9.474 -0.6483  0.0931 -0.0511
   59SAPC  H11X 4541   5.236   0.378   9.467 -0.7322  0.1031 -1.0451
   59SAPC  H11Y 4542   5.227   0.553   9.469 -1.2133  0.4268 -1.1716
   59SAPC  C312 4543   5.084   0.440   9.345 -0.0306  0.4607  0.3792
   59SAPC  H12X 4544   5.049   0.336   9.336 -0.9035  0.6816  1.1185
   59SAPC  H12Y 4545   5.156   0.460   9.263  0.2181 -1.3032  0.1511
   59SAPC  C313 4546   4.961   0.533   9.331 -0.6228  0.2579 -0.3783
   59SAPC  H13X 4547   4.987   0.641   9.333  0.8151 -0.0709 -0.7062
   59SAPC  H13Y 4548   4.886   0.505   9.407 -0.7707  0.3898 -0.4747
   59SAPC  C314 4549   4.889   0.517   9.199  0.2690  0.3038 -0.6488
   59SAPC  H14X 4550   4.956   0.568   9.125 -1.3387  1.5578 -1.2768
   59SAPC  H14Y 4551   4.792   0.571   9.205  0.8427  1.1827  0.9218
   59SAPC  C315 4552   4.857   0.371   9.171 -0.2018 -0.5095  0.3583
   59SAPC  H15X 4553   4.819   0.326   9.265  0.6372 -1.3603  0.2951
   59SAPC  H15Y 4554   4.951   0.323   9.139 -0.3373 -0.5394 -0.0004
   59SAPC  C316 4555   4.748   0.359   9.060  0.7624  0.0867 -0.1789
   59SAPC  H16X 4556   4.776   0.419   8.971  1.0396 -0.7484 -0.6540
   59SAPC  H16Y 4557   4.654   0.404   9.099  0.2230 -0.1862 -1.1578
   59SAPC  C317 4558   4.718   0.211   9.014  0.1047 -0.3444 -0.1513
   59SAPC  H17X 4559   4.627   0.214   8.950  0.1167  1.6243 -0.1313
   59SAPC  H17Y 4560   4.695   0.161   9.110  0.7086 -0.9003 -0.2912
   59SAPC  C318 4561   4.829   0.150   8.930  0.4371  0.1356 -0.4054
   59SAPC  H18X 4562   4.857   0.204   8.836  0.3359 -1.9031 -1.6309
   59SAPC  H18Y 4563   4.827   0.041   8.910 -0.3027 -0.0895  0.8408
   59SAPC  H18Z 4564   4.924   0.176   8.983  2.6996 -0.8284 -3.8009
   60SAPC     N 4565   5.758   5.048  10.579 -0.9642 -0.4398 -0.5905
   60SAPC   C12 4566   5.892   5.096  10.532 -0.0088  0.1912  0.0493
   60SAPC  H12A 4567   5.953   5.125  10.616 -1.6433  2.7145  0.4254
   60SAPC  H12B 4568   5.875   5.182  10.468 -0.9038  0.5880  0.8158
   60SAPC   C13 4569   5.662   5.036  10.472  0.2120 -0.7623  0.2434
   60SAPC  H13A 4570   5.581   4.977  10.512  1.2226 -2.6390 -0.4450
   60SAPC  H13B 4571   5.616   5.130  10.441 -0.5168 -1.2632 -0.2226
   60SAPC  H13C 4572   5.701   4.977  10.390 -1.1321  0.2149 -1.1447
   60SAPC   C14 4573   5.768   4.913  10.641 -0.0604  0.1104 -0.2818
   60SAPC  H14A 4574   5.674   4.874  10.678  0.2316 -0.5098 -0.1919
   60SAPC  H14B 4575   5.808   4.842  10.569 -1.7093  1.1848 -2.3230
   60SAPC  H14C 4576   5.841   4.910  10.721  1.5652  1.8113 -1.6673
   60SAPC   C15 4577   5.697   5.140  10.678  0.0798 -0.6390  0.1978
   60SAPC  H15A 4578   5.590   5.126  10.684 -0.3871  2.0846 -1.1587
   60SAPC  H15B 4579   5.755   5.142  10.769  1.9364  1.4320 -0.9782
   60SAPC  H15C 4580   5.700   5.242  10.641  2.2249 -1.1376 -1.0981
   60SAPC   C11 4581   5.977   4.993  10.448 -0.8844  1.1068  0.0429
   60SAPC  H11A 4582   6.050   5.044  10.381  0.0235 -0.3409 -0.0874
   60SAPC  H11B 4583   5.906   4.947  10.377 -2.5252  2.8514  0.5166
   60SAPC     P 4584   6.146   4.944  10.651 -0.0866 -0.3800  0.3280
   60SAPC   O13 4585   6.069   5.002  10.760 -0.5445  0.6094  0.5888
   60SAPC   O14 4586   6.242   4.836  10.685  0.0391 -0.2207 -0.1078
   60SAPC   O12 4587   6.041   4.896  10.541 -0.5100  0.0702  0.7610
   60SAPC   O11 4588   6.219   5.055  10.569 -0.6464  0.3316 -0.1745
   60SAPC    C1 4589   6.352   5.102  10.617 -0.9392  0.1259  0.0618
   60SAPC    HA 4590   6.352   5.126  10.726  0.3631 -0.2837  0.1630
   60SAPC    HB 4591   6.426   5.025  10.586  1.1340  2.1857 -0.1960
   60SAPC    C2 4592   6.407   5.224  10.541  0.4975 -0.2575 -0.1269
   60SAPC    HS 4593   6.334   5.305  10.561  1.4036  0.0213  2.2720
   60SAPC   O21 4594   6.423   5.202  10.400  0.1797  0.1681 -0.4672
   60SAPC   C21 4595   6.316   5.220  10.333  0.9236 -0.2749  0.0241
   60SAPC   O22 4596   6.214   5.283  10.359 -0.1357 -0.0481  0.1189
   60SAPC   C22 4597   6.340   5.148  10.203  0.7429 -0.1533  0.3121
   60SAPC   H2R 4598   6.451   5.152  10.193  0.9161 -1.5157  1.6309
   60SAPC   H2S 4599   6.323   5.039  10.210 -0.6565 -0.1201 -2.1550
   60SAPC    C3 4600   6.548   5.263  10.597  0.3921 -0.2274 -0.4396
   60SAPC    HX 4601   6.599   5.165  10.610 -1.9238 -1.6051 -1.5162
   60SAPC    HY 4602   6.533   5.314  10.695 -0.7044  1.5721 -1.5140
   60SAPC   O31 4603   6.615   5.345  10.501  0.1397 -0.4999  0.2721
   60SAPC   C31 4604   6.619   5.474  10.529  0.8277  0.2878  0.0021
   60SAPC   O32 4605   6.583   5.523  10.640 -0.1814 -0.2552 -0.4205
   60SAPC   C32 4606   6.688   5.548  10.413 -0.7958  0.4547  0.1187
   60SAPC   H2X 4607   6.782   5.591  10.456 -0.2359 -1.5030  0.9305
   60SAPC   H2Y 4608   6.616   5.631  10.395 -0.1497  0.9572 -0.2140
   60SAPC   C23 4609   6.267   5.209  10.086 -0.1848 -0.0570  0.4468
   60SAPC   H3R 4610   6.283   5.316  10.063 -1.7283 -0.6855 -4.0689
   60SAPC   H3S 4611   6.159   5.209  10.110 -0.1941  0.8979  0.4169
   60SAPC   C24 4612   6.288   5.135   9.947  0.2181  0.1299 -0.0936
   60SAPC   H4R 4613   6.190   5.137   9.895  1.3632  0.6444 -2.2928
   60SAPC   H4S 4614   6.320   5.037   9.989 -2.4258 -0.3367  0.9302
   60SAPC   C25 4615   6.399   5.199   9.868 -0.6064  0.4995  0.1901
   60SAPC   H5R 4616   6.480   5.248   9.924 -1.2551  1.3891  0.3627
   60SAPC   C26 4617   6.396   5.225   9.737  0.5252  0.5368 -0.6639
   60SAPC   H6R 4618   6.480   5.280   9.693  1.0029 -0.0995 -0.5679
   60SAPC   C27 4619   6.284   5.199   9.637  0.0535  0.2040  0.2257
   60SAPC   H7R 4620   6.254   5.295   9.589 -1.2384  0.1053  0.8163
   60SAPC   H7S 4621   6.198   5.176   9.703  1.4825 -0.0388  2.0726
   60SAPC   C28 4622   6.311   5.096   9.537 -0.7582 -0.1589 -0.2595
   60SAPC   H8R 4623   6.334   4.998   9.581  1.1740  1.7595  3.2494
   60SAPC   C29 4624   6.319   5.106   9.404 -0.1968  0.0132 -0.1667
   60SAPC   H9R 4625   6.342   5.011   9.353  0.9287  0.3253 -0.2586
   60SAPC  C210 4626   6.300   5.222   9.314 -0.1846  0.5070 -0.5595
   60SAPC  H10R 4627   6.400   5.255   9.277  0.9708 -0.1437  1.8861
   60SAPC  H10S 4628   6.252   5.311   9.361 -1.7091 -0.6379  0.0679
   60SAPC  C211 4629   6.216   5.178   9.200  1.2985  0.0489  1.0062
   60SAPC  H11R 4630   6.107   5.185   9.207  1.2715  0.1358  0.4913
   60SAPC  C212 4631   6.259   5.136   9.078 -0.7315  0.3478  0.2967
   60SAPC  H12R 4632   6.181   5.097   9.011  1.1119  1.0679 -2.3183
   60SAPC  C213 4633   6.395   5.122   9.019 -0.0051  0.2023  0.3348
   60SAPC  H13R 4634   6.401   5.011   9.010 -1.5944  0.0118  1.4158
   60SAPC  H13S 4635   6.476   5.145   9.091  0.7850 -2.0567  0.2245
   60SAPC  C214 4636   6.406   5.193   8.888 -0.1000 -0.4829  0.1459
   60SAPC  H14R 4637   6.421   5.302   8.892  0.4632 -0.5176 -0.7975
   60SAPC  C215 4638   6.428   5.135   8.769  0.5011  0.6816 -0.2011
   60SAPC  H15R 4639   6.432   5.199   8.679 -0.7629 -0.5470 -1.1500
   60SAPC  C216 4640   6.431   4.983   8.748 -0.6324  0.6995 -0.2466
   60SAPC  H16R 4641   6.437   4.912   8.833  3.7615  1.9601  0.6042
   60SAPC  H16S 4642   6.524   4.974   8.687 -2.6500  1.4562 -3.5833
   60SAPC  C217 4643   6.319   4.931   8.663 -0.5189 -0.2497 -0.0977
   60SAPC  H17R 4644   6.227   4.930   8.725 -1.1424  1.0783 -0.9566
   60SAPC  H17S 4645   6.352   4.827   8.640  2.4047  0.3657  1.1054
   60SAPC  C218 4646   6.301   5.008   8.535 -0.1231  0.2165  0.1358
   60SAPC  H18R 4647   6.394   5.026   8.478  0.5216 -0.2855  1.0206
   60SAPC  H18S 4648   6.261   5.109   8.558 -1.1578 -0.5602  1.8818
   60SAPC  C219 4649   6.194   4.942   8.436 -0.2060  0.1348  0.2617
   60SAPC  H19R 4650   6.097   4.925   8.486 -1.3698  0.3601 -1.8355
   60SAPC  H19S 4651   6.227   4.839   8.408 -2.0422 -0.9180  1.8503
   60SAPC  C220 4652   6.168   5.024   8.310 -0.0866  0.5335 -0.1982
   60SAPC  H20R 4653   6.252   5.010   8.238 -0.5126  0.8169 -0.7458
   60SAPC  H20S 4654   6.161   5.134   8.321  1.5498  0.5721  0.6356
   60SAPC  H20T 4655   6.077   4.981   8.263  1.2285 -1.8769 -0.6227
   60SAPC   C33 4656   6.737   5.465  10.288  0.4694 -0.9491  0.6496
   60SAPC   H3X 4657   6.650   5.406  10.253  1.2488 -1.0808 -1.1060
   60SAPC   H3Y 4658   6.817   5.392  10.313  1.5366  0.1995  0.6240
   60SAPC   C34 4659   6.793   5.557  10.178  0.1347  0.0881 -0.0714
   60SAPC   H4X 4660   6.874   5.624  10.213  0.3428 -0.2504  0.1033
   60SAPC   H4Y 4661   6.708   5.624  10.156  1.4108  1.9715  0.5833
   60SAPC   C35 4662   6.837   5.483  10.048 -0.2146  0.8309 -1.5021
   60SAPC   H5X 4663   6.923   5.416  10.067  0.4189  1.8688 -0.6384
   60SAPC   H5Y 4664   6.872   5.557   9.973  0.9404  0.7114 -1.0880
   60SAPC   C36 4665   6.720   5.389   9.995 -0.3337  0.0167 -0.6590
   60SAPC   H6X 4666   6.635   5.451   9.958  0.4115  0.2613 -1.9882
   60SAPC   H6Y 4667   6.685   5.321  10.076  0.5404  0.3021 -0.0377
   60SAPC   C37 4668   6.758   5.304   9.881 -0.2936 -0.1151  0.0261
   60SAPC   H7X 4669   6.671   5.240   9.856 -1.2923  1.4373 -0.5139
   60SAPC   H7Y 4670   6.849   5.242   9.900 -0.2790  0.1417  0.8045
   60SAPC   C38 4671   6.778   5.365   9.754  0.0972 -0.7393 -0.4351
   60SAPC   H8X 4672   6.865   5.432   9.769 -0.1727 -0.7506  1.2555
   60SAPC   H8Y 4673   6.692   5.420   9.710 -0.2428 -0.7341  0.2324
   60SAPC   C39 4674   6.823   5.260   9.645 -0.0249  0.5744 -0.0994
   60SAPC   H9X 4675   6.730   5.203   9.623  1.2690 -2.1221  1.3065
   60SAPC   H9Y 4676   6.896   5.187   9.684 -1.7340 -0.6784  0.7913
   60SAPC  C310 4677   6.876   5.321   9.515  0.8758 -0.1461  0.1347
   60SAPC  H10X 4678   6.908   5.242   9.444 -0.0509  0.2478 -0.7457
   60SAPC  H10Y 4679   6.963   5.381   9.549  0.0879  0.3001  1.4206
   60SAPC  C311 4680   6.782   5.420   9.439 -0.1554 -0.0790 -0.4962
   60SAPC  H11X 4681   6.776   5.512   9.502  1.5335  0.8060 -1.6089
   60SAPC  H11Y 4682   6.685   5.365   9.434  0.0820 -0.7896  2.0703
   60SAPC  C312 4683   6.836   5.459   9.302  0.3574 -0.3119 -0.4862
   60SAPC  H12X 4684   6.853   5.361   9.251  0.0466 -0.1426 -0.9179
   60SAPC  H12Y 4685   6.928   5.516   9.327  0.4577 -1.1768  1.2072
   60SAPC  C313 4686   6.741   5.540   9.213  0.6053 -0.3212  0.0721
   60SAPC  H13X 4687   6.747   5.646   9.246 -0.8775  0.3795 -1.7831
   60SAPC  H13Y 4688   6.637   5.503   9.227 -0.3980  2.5877  0.6451
   60SAPC  C314 4689   6.774   5.529   9.067  0.1111 -0.3642 -0.6722
   60SAPC  H14X 4690   6.765   5.421   9.043  0.9433 -0.8228  0.9622
   60SAPC  H14Y 4691   6.883   5.547   9.051  0.6707 -0.6922  2.3482
   60SAPC  C315 4692   6.704   5.626   8.972  0.0119  0.0588 -0.7172
   60SAPC  H15X 4693   6.774   5.713   8.972 -0.4511  0.4511  1.6430
   60SAPC  H15Y 4694   6.607   5.662   9.012 -0.7629 -3.6515  0.9016
   60SAPC  C316 4695   6.684   5.573   8.833  0.7569 -0.2104 -0.2295
   60SAPC  H16X 4696   6.597   5.504   8.837  0.3680  0.0366 -3.4288
   60SAPC  H16Y 4697   6.768   5.508   8.803  0.1196 -1.6976  1.1268
   60SAPC  C317 4698   6.675   5.676   8.718  0.3975 -0.3160 -0.7912
   60SAPC  H17X 4699   6.594   5.748   8.742  0.2026 -0.7075 -0.2701
   60SAPC  H17Y 4700   6.644   5.621   8.627  0.5346 -2.7945  0.6153
   60SAPC  C318 4701   6.799   5.752   8.690 -0.8982  0.0514  0.1050
   60SAPC  H18X 4702   6.842   5.799   8.781 -0.2484 -2.6518  1.2478
   60SAPC  H18Y 4703   6.774   5.835   8.622 -1.0094  0.4933  0.6824
   60SAPC  H18Z 4704   6.879   5.696   8.637  0.3326  2.3091 -0.5067
   61SAPC     N 4705   0.898   4.249  11.031 -0.6162 -0.4895  0.5689
   61SAPC   C12 4706   0.755   4.293  11.000  0.1073 -0.5852 -0.0583
   61SAPC  H12A 4707   0.768   4.370  10.926  2.2719 -1.0909 -0.2355
   61SAPC  H12B 4708   0.715   4.334  11.092  1.2915 -1.0950  0.6921
   61SAPC   C13 4709   0.976   4.363  11.079  0.2047  0.3543  0.1177
   61SAPC  H13A 4710   1.065   4.332  11.131  0.5314 -1.6805 -1.5547
   61SAPC  H13B 4711   1.007   4.424  10.996  1.0327 -0.0249  0.1422
   61SAPC  H13C 4712   0.922   4.426  11.148  0.1750 -0.1486  0.5524
   61SAPC   C14 4713   0.898   4.143  11.145 -0.0071  0.0190  0.8754
   61SAPC  H14A 4714   0.998   4.119  11.178  0.0480  0.6914  1.2157
   61SAPC  H14B 4715   0.852   4.181  11.235  0.4769  1.4528  0.5343
   61SAPC  H14C 4716   0.841   4.054  11.122  0.3921  0.0398 -0.2207
   61SAPC   C15 4717   0.961   4.181  10.910  0.5735 -0.5245  0.4527
   61SAPC  H15A 4718   0.972   4.241  10.821  2.8921 -1.0200  0.3828
   61SAPC  H15B 4719   1.055   4.138  10.939  2.3942  3.1555  0.1817
   61SAPC  H15C 4720   0.890   4.108  10.871 -0.3011  1.1608 -1.1949
   61SAPC   C11 4721   0.649   4.191  10.949  0.6481 -0.2547 -0.5896
   61SAPC  H11A 4722   0.556   4.248  10.931  0.7253 -0.3750 -1.3816
   61SAPC  H11B 4723   0.621   4.133  11.040  0.4298  1.1158  0.2186
   61SAPC     P 4724   0.665   3.962  10.827 -0.1009 -0.2865  0.1236
   61SAPC   O13 4725   0.791   3.885  10.825 -0.4431 -0.1824 -0.6143
   61SAPC   O14 4726   0.571   3.917  10.935 -0.8235 -0.1942 -0.1304
   61SAPC   O12 4727   0.695   4.116  10.835  0.8107 -0.1370 -0.2110
   61SAPC   O11 4728   0.598   3.948  10.690 -0.1052  0.2561 -0.1341
   61SAPC    C1 4729   0.454   3.953  10.687  0.3844  0.4016 -0.8516
   61SAPC    HA 4730   0.409   3.852  10.705 -0.6926  0.7570 -1.4976
   61SAPC    HB 4731   0.400   4.024  10.754  0.0402  0.3570 -1.0807
   61SAPC    C2 4732   0.398   4.011  10.557  0.4265 -0.1707 -0.4257
   61SAPC    HS 4733   0.290   3.984  10.554 -0.0807  1.5309  1.7925
   61SAPC   O21 4734   0.480   3.952  10.458  0.0982  0.0832  0.9615
   61SAPC   C21 4735   0.451   3.834  10.417 -0.7633 -0.6392 -0.7242
   61SAPC   O22 4736   0.347   3.773  10.444  0.7112 -0.0392 -0.4367
   61SAPC   C22 4737   0.555   3.790  10.318  0.1356  0.1889 -0.3163
   61SAPC   H2R 4738   0.531   3.852  10.230 -0.8791 -1.8554 -1.5203
   61SAPC   H2S 4739   0.658   3.807  10.357 -0.3278  0.7784  0.6505
   61SAPC    C3 4740   0.410   4.171  10.548 -0.3749  0.3825  1.0777
   61SAPC    HX 4741   0.512   4.203  10.579  0.3056  0.1948 -0.9285
   61SAPC    HY 4742   0.348   4.207  10.633  0.6206  1.1538  1.4892
   61SAPC   O31 4743   0.365   4.227  10.425 -0.2023 -0.4692  0.1545
   61SAPC   C31 4744   0.463   4.248  10.332 -0.1193 -0.0414 -0.8404
   61SAPC   O32 4745   0.576   4.215  10.340 -0.1471  0.2966  0.4466
   61SAPC   C32 4746   0.409   4.307  10.198 -0.7232 -0.6838 -0.0333
   61SAPC   H2X 4747   0.443   4.412  10.196 -0.2789 -0.8370 -0.5258
   61SAPC   H2Y 4748   0.299   4.318  10.207 -0.5335  1.0192  0.4146
   61SAPC   C23 4749   0.547   3.640  10.273 -0.0800 -0.8297 -0.4400
   61SAPC   H3R 4750   0.440   3.616  10.257 -0.0874 -0.3892 -1.0745
   61SAPC   H3S 4751   0.581   3.575  10.356  0.4059 -0.0716 -0.0365
   61SAPC   C24 4752   0.635   3.617  10.153  0.0904  0.5386  0.1351
   61SAPC   H4R 4753   0.607   3.684  10.068 -1.5657  0.9363  0.9715
   61SAPC   H4S 4754   0.617   3.511  10.124 -1.2534  0.6087  0.7093
   61SAPC   C25 4755   0.782   3.620  10.178 -0.0049  0.0485 -0.6711
   61SAPC   H5R 4756   0.818   3.546  10.251 -0.3354  0.2732 -0.2803
   61SAPC   C26 4757   0.870   3.695  10.112 -0.9525  0.0459  0.5386
   61SAPC   H6R 4758   0.974   3.688  10.147 -1.1174 -0.2401  0.9762
   61SAPC   C27 4759   0.853   3.798  10.007 -0.1728  0.2023  0.2712
   61SAPC   H7R 4760   0.934   3.873  10.009 -0.4902  0.5421  0.5371
   61SAPC   H7S 4761   0.763   3.862  10.021 -0.7199 -0.3570 -0.6294
   61SAPC   C28 4762   0.838   3.721   9.872 -0.1202 -0.0005  0.0533
   61SAPC   H8R 4763   0.740   3.671   9.865 -0.8918  0.9674  3.0889
   61SAPC   C29 4764   0.926   3.712   9.769 -0.6397  0.7481  0.2532
   61SAPC   H9R 4765   0.901   3.656   9.678  1.2940  0.7166 -0.2788
   61SAPC  C210 4766   1.070   3.765   9.756  0.5604 -0.3616  0.0025
   61SAPC  H10R 4767   1.118   3.754   9.856  0.7280 -0.9061 -0.1382
   61SAPC  H10S 4768   1.068   3.874   9.737  0.3449 -0.3378  0.1551
   61SAPC  C211 4769   1.146   3.705   9.637  0.4445 -0.1718  0.2373
   61SAPC  H11R 4770   1.168   3.597   9.643 -0.0912 -0.2531  0.7289
   61SAPC  C212 4771   1.211   3.780   9.547  0.5266  0.2372  0.2464
   61SAPC  H12R 4772   1.235   3.727   9.453 -2.7026  1.3537 -1.2893
   61SAPC  C213 4773   1.218   3.925   9.544  0.4477 -0.3012 -0.1432
   61SAPC  H13R 4774   1.213   3.973   9.644 -0.8821 -0.5060 -0.1004
   61SAPC  H13S 4775   1.127   3.966   9.496 -0.8363 -1.2895  1.4070
   61SAPC  C214 4776   1.347   3.979   9.485 -0.6365 -0.0700 -0.5398
   61SAPC  H14R 4777   1.424   4.028   9.546 -0.5743  1.4398 -1.8037
   61SAPC  C215 4778   1.364   3.997   9.354  0.4110  0.3613 -0.3566
   61SAPC  H15R 4779   1.464   4.029   9.322  0.6126 -0.4846 -0.5754
   61SAPC  C216 4780   1.265   3.961   9.244  0.3230  0.4081  0.1617
   61SAPC  H16R 4781   1.215   4.049   9.199  1.0646  0.1655 -1.1807
   61SAPC  H16S 4782   1.192   3.884   9.277  1.3645 -1.5290 -1.8959
   61SAPC  C217 4783   1.347   3.898   9.119 -0.5163 -0.3214  0.3358
   61SAPC  H17R 4784   1.270   3.856   9.050 -1.6574 -0.4283  1.6423
   61SAPC  H17S 4785   1.415   3.817   9.152  1.2156  0.6851 -0.6502
   61SAPC  C218 4786   1.441   4.009   9.048 -0.2141 -1.1401  0.3503
   61SAPC  H18R 4787   1.501   4.051   9.131 -0.5753 -0.5316  0.3067
   61SAPC  H18S 4788   1.381   4.095   9.012  1.3883 -0.5839 -1.0043
   61SAPC  C219 4789   1.520   3.961   8.936 -0.0639  0.5215  0.6400
   61SAPC  H19R 4790   1.459   3.919   8.853 -0.1883  1.5833  0.1907
   61SAPC  H19S 4791   1.582   3.872   8.963 -0.2267 -0.1378 -1.1132
   61SAPC  C220 4792   1.627   4.062   8.886  0.3534 -0.6902  0.1631
   61SAPC  H20R 4793   1.679   4.032   8.793 -1.5064 -0.1261 -1.0833
   61SAPC  H20S 4794   1.693   4.085   8.972 -0.2145 -0.2139  0.4767
   61SAPC  H20T 4795   1.581   4.152   8.841 -0.2785 -1.7578 -1.3638
   61SAPC   C33 4796   0.447   4.230  10.073 -0.4969  0.2718  0.7214
   61SAPC   H3X 4797   0.401   4.129  10.085  0.6558 -0.1377  1.8815
   61SAPC   H3Y 4798   0.558   4.221  10.065 -0.8295 -3.6995 -0.6091
   61SAPC   C34 4799   0.398   4.298   9.947 -0.1111 -0.4045  0.4931
   61SAPC   H4X 4800   0.441   4.400   9.945 -0.7325 -0.1551 -0.5726
   61SAPC   H4Y 4801   0.288   4.313   9.945 -0.2209 -1.1874  0.4578
   61SAPC   C35 4802   0.451   4.215   9.831 -0.2516  0.5429  0.0383
   61SAPC   H5X 4803   0.410   4.111   9.833  0.4332  0.2779  0.6356
   61SAPC   H5Y 4804   0.557   4.189   9.853 -0.8347 -3.6670 -1.5971
   61SAPC   C36 4805   0.433   4.284   9.697  0.4083 -0.4633 -0.6673
   61SAPC   H6X 4806   0.491   4.379   9.703  1.6969 -1.2379 -0.8935
   61SAPC   H6Y 4807   0.328   4.313   9.676  0.8491  0.9375 -0.9750
   61SAPC   C37 4808   0.481   4.208   9.582  0.0991 -0.4537  0.0362
   61SAPC   H7X 4809   0.413   4.122   9.566 -0.4455  0.1141 -0.7125
   61SAPC   H7Y 4810   0.582   4.166   9.601  0.0369 -1.2552 -1.3381
   61SAPC   C38 4811   0.481   4.281   9.448  0.1321 -0.8885 -0.4466
   61SAPC   H8X 4812   0.541   4.372   9.467 -0.3686 -0.5810 -0.3185
   61SAPC   H8Y 4813   0.380   4.319   9.423  1.4640  3.1100 -0.1258
   61SAPC   C39 4814   0.546   4.207   9.335  0.4366 -0.1449  0.7983
   61SAPC   H9X 4815   0.482   4.120   9.310  0.3670  0.8007 -2.5810
   61SAPC   H9Y 4816   0.642   4.164   9.371  0.4181 -0.1586  0.8312
   61SAPC  C310 4817   0.563   4.287   9.199 -0.6095 -0.2390  0.7111
   61SAPC  H10X 4818   0.626   4.371   9.235 -2.1694  1.4219 -0.3199
   61SAPC  H10Y 4819   0.477   4.337   9.151  0.7734  1.8107  0.3241
   61SAPC  C311 4820   0.637   4.206   9.094  0.2667  0.3901 -0.2105
   61SAPC  H11X 4821   0.595   4.103   9.089  1.4238 -0.0393 -1.1846
   61SAPC  H11Y 4822   0.737   4.185   9.136  0.3041  0.2503 -0.3680
   61SAPC  C312 4823   0.654   4.273   8.966 -0.5979  0.5126  0.0507
   61SAPC  H12X 4824   0.694   4.374   8.984  1.1583  0.0207 -0.9822
   61SAPC  H12Y 4825   0.553   4.296   8.927 -1.2281 -1.2847  0.5520
   61SAPC  C313 4826   0.740   4.210   8.852  0.1705  0.3183  0.0892
   61SAPC  H13X 4827   0.696   4.112   8.824  0.1342  0.3764 -0.0563
   61SAPC  H13Y 4828   0.848   4.196   8.875  0.4452 -2.7699 -2.6769
   61SAPC  C314 4829   0.753   4.296   8.724  0.1622 -0.7068  0.2807
   61SAPC  H14X 4830   0.835   4.248   8.668 -0.3153 -2.9370  1.4164
   61SAPC  H14Y 4831   0.787   4.399   8.749  0.0874 -0.6487  0.1415
   61SAPC  C315 4832   0.627   4.302   8.629  0.5951  0.2226 -0.0130
   61SAPC  H15X 4833   0.618   4.407   8.595  1.6639  1.0212  2.0564
   61SAPC  H15Y 4834   0.539   4.262   8.684  0.6796  0.0371 -0.0148
   61SAPC  C316 4835   0.664   4.203   8.512 -0.8989 -0.6013 -0.5837
   61SAPC  H16X 4836   0.714   4.110   8.546  0.5749 -0.3265 -1.9522
   61SAPC  H16Y 4837   0.744   4.256   8.455 -0.7866 -0.6124 -0.4373
   61SAPC  C317 4838   0.545   4.159   8.429  0.3702  0.3618  0.2406
   61SAPC  H17X 4839   0.464   4.123   8.496 -1.5929  1.8355 -1.2680
   61SAPC  H17Y 4840   0.584   4.077   8.365 -2.9684 -1.0942  0.0084
   61SAPC  C318 4841   0.488   4.271   8.346  0.4686 -0.2609 -0.4451
   61SAPC  H18X 4842   0.565   4.318   8.283 -0.5046  2.0487  0.0404
   61SAPC  H18Y 4843   0.438   4.347   8.409 -0.7505 -0.2741 -1.3775
   61SAPC  H18Z 4844   0.409   4.238   8.275 -0.3909  1.2859 -0.2405
   62SAPC     N 4845   1.038   2.269  10.700  0.0184  0.2650  0.5981
   62SAPC   C12 4846   0.902   2.331  10.697  0.1436 -0.2897 -0.2715
   62SAPC  H12A 4847   0.882   2.375  10.794  0.4906  0.7448 -0.6630
   62SAPC  H12B 4848   0.834   2.247  10.686 -0.0610 -0.2930  0.8941
   62SAPC   C13 4849   1.034   2.149  10.793  0.0141  0.4954 -0.3870
   62SAPC  H13A 4850   1.132   2.104  10.805  0.6450  1.5059 -1.7047
   62SAPC  H13B 4851   1.006   2.160  10.897 -1.3912 -1.8660 -0.4636
   62SAPC  H13C 4852   0.972   2.072  10.749  1.2031 -1.2944  0.9678
   62SAPC   C14 4853   1.079   2.232  10.558  0.2851  0.1260  0.0993
   62SAPC  H14A 4854   1.169   2.173  10.564  1.0425  1.5143  3.6557
   62SAPC  H14B 4855   1.001   2.170  10.518 -0.0178 -0.5252  1.6764
   62SAPC  H14C 4856   1.100   2.317  10.495 -2.2199  0.5353 -0.2230
   62SAPC   C15 4857   1.132   2.374  10.748 -0.1377 -0.5554 -0.3730
   62SAPC  H15A 4858   1.237   2.351  10.737 -0.1972 -0.8032 -0.4310
   62SAPC  H15B 4859   1.105   2.464  10.695  0.5451 -0.3768 -0.4183
   62SAPC  H15C 4860   1.111   2.401  10.851  0.0504  0.3562 -0.5764
   62SAPC   C11 4861   0.856   2.438  10.594  0.7029  0.1193 -0.2219
   62SAPC  H11A 4862   0.748   2.435  10.617  0.4148 -2.6726 -1.7952
   62SAPC  H11B 4863   0.874   2.396  10.493 -1.0237  0.8200 -0.8425
   62SAPC     P 4864   0.847   2.689  10.634  0.4361  0.1311  0.2459
   62SAPC   O13 4865   0.782   2.685  10.768 -0.7966  0.0769 -0.6328
   62SAPC   O14 4866   0.932   2.802  10.606  0.1712  0.3022  0.2973
   62SAPC   O12 4867   0.927   2.560  10.614 -0.0520 -0.3340  0.7570
   62SAPC   O11 4868   0.733   2.687  10.521 -0.7108  0.7909  0.2344
   62SAPC    C1 4869   0.772   2.683  10.381  0.2825  0.6032 -0.7440
   62SAPC    HA 4870   0.877   2.718  10.370  1.0508 -1.2092  0.5322
   62SAPC    HB 4871   0.771   2.577  10.348  1.4668 -0.3097  2.0478
   62SAPC    C2 4872   0.677   2.768  10.305  0.2990 -0.1509  0.1161
   62SAPC    HS 4873   0.575   2.731  10.329 -0.7024  2.6895  0.4470
   62SAPC   O21 4874   0.717   2.779  10.160  0.2892 -0.0283  0.4352
   62SAPC   C21 4875   0.635   2.720  10.077 -0.2344 -0.2348  0.0261
   62SAPC   O22 4876   0.542   2.647  10.114 -0.4035 -0.2961  0.4233
   62SAPC   C22 4877   0.659   2.756   9.933 -0.3635 -0.2982 -1.0962
   62SAPC   H2R 4878   0.718   2.679   9.879  2.6820  0.0437  1.5551
   62SAPC   H2S 4879   0.562   2.760   9.879  1.1848  1.5906 -3.8338
   62SAPC    C3 4880   0.684   2.913  10.361  0.8425  0.5073  0.4482
   62SAPC    HX 4881   0.791   2.940  10.370  0.6230  1.0234  1.7548
   62SAPC    HY 4882   0.650   2.917  10.467  0.8679 -0.2373  0.4875
   62SAPC   O31 4883   0.623   3.015  10.282 -0.0320  0.4313  0.1174
   62SAPC   C31 4884   0.503   3.057  10.310 -0.3795  0.3861  0.0576
   62SAPC   O32 4885   0.433   3.010  10.398 -0.3107 -0.5077 -0.3173
   62SAPC   C32 4886   0.465   3.175  10.211  0.0911 -0.4844 -0.0838
   62SAPC   H2X 4887   0.546   3.175  10.135 -0.5221 -0.9552 -0.7448
   62SAPC   H2Y 4888   0.467   3.269  10.270  0.9614 -0.6309  0.1232
   62SAPC   C23 4889   0.729   2.888   9.907  0.6512  0.2134 -0.4065
   62SAPC   H3R 4890   0.823   2.892   9.966 -0.2411  2.6831  0.9037
   62SAPC   H3S 4891   0.662   2.969   9.942 -1.0779 -0.3472 -2.2790
   62SAPC   C24 4892   0.770   2.912   9.760 -0.6229 -0.2429  0.2002
   62SAPC   H4R 4893   0.821   2.816   9.738  0.4003 -0.1468  2.0236
   62SAPC   H4S 4894   0.849   2.990   9.766  1.7633 -2.5805 -0.1058
   62SAPC   C25 4895   0.652   2.935   9.668  0.4279  0.1067  0.7252
   62SAPC   H5R 4896   0.592   2.849   9.637  1.2342 -1.2126  2.7376
   62SAPC   C26 4897   0.622   3.062   9.633 -0.3354 -0.4806  0.5082
   62SAPC   H6R 4898   0.530   3.072   9.573 -0.6728 -0.8529  0.9592
   62SAPC   C27 4899   0.695   3.193   9.671  0.1683 -0.1513 -0.0476
   62SAPC   H7R 4900   0.692   3.270   9.591 -2.1504 -2.5354 -2.3653
   62SAPC   H7S 4901   0.802   3.170   9.691  0.0502 -0.8796 -0.2228
   62SAPC   C28 4902   0.619   3.235   9.800 -0.6509 -0.5621 -0.0583
   62SAPC   H8R 4903   0.655   3.179   9.888  2.2902  2.8823  1.0696
   62SAPC   C29 4904   0.535   3.333   9.830 -0.6649  0.2292 -0.1577
   62SAPC   H9R 4905   0.496   3.360   9.929 -1.2125 -0.3743 -0.2019
   62SAPC  C210 4906   0.481   3.432   9.730 -0.2839  0.1660  0.7855
   62SAPC  H10R 4907   0.371   3.418   9.718  0.1338 -3.4575  0.7219
   62SAPC  H10S 4908   0.525   3.410   9.631  0.6030  1.9487  0.7742
   62SAPC  C211 4909   0.489   3.582   9.773 -0.1518  0.5330 -0.5380
   62SAPC  H11R 4910   0.582   3.628   9.737  0.2190  1.1737  1.2028
   62SAPC  C212 4911   0.420   3.661   9.854 -0.6998  0.3904  0.4838
   62SAPC  H12R 4912   0.448   3.766   9.865  1.3564  0.0427 -1.1239
   62SAPC  C213 4913   0.300   3.632   9.928 -0.3283 -0.4844  0.4391
   62SAPC  H13R 4914   0.214   3.611   9.861 -0.5859 -0.6654  0.8193
   62SAPC  H13S 4915   0.260   3.723   9.976  1.1832 -0.0446  0.8951
   62SAPC  C214 4916   0.301   3.530  10.040  0.1295  0.9175  0.2567
   62SAPC  H14R 4917   0.402   3.496  10.070 -0.6753 -2.5217 -0.6851
   62SAPC  C215 4918   0.197   3.500  10.115 -0.9882  0.8381 -0.1134
   62SAPC  H15R 4919   0.204   3.422  10.192  0.2754 -0.8879 -1.9152
   62SAPC  C216 4920   0.056   3.549  10.094 -0.0724 -0.3215  0.3945
   62SAPC  H16R 4921   0.061   3.638  10.028  0.4100  1.1616  2.3768
   62SAPC  H16S 4922   0.018   3.590  10.190  1.4885  0.2717  0.7787
   62SAPC  C217 4923  -0.033   3.434  10.052  0.8261  0.3341  0.3246
   62SAPC  H17R 4924  -0.041   3.364  10.138 -2.7738 -0.0047 -0.2196
   62SAPC  H17S 4925   0.019   3.381   9.969 -0.6941  0.3707 -0.6601
   62SAPC  C218 4926  -0.167   3.488  10.016  0.8129 -0.0331 -0.2450
   62SAPC  H18R 4927  -0.210   3.552  10.097 -1.3502 -0.2322 -1.2010
   62SAPC  H18S 4928  -0.244   3.411   9.997  0.6693 -0.3978  1.7296
   62SAPC  C219 4929  -0.174   3.570   9.880  0.7071  0.4150 -0.1903
   62SAPC  H19R 4930  -0.119   3.666   9.892 -0.8125  1.1232  1.2465
   62SAPC  H19S 4931  -0.281   3.591   9.861  1.0681  1.1176 -1.5326
   62SAPC  C220 4932  -0.126   3.496   9.751  0.5052 -0.1355 -0.2343
   62SAPC  H20R 4933  -0.016   3.486   9.753  0.5214 -0.1160 -1.2226
   62SAPC  H20S 4934  -0.174   3.540   9.661 -0.7852 -1.1734 -0.0860
   62SAPC  H20T 4935  -0.164   3.391   9.748  0.0616  0.0718 -4.1864
   62SAPC   C33 4936   0.337   3.139  10.136 -0.3016 -0.8359 -0.9191
   62SAPC   H3X 4937   0.300   3.226  10.079 -0.3322  1.1516  2.0381
   62SAPC   H3Y 4938   0.259   3.099  10.205 -1.3403  1.4941 -0.7221
   62SAPC   C34 4939   0.368   3.028  10.027  0.0798 -0.4116 -0.6923
   62SAPC   H4X 4940   0.424   2.944  10.073  0.0277  0.7270  1.5056
   62SAPC   H4Y 4941   0.436   3.063   9.947  0.2692 -3.1990 -1.8065
   62SAPC   C35 4942   0.235   2.979   9.960 -0.0274  0.0600  0.5655
   62SAPC   H5X 4943   0.170   2.949  10.046  1.4845 -0.0582  1.6871
   62SAPC   H5Y 4944   0.268   2.893   9.897  0.4535  1.0331 -0.5242
   62SAPC   C36 4945   0.164   3.075   9.866 -0.5731 -0.6998 -0.4191
   62SAPC   H6X 4946   0.145   3.167   9.926  0.6845 -0.6877 -0.0319
   62SAPC   H6Y 4947   0.063   3.035   9.843 -1.4231  0.1236  1.7085
   62SAPC   C37 4948   0.236   3.095   9.735 -0.2608  0.2336 -0.2873
   62SAPC   H7X 4949   0.252   2.997   9.684  0.3834  0.1871 -0.0073
   62SAPC   H7Y 4950   0.339   3.127   9.764 -1.5237  2.2946  2.0341
   62SAPC   C38 4951   0.167   3.202   9.646 -0.6436 -0.6983 -0.4074
   62SAPC   H8X 4952   0.145   3.288   9.713 -0.1323 -0.8229 -0.0740
   62SAPC   H8Y 4953   0.067   3.161   9.623 -0.8255 -0.2784 -0.3698
   62SAPC   C39 4954   0.244   3.251   9.526 -0.3399  0.3342 -0.3610
   62SAPC   H9X 4955   0.251   3.173   9.447 -0.2569  2.3868 -2.4206
   62SAPC   H9Y 4956   0.347   3.273   9.561 -1.1782  1.6545  1.2740
   62SAPC  C310 4957   0.189   3.377   9.468 -0.0319 -1.2674 -0.7759
   62SAPC  H10X 4958   0.171   3.450   9.550  0.9879 -2.8569  0.8951
   62SAPC  H10Y 4959   0.088   3.362   9.425 -0.9257 -0.5003  0.9793
   62SAPC  C311 4960   0.274   3.438   9.364  0.0056 -0.3092  0.7840
   62SAPC  H11X 4961   0.381   3.440   9.395  0.5534  0.5223 -1.0826
   62SAPC  H11Y 4962   0.252   3.547   9.360  2.7976  0.2234 -1.5256
   62SAPC  C312 4963   0.277   3.373   9.229 -0.7143 -0.3446  0.9167
   62SAPC  H12X 4964   0.171   3.351   9.205 -0.2055  0.2017 -2.0249
   62SAPC  H12Y 4965   0.336   3.279   9.219  0.8266  0.6605  0.4171
   62SAPC  C313 4966   0.313   3.453   9.105 -0.5115 -0.7284  0.9361
   62SAPC  H13X 4967   0.256   3.546   9.086  0.8103 -0.4230 -1.7006
   62SAPC  H13Y 4968   0.289   3.389   9.018 -1.4751 -1.1111  1.4741
   62SAPC  C314 4969   0.462   3.491   9.100 -0.5911  0.2709 -0.1219
   62SAPC  H14X 4970   0.518   3.396   9.096  0.0599  0.6342  0.2567
   62SAPC  H14Y 4971   0.490   3.533   9.199 -0.9246  1.3577 -0.4831
   62SAPC  C315 4972   0.504   3.567   8.975  0.5993 -0.1063  0.6580
   62SAPC  H15X 4973   0.478   3.505   8.886  1.6175 -0.7378  0.7901
   62SAPC  H15Y 4974   0.613   3.587   8.975  0.6522 -0.4031  0.1812
   62SAPC  C316 4975   0.428   3.700   8.955  0.0798  0.8562  0.7169
   62SAPC  H16X 4976   0.448   3.764   9.044  0.9445 -0.3972  1.4405
   62SAPC  H16Y 4977   0.319   3.682   8.943  0.3989 -1.0792  0.4920
   62SAPC  C317 4978   0.487   3.764   8.823 -0.4185 -0.4036 -0.4890
   62SAPC  H17X 4979   0.470   3.690   8.743 -0.9085 -1.5911  0.6994
   62SAPC  H17Y 4980   0.598   3.773   8.833 -0.5538 -0.8275  1.7256
   62SAPC  C318 4981   0.407   3.890   8.796 -0.8320  0.2568  0.1434
   62SAPC  H18X 4982   0.297   3.877   8.789 -0.8241  0.1311  0.2414
   62SAPC  H18Y 4983   0.443   3.931   8.700 -1.0322  0.7337  0.2697
   62SAPC  H18Z 4984   0.431   3.966   8.873  1.9870  0.7311 -1.1740
   63SAPC     N 4985   4.554   3.167   6.533 -0.1127  0.2012 -0.5041
   63SAPC   C12 4986   4.657   3.283   6.538 -0.8917  0.1894 -0.6390
   63SAPC  H12A 4987   4.613   3.361   6.600  0.8343  0.5385  0.1939
   63SAPC  H12B 4988   4.661   3.326   6.439 -1.7602  0.0525 -0.7367
   63SAPC   C13 4989   4.536   3.085   6.658 -0.4300 -0.2363 -0.0373
   63SAPC  H13A 4990   4.506   3.135   6.748 -2.0887 -1.1247 -0.0739
   63SAPC  H13B 4991   4.465   3.008   6.630  0.8256 -0.2628 -3.3141
   63SAPC  H13C 4992   4.626   3.028   6.676  0.1170  0.8473  0.6450
   63SAPC   C14 4993   4.425   3.244   6.497 -0.1451  0.2382  0.1331
   63SAPC  H14A 4994   4.409   3.323   6.568 -1.1915  2.4296 -2.4198
   63SAPC  H14B 4995   4.429   3.292   6.400 -2.4081  0.4184  0.0990
   63SAPC  H14C 4996   4.341   3.176   6.505  0.1704 -0.0701  0.8331
   63SAPC   C15 4997   4.579   3.077   6.421  0.2094  0.4924 -0.7197
   63SAPC  H15A 4998   4.579   3.141   6.333  1.9533  1.0885 -0.3034
   63SAPC  H15B 4999   4.661   3.008   6.429  2.0372  2.8317  1.3767
   63SAPC  H15C 5000   4.498   3.007   6.409  1.7781 -1.6751  0.9736
   63SAPC   C11 5001   4.800   3.252   6.590  0.2158 -0.3975  0.2334
   63SAPC  H11A 5002   4.787   3.229   6.698  0.0089  0.2225  0.3458
   63SAPC  H11B 5003   4.861   3.345   6.590  1.7916 -1.4214  1.0172
   63SAPC     P 5004   4.930   3.153   6.383 -0.5305 -0.3066  0.0155
   63SAPC   O13 5005   4.980   3.018   6.341 -0.0073  0.1214 -0.0611
   63SAPC   O14 5006   4.843   3.213   6.281 -0.2908 -0.3971 -0.5159
   63SAPC   O12 5007   4.855   3.139   6.522 -0.5513  0.5023 -0.0204
   63SAPC   O11 5008   5.057   3.249   6.393  0.2130 -0.2541  0.3634
   63SAPC    C1 5009   5.188   3.200   6.430 -0.0590 -0.1761 -0.1840
   63SAPC    HA 5010   5.205   3.101   6.383 -2.4057 -0.3094 -0.7641
   63SAPC    HB 5011   5.262   3.273   6.389  1.6852  0.4189  3.7565
   63SAPC    C2 5012   5.217   3.211   6.584  0.2058  0.1602  0.2142
   63SAPC    HS 5013   5.135   3.146   6.622 -0.9368 -0.0113 -2.4612
   63SAPC   O21 5014   5.189   3.348   6.626 -0.5532  0.4270 -0.8913
   63SAPC   C21 5015   5.123   3.358   6.741 -0.0055 -0.1958  0.0734
   63SAPC   O22 5016   5.064   3.267   6.800  0.4466 -0.3095 -0.1418
   63SAPC   C22 5017   5.128   3.506   6.781 -0.5177  0.2752  0.2154
   63SAPC   H2R 5018   5.200   3.513   6.864  1.7639 -0.5031 -1.6531
   63SAPC   H2S 5019   5.171   3.573   6.704 -0.6280  2.5130  2.0456
   63SAPC    C3 5020   5.364   3.158   6.620 -0.1572 -0.6320  0.2131
   63SAPC    HX 5021   5.434   3.220   6.560 -0.0748 -1.1118 -0.1884
   63SAPC    HY 5022   5.370   3.057   6.575 -0.7911  0.2553 -1.9705
   63SAPC   O31 5023   5.394   3.166   6.757 -0.5206  0.7215 -0.3444
   63SAPC   C31 5024   5.352   3.060   6.832  0.0616 -0.2845 -0.1801
   63SAPC   O32 5025   5.257   2.989   6.803  0.5243 -0.3578  0.4273
   63SAPC   C32 5026   5.431   3.049   6.957 -0.3209 -0.4178  0.2558
   63SAPC   H2X 5027   5.426   3.146   7.010  3.9217  1.4033 -2.4362
   63SAPC   H2Y 5028   5.539   3.031   6.939 -0.4566  0.9720 -2.1042
   63SAPC   C23 5029   4.993   3.574   6.825 -0.1644 -0.3475  1.1225
   63SAPC   H3R 5030   4.918   3.556   6.745  0.1254 -0.4903  0.8781
   63SAPC   H3S 5031   5.009   3.684   6.825 -2.8936  0.1223 -1.3911
   63SAPC   C24 5032   4.939   3.526   6.961 -0.1284  0.5131  0.7730
   63SAPC   H4R 5033   4.941   3.416   6.971  3.0677  0.2782 -1.8048
   63SAPC   H4S 5034   4.830   3.549   6.965 -0.5472 -0.8285 -2.1433
   63SAPC   C25 5035   5.015   3.580   7.080  0.2264 -0.0995 -0.3609
   63SAPC   H5R 5036   5.033   3.688   7.086  0.6829 -0.3263  2.8997
   63SAPC   C26 5037   5.079   3.513   7.181  0.0432  0.2366  0.0942
   63SAPC   H6R 5038   5.112   3.555   7.277  0.7337  1.2968 -0.5857
   63SAPC   C27 5039   5.074   3.359   7.195 -0.1461 -0.8836 -0.0333
   63SAPC   H7R 5040   5.048   3.302   7.103  0.3945 -4.3561  1.8809
   63SAPC   H7S 5041   4.991   3.332   7.265 -0.1259 -0.2091  0.2493
   63SAPC   C28 5042   5.199   3.295   7.236 -0.2601  0.0266  0.3117
   63SAPC   H8R 5043   5.287   3.338   7.187  0.2587 -1.0081  0.3243
   63SAPC   C29 5044   5.214   3.191   7.320 -0.2083  0.4377 -0.2478
   63SAPC   H9R 5045   5.312   3.157   7.356 -0.7876 -0.4711  0.5043
   63SAPC  C210 5046   5.108   3.118   7.398  0.5884  0.7885 -0.0489
   63SAPC  H10R 5047   5.114   3.008   7.384  0.8384  0.8463 -0.3958
   63SAPC  H10S 5048   5.004   3.144   7.370  0.0975 -1.7031 -0.6257
   63SAPC  C211 5049   5.116   3.157   7.546  0.2256  0.0388  0.1597
   63SAPC  H11R 5050   5.166   3.254   7.560  1.2418 -0.4998  0.3592
   63SAPC  C212 5051   5.048   3.097   7.649 -0.5906 -0.3044  0.2843
   63SAPC  H12R 5052   5.073   3.142   7.746 -0.2932  0.0826  0.0296
   63SAPC  C213 5053   4.953   2.980   7.644  0.8521  0.0252  0.2071
   63SAPC  H13R 5054   5.017   2.893   7.670  0.6894 -0.2680 -0.3575
   63SAPC  H13S 5055   4.912   2.965   7.542  0.4052  1.0179  0.2343
   63SAPC  C214 5056   4.849   2.980   7.755 -0.2895  0.7366  0.5351
   63SAPC  H14R 5057   4.883   3.005   7.857  2.9762  0.2372 -0.3960
   63SAPC  C215 5058   4.715   2.971   7.733 -0.5659 -0.2275  0.3718
   63SAPC  H15R 5059   4.652   2.992   7.820 -0.3875  2.4667 -0.1055
   63SAPC  C216 5060   4.640   2.961   7.603  0.2432  0.1327  0.2690
   63SAPC  H16R 5061   4.611   2.854   7.600 -2.5928  0.8758  0.1865
   63SAPC  H16S 5062   4.698   3.001   7.517  1.9248 -2.9136 -0.0773
   63SAPC  C217 5063   4.510   3.038   7.613  0.7747 -0.3883  0.1504
   63SAPC  H17R 5064   4.530   3.142   7.644  0.4188 -0.0538 -0.7211
   63SAPC  H17S 5065   4.439   2.988   7.682 -0.0910  0.7781  0.1303
   63SAPC  C218 5066   4.442   3.027   7.476 -0.5180 -0.6668 -0.5407
   63SAPC  H18R 5067   4.403   2.924   7.463 -4.2952  0.6966 -0.5187
   63SAPC  H18S 5068   4.523   3.044   7.402  1.4218  1.1219  1.9115
   63SAPC  C219 5069   4.340   3.137   7.457 -0.5539  0.0716  0.2702
   63SAPC  H19R 5070   4.391   3.235   7.466 -0.1298 -0.0442 -0.8194
   63SAPC  H19S 5071   4.264   3.121   7.537 -0.8892 -1.9833 -0.4292
   63SAPC  C220 5072   4.279   3.119   7.323  0.1995 -0.6007 -0.5581
   63SAPC  H20R 5073   4.242   3.015   7.310  0.0271 -0.6647  0.3990
   63SAPC  H20S 5074   4.354   3.145   7.245  0.6262  0.4986  0.2023
   63SAPC  H20T 5075   4.196   3.192   7.327  0.4709 -0.3717  1.5346
   63SAPC   C33 5076   5.366   2.954   7.051 -0.0705  0.0887 -0.1098
   63SAPC   H3X 5077   5.348   2.852   7.011 -0.2702 -0.0862  0.4176
   63SAPC   H3Y 5078   5.264   2.988   7.081 -0.5422 -0.4719 -1.0358
   63SAPC   C34 5079   5.434   2.939   7.186 -0.0099 -0.2345 -0.0291
   63SAPC   H4X 5080   5.446   3.027   7.253 -0.5060 -0.3145  0.1717
   63SAPC   H4Y 5081   5.537   2.911   7.155  1.1537  0.0683  3.3376
   63SAPC   C35 5082   5.361   2.831   7.280 -0.0378 -0.8343  0.0013
   63SAPC   H5X 5083   5.354   2.733   7.226 -0.8610 -1.0640  0.5142
   63SAPC   H5Y 5084   5.258   2.873   7.291  0.6503  1.2679 -1.3575
   63SAPC   C36 5085   5.427   2.792   7.408 -0.0945 -0.3530 -1.1198
   63SAPC   H6X 5086   5.537   2.796   7.397  0.1315 -0.7517  0.8795
   63SAPC   H6Y 5087   5.405   2.688   7.437 -0.4820 -0.8362 -3.0344
   63SAPC   C37 5088   5.378   2.872   7.532 -0.0338 -0.3839 -0.7987
   63SAPC   H7X 5089   5.268   2.861   7.528 -0.0394 -0.4898 -0.3810
   63SAPC   H7Y 5090   5.410   2.979   7.531  0.0552 -0.4073 -0.5375
   63SAPC   C38 5091   5.410   2.821   7.663  1.0715 -0.7285 -0.9590
   63SAPC   H8X 5092   5.364   2.719   7.665 -1.3808  0.3503  1.0853
   63SAPC   H8Y 5093   5.353   2.867   7.747 -0.0415 -3.5019 -0.1292
   63SAPC   C39 5094   5.557   2.829   7.704  0.0226  0.5971  0.3804
   63SAPC   H9X 5095   5.567   2.938   7.726 -2.1718  0.5025  2.0377
   63SAPC   H9Y 5096   5.617   2.789   7.619 -2.5131  0.6737 -1.5400
   63SAPC  C310 5097   5.579   2.768   7.840  0.1987  0.1885 -0.2872
   63SAPC  H10X 5098   5.579   2.658   7.824 -1.8374  0.4653 -2.5548
   63SAPC  H10Y 5099   5.496   2.782   7.912 -0.4735 -2.5979 -0.4706
   63SAPC  C311 5100   5.711   2.804   7.906  0.0773 -0.0684  0.0723
   63SAPC  H11X 5101   5.718   2.915   7.904  3.0791 -0.2334  0.0686
   63SAPC  H11Y 5102   5.797   2.775   7.842 -0.6197  1.0427 -1.4151
   63SAPC  C312 5103   5.735   2.735   8.043  0.2686 -0.0999  0.5982
   63SAPC  H12X 5104   5.843   2.718   8.064 -0.5435 -2.8011  2.9576
   63SAPC  H12Y 5105   5.695   2.633   8.025  1.4671 -0.2287 -1.4235
   63SAPC  C313 5106   5.659   2.794   8.161  0.3401  0.3002  0.5477
   63SAPC  H13X 5107   5.667   2.722   8.245 -0.1369  1.1403  1.3304
   63SAPC  H13Y 5108   5.554   2.824   8.143  0.6668 -0.0625 -2.0616
   63SAPC  C314 5109   5.718   2.928   8.212  0.5014  0.7724 -0.2879
   63SAPC  H14X 5110   5.704   3.008   8.137 -2.0753  0.3132 -0.3665
   63SAPC  H14Y 5111   5.826   2.912   8.232  0.7725 -0.0645 -2.2369
   63SAPC  C315 5112   5.634   2.980   8.332 -0.6772 -0.3933  0.3849
   63SAPC  H15X 5113   5.663   2.930   8.427 -0.0124 -0.8826 -0.0722
   63SAPC  H15Y 5114   5.527   2.956   8.313  0.0311 -3.7637  0.3547
   63SAPC  C316 5115   5.662   3.133   8.340  0.0826 -0.3100 -0.1858
   63SAPC  H16X 5116   5.653   3.187   8.244 -1.9040 -0.0551  0.1304
   63SAPC  H16Y 5117   5.769   3.148   8.365  0.7937 -1.6157 -2.3378
   63SAPC  C317 5118   5.570   3.206   8.435  0.4188  0.4222 -0.0180
   63SAPC  H17X 5119   5.594   3.171   8.538 -0.0911  5.4026  1.9074
   63SAPC  H17Y 5120   5.473   3.162   8.403  0.9922 -1.2222  0.4770
   63SAPC  C318 5121   5.578   3.357   8.425 -0.3490 -0.3570 -0.6115
   63SAPC  H18X 5122   5.488   3.405   8.469  0.1859 -0.0173  0.1300
   63SAPC  H18Y 5123   5.587   3.377   8.316 -0.1356 -0.1722 -0.5625
   63SAPC  H18Z 5124   5.669   3.393   8.478 -1.1631 -0.0188  0.5725
   64SAPC     N 5125   0.196   2.318   6.296 -0.6723 -0.3682 -0.2335
   64SAPC   C12 5126   0.175   2.457   6.354  0.6295 -0.1523  0.2800
   64SAPC  H12A 5127   0.222   2.531   6.291 -1.4676  1.4257  0.4890
   64SAPC  H12B 5128   0.213   2.460   6.455 -0.8147  0.1888  0.8235
   64SAPC   C13 5129   0.133   2.212   6.389  0.1185 -0.5375 -0.3323
   64SAPC  H13A 5130   0.172   2.221   6.490 -1.4355  2.6424  0.0588
   64SAPC  H13B 5131   0.027   2.235   6.389  0.3701  0.6673 -0.1368
   64SAPC  H13C 5132   0.134   2.113   6.346 -0.9372 -0.9896  0.6528
   64SAPC   C14 5133   0.134   2.322   6.161  0.7401  0.3087  0.2839
   64SAPC  H14A 5134   0.195   2.369   6.086 -2.8741  3.0827 -1.1064
   64SAPC  H14B 5135   0.114   2.231   6.108  0.0601 -0.5596  1.9826
   64SAPC  H14C 5136   0.037   2.370   6.168  0.9055  0.7753 -0.5716
   64SAPC   C15 5137   0.348   2.295   6.283  0.2735  0.0106 -0.2945
   64SAPC  H15A 5138   0.392   2.293   6.381  1.3608 -0.3931 -0.7832
   64SAPC  H15B 5139   0.372   2.195   6.250 -1.8727 -1.1583  1.5652
   64SAPC  H15C 5140   0.397   2.365   6.216 -1.2115  0.9687 -0.3929
   64SAPC   C11 5141   0.028   2.504   6.370 -0.1820  0.0573 -0.9516
   64SAPC  H11A 5142   0.026   2.591   6.440 -3.4362 -3.6975  3.9364
   64SAPC  H11B 5143  -0.041   2.430   6.415  0.7095 -0.3183 -0.1801
   64SAPC     P 5144  -0.028   2.678   6.177 -0.1766  0.3709 -0.0055
   64SAPC   O13 5145   0.107   2.737   6.177 -0.0172 -0.5024 -0.2297
   64SAPC   O14 5146  -0.101   2.675   6.046  0.1803  0.0975 -0.6604
   64SAPC   O12 5147  -0.025   2.534   6.242  0.2022 -0.1813 -0.2972
   64SAPC   O11 5148  -0.118   2.757   6.276 -0.0701 -0.0598 -0.3803
   64SAPC    C1 5149  -0.240   2.703   6.331  0.1318  0.2647  0.0586
   64SAPC    HA 5150  -0.324   2.731   6.264 -0.6297 -0.8627  0.5249
   64SAPC    HB 5151  -0.229   2.593   6.341  1.3181  0.4086  0.4359
   64SAPC    C2 5152  -0.283   2.767   6.467 -0.4857 -0.4651  0.0106
   64SAPC    HS 5153  -0.314   2.870   6.440 -2.1228 -0.9712 -0.0521
   64SAPC   O21 5154  -0.176   2.757   6.563 -0.2743  0.1570 -0.3392
   64SAPC   C21 5155  -0.128   2.865   6.616 -0.6519  0.2231 -0.9797
   64SAPC   O22 5156  -0.177   2.978   6.600  0.2542  0.2197 -0.0807
   64SAPC   C22 5157  -0.010   2.841   6.710 -0.4090 -0.1944 -0.3644
   64SAPC   H2R 5158   0.025   2.737   6.693 -1.1699 -0.3166 -1.1495
   64SAPC   H2S 5159   0.074   2.904   6.671  0.7314 -1.3535  0.1711
   64SAPC    C3 5160  -0.405   2.692   6.520 -0.2878  0.3082  0.0620
   64SAPC    HX 5161  -0.365   2.591   6.542  1.2104  1.8196  5.0781
   64SAPC    HY 5162  -0.485   2.684   6.443  0.4683  0.1023 -0.7101
   64SAPC   O31 5163  -0.449   2.748   6.644  0.5755  0.2785  0.3953
   64SAPC   C31 5164  -0.523   2.856   6.635 -0.3443  0.1220 -0.3237
   64SAPC   O32 5165  -0.563   2.895   6.525  0.1395  0.2971 -0.6593
   64SAPC   C32 5166  -0.546   2.916   6.779 -0.2483 -0.0067 -0.3330
   64SAPC   H2X 5167  -0.634   2.866   6.825 -0.2001  0.0352 -0.1962
   64SAPC   H2Y 5168  -0.569   3.023   6.760 -0.3706 -0.0019 -0.1612
   64SAPC   C23 5169  -0.045   2.856   6.857  0.2213  0.0268  0.0854
   64SAPC   H3R 5170  -0.130   2.792   6.892  2.6269 -2.4225  1.7008
   64SAPC   H3S 5171  -0.067   2.963   6.877  0.5311  0.0693  0.2052
   64SAPC   C24 5172   0.080   2.825   6.946  0.3241 -0.5241  0.3076
   64SAPC   H4R 5173   0.063   2.884   7.038 -0.9755  2.4905 -1.7609
   64SAPC   H4S 5174   0.171   2.856   6.891 -1.3003  0.3099 -2.0319
   64SAPC   C25 5175   0.096   2.675   6.960  0.3651 -0.0828  0.7095
   64SAPC   H5R 5176   0.117   2.626   6.863 -1.1800 -0.1739  0.4144
   64SAPC   C26 5177   0.083   2.612   7.076  0.1502 -0.4328 -0.3968
   64SAPC   H6R 5178   0.109   2.505   7.079 -2.8092 -1.1921  0.4749
   64SAPC   C27 5179   0.040   2.661   7.214  0.4483 -0.7668  0.1561
   64SAPC   H7R 5180   0.113   2.736   7.252  1.8904 -1.7023 -0.7261
   64SAPC   H7S 5181   0.044   2.575   7.285  1.7378 -1.4455 -0.7234
   64SAPC   C28 5182  -0.095   2.721   7.215 -0.1083  0.6338 -0.3440
   64SAPC   H8R 5183  -0.170   2.689   7.141 -0.3020 -0.9432  0.5192
   64SAPC   C29 5184  -0.133   2.813   7.306  0.7232 -0.1017  0.6312
   64SAPC   H9R 5185  -0.236   2.851   7.302  0.7201 -0.3118 -1.8399
   64SAPC  C210 5186  -0.054   2.861   7.422  0.0852 -0.9827 -0.2083
   64SAPC  H10R 5187  -0.106   2.947   7.470 -0.7197 -1.5126 -0.1198
   64SAPC  H10S 5188   0.039   2.912   7.390  0.1381  0.2787  1.8566
   64SAPC  C211 5189  -0.027   2.760   7.537  0.2362  0.8147 -0.1719
   64SAPC  H11R 5190  -0.004   2.653   7.521 -0.3871  0.6533  0.0130
   64SAPC  C212 5191  -0.015   2.792   7.670  0.2590  0.0972 -0.4328
   64SAPC  H12R 5192   0.000   2.719   7.750 -2.9116  0.4665  0.5658
   64SAPC  C213 5193  -0.029   2.933   7.724  0.8618  0.2867 -1.1184
   64SAPC  H13R 5194  -0.026   3.009   7.643  1.9255  1.6701  0.1963
   64SAPC  H13S 5195   0.059   2.945   7.790  0.4106  2.9261 -0.9286
   64SAPC  C214 5196  -0.149   2.965   7.808 -0.4952 -0.2581 -0.0601
   64SAPC  H14R 5197  -0.229   3.020   7.756  0.8512  3.4533  1.5976
   64SAPC  C215 5198  -0.171   2.926   7.937  0.2879  0.1568  0.6031
   64SAPC  H15R 5199  -0.271   2.947   7.977  0.4839  2.1366  0.0634
   64SAPC  C216 5200  -0.086   2.829   8.016  0.3654 -0.2808  0.0462
   64SAPC  H16R 5201   0.015   2.812   7.973 -0.5693 -0.6994 -2.0373
   64SAPC  H16S 5202  -0.134   2.729   8.022 -0.3941  0.1094  0.6587
   64SAPC  C217 5203  -0.074   2.898   8.157  0.0678  0.7200  0.7274
   64SAPC  H17R 5204  -0.169   2.920   8.210 -1.6712  2.9177 -3.0761
   64SAPC  H17S 5205  -0.019   2.993   8.138 -0.4344  0.5283 -1.9994
   64SAPC  C218 5206   0.008   2.813   8.252  0.2404 -0.6508  0.1197
   64SAPC  H18R 5207   0.102   2.772   8.209  1.3990  2.5504 -0.5361
   64SAPC  H18S 5208  -0.047   2.720   8.279 -4.0454  1.7246  0.1459
   64SAPC  C219 5209   0.031   2.888   8.389  0.2846  0.2646 -0.8011
   64SAPC  H19R 5210  -0.068   2.930   8.416  0.0916 -1.0763  0.6743
   64SAPC  H19S 5211   0.107   2.969   8.394 -0.6926  1.0735  1.3854
   64SAPC  C220 5212   0.066   2.781   8.499 -0.3209 -0.5846  0.3481
   64SAPC  H20R 5213   0.085   2.827   8.598  1.6414 -0.7613  0.0916
   64SAPC  H20S 5214   0.154   2.724   8.460 -0.3719 -0.8799  0.6646
   64SAPC  H20T 5215  -0.021   2.714   8.516 -0.8624  0.1745  0.5713
   64SAPC   C33 5216  -0.419   2.909   6.876 -0.3052 -0.3651  0.1814
   64SAPC   H3X 5217  -0.323   2.918   6.821 -0.3425  0.6100  0.2853
   64SAPC   H3Y 5218  -0.416   2.805   6.916  0.5588  0.8561  3.4272
   64SAPC   C34 5219  -0.433   2.996   7.002  0.7426 -1.3067 -0.3678
   64SAPC   H4X 5220  -0.457   2.917   7.076 -0.5368 -1.2411 -0.7068
   64SAPC   H4Y 5221  -0.512   3.072   6.988  2.1924  0.2160 -0.5097
   64SAPC   C35 5222  -0.293   3.052   7.052  0.0271  0.6571 -0.0754
   64SAPC   H5X 5223  -0.248   3.121   6.978  0.6643  0.7545  0.4003
   64SAPC   H5Y 5224  -0.226   2.965   7.067 -1.0970 -0.3048 -0.6201
   64SAPC   C36 5225  -0.293   3.107   7.198 -0.1390  0.3489 -0.5660
   64SAPC   H6X 5226  -0.187   3.134   7.216 -0.0388 -1.2558  1.3516
   64SAPC   H6Y 5227  -0.312   3.031   7.276 -0.9192 -0.5711 -1.6353
   64SAPC   C37 5228  -0.390   3.221   7.226 -0.1019  0.5553 -0.0494
   64SAPC   H7X 5229  -0.493   3.181   7.213  0.3755 -0.2851 -1.4406
   64SAPC   H7Y 5230  -0.374   3.301   7.151 -2.0015  0.6373 -0.3886
   64SAPC   C38 5231  -0.385   3.284   7.367 -0.6281 -0.5067  0.1001
   64SAPC   H8X 5232  -0.457   3.367   7.349  0.2853 -0.3607 -3.3043
   64SAPC   H8Y 5233  -0.287   3.331   7.389 -1.5762  1.0277  1.0861
   64SAPC   C39 5234  -0.423   3.182   7.479 -0.8605 -0.9824 -0.1866
   64SAPC   H9X 5235  -0.332   3.118   7.492  1.3417  2.0432 -0.2289
   64SAPC   H9Y 5236  -0.511   3.119   7.452 -1.8473  0.6328 -0.7695
   64SAPC  C310 5237  -0.459   3.249   7.608  0.6275 -0.2869  0.2915
   64SAPC  H10X 5238  -0.477   3.181   7.695 -1.9815 -0.1812 -0.1325
   64SAPC  H10Y 5239  -0.559   3.294   7.593  1.2321  1.9325  2.5232
   64SAPC  C311 5240  -0.345   3.337   7.675 -0.3258  0.1325  0.4417
   64SAPC  H11X 5241  -0.337   3.418   7.600  0.2148 -0.6581 -0.3667
   64SAPC  H11Y 5242  -0.252   3.276   7.675 -1.6443 -1.9436  0.1568
   64SAPC  C312 5243  -0.378   3.367   7.819 -0.1918  0.4821 -0.1895
   64SAPC  H12X 5244  -0.291   3.425   7.856  0.4045 -0.4399 -0.1466
   64SAPC  H12Y 5245  -0.384   3.271   7.874  1.8924  0.0412 -0.6649
   64SAPC  C313 5246  -0.504   3.455   7.838 -0.2069 -0.0337 -0.6284
   64SAPC  H13X 5247  -0.588   3.402   7.789  0.1346 -0.3448 -0.8775
   64SAPC  H13Y 5248  -0.495   3.559   7.799  1.2673  0.2714  0.4427
   64SAPC  C314 5249  -0.548   3.475   7.985  0.6600  0.0235  0.2463
   64SAPC  H14X 5250  -0.641   3.536   7.990  0.0642 -0.4818 -3.2319
   64SAPC  H14Y 5251  -0.474   3.541   8.035  0.5213  0.0206  0.4575
   64SAPC  C315 5252  -0.567   3.342   8.061  0.1181 -0.4162 -0.1323
   64SAPC  H15X 5253  -0.466   3.301   8.082  0.6616  0.6595 -0.6245
   64SAPC  H15Y 5254  -0.615   3.266   7.996  0.5356 -0.7753 -0.0250
   64SAPC  C316 5255  -0.642   3.341   8.192  0.7106 -0.1892 -0.3325
   64SAPC  H16X 5256  -0.733   3.405   8.191 -1.5759 -3.2414  1.4036
   64SAPC  H16Y 5257  -0.566   3.389   8.258  0.6777 -0.7771  0.1325
   64SAPC  C317 5258  -0.676   3.204   8.250  1.0651 -0.4625 -0.1253
   64SAPC  H17X 5259  -0.587   3.138   8.260 -0.2929 -1.9789  2.3405
   64SAPC  H17Y 5260  -0.747   3.149   8.185  0.8083  1.5591 -1.5989
   64SAPC  C318 5261  -0.741   3.219   8.389 -0.4277  0.1410  0.4863
   64SAPC  H18X 5262  -0.831   3.280   8.366  0.2855  1.2174  0.5562
   64SAPC  H18Y 5263  -0.675   3.273   8.460 -2.7471  1.9280  1.3589
   64SAPC  H18Z 5264  -0.784   3.127   8.436  0.1505  0.7962  2.3591
   65SAPC     N 5265   6.712   4.399   5.609 -0.0645  0.6273 -0.4574
   65SAPC   C12 5266   6.645   4.510   5.682 -0.4254 -1.0258 -0.3125
   65SAPC  H12A 5267   6.538   4.508   5.665 -0.2259  1.6531 -2.1415
   65SAPC  H12B 5268   6.680   4.602   5.637 -1.0247 -0.6364  0.0068
   65SAPC   C13 5269   6.682   4.273   5.673 -0.3137 -0.2197 -0.3402
   65SAPC  H13A 5270   6.718   4.275   5.775  0.0381 -0.1602 -0.4668
   65SAPC  H13B 5271   6.575   4.261   5.675 -1.1872  5.9059  1.1650
   65SAPC  H13C 5272   6.729   4.185   5.631 -0.6402 -0.4784 -0.1604
   65SAPC   C14 5273   6.665   4.384   5.462 -0.3608  0.0606 -0.1616
   65SAPC  H14A 5274   6.558   4.381   5.449 -0.5314 -2.1938  1.4521
   65SAPC  H14B 5275   6.692   4.470   5.403  1.0359  0.4352  0.9990
   65SAPC  H14C 5276   6.703   4.292   5.420  0.5657  0.4147 -0.1257
   65SAPC   C15 5277   6.864   4.418   5.607 -0.1559 -0.0726 -0.0456
   65SAPC  H15A 5278   6.893   4.405   5.710  0.1661  2.7232  0.2514
   65SAPC  H15B 5279   6.896   4.344   5.536  1.4771  1.9279 -1.4542
   65SAPC  H15C 5280   6.892   4.516   5.572  0.0664  0.5874  1.9099
   65SAPC   C11 5281   6.666   4.506   5.838 -0.2147  0.5053  0.2517
   65SAPC  H11A 5282   6.601   4.430   5.888  0.9729  0.2636  1.4745
   65SAPC  H11B 5283   6.622   4.602   5.870 -3.6571 -1.0487  0.3865
   65SAPC     P 5284   6.844   4.384   5.987  0.3251 -0.0501  0.5375
   65SAPC   O13 5285   6.769   4.259   5.964  0.2309 -0.3507  0.5717
   65SAPC   O14 5286   6.992   4.371   5.985 -0.7647 -1.3455 -0.0606
   65SAPC   O12 5287   6.805   4.487   5.883 -0.2007  0.1947 -0.9594
   65SAPC   O11 5288   6.800   4.453   6.122 -0.6571 -1.0087  0.1935
   65SAPC    C1 5289   6.803   4.594   6.143  0.1064 -0.3181  0.1673
   65SAPC    HA 5290   6.899   4.642   6.114  1.9741 -3.8256  0.3137
   65SAPC    HB 5291   6.721   4.638   6.082  1.4773 -1.3207 -2.4653
   65SAPC    C2 5292   6.780   4.634   6.292 -0.2335  0.7381  0.1514
   65SAPC    HS 5293   6.799   4.743   6.302 -2.7227  1.0500  1.9122
   65SAPC   O21 5294   6.859   4.556   6.381 -0.0024  0.3170  0.2612
   65SAPC   C21 5295   6.989   4.551   6.380  0.0046  0.6905  0.1731
   65SAPC   O22 5296   7.058   4.625   6.316  0.1277 -0.3431  0.4850
   65SAPC   C22 5297   7.039   4.445   6.472 -0.2268 -0.4656  0.7981
   65SAPC   H2R 5298   6.974   4.358   6.446  0.6919 -0.7892 -0.4737
   65SAPC   H2S 5299   7.144   4.413   6.452 -0.7367 -0.7687 -1.6313
   65SAPC    C3 5300   6.633   4.612   6.324  0.6836  0.4115  0.9109
   65SAPC    HX 5301   6.626   4.502   6.307 -1.4582  0.9378 -1.9329
   65SAPC    HY 5302   6.561   4.660   6.255  0.5000  0.1993  0.9522
   65SAPC   O31 5303   6.601   4.666   6.459  0.2420 -0.1711  0.6067
   65SAPC   C31 5304   6.575   4.574   6.548 -0.4845  1.0303 -0.3733
   65SAPC   O32 5305   6.563   4.454   6.527  0.1050 -0.0199  0.4805
   65SAPC   C32 5306   6.543   4.644   6.685  0.1899  0.4525  0.1768
   65SAPC   H2X 5307   6.443   4.692   6.678 -0.3291 -0.6084  0.2036
   65SAPC   H2Y 5308   6.623   4.717   6.709 -0.2167  0.2279  2.3648
   65SAPC   C23 5309   7.013   4.472   6.625 -0.1173 -0.3690  0.3231
   65SAPC   H3R 5310   6.923   4.538   6.630  0.9202  1.1043 -0.0651
   65SAPC   H3S 5311   7.107   4.516   6.665  0.8619  0.0783 -2.4101
   65SAPC   C24 5312   6.990   4.344   6.705  0.3350  0.1793  0.3857
   65SAPC   H4R 5313   7.071   4.274   6.676 -0.3193 -0.0684 -0.8670
   65SAPC   H4S 5314   6.897   4.290   6.675  0.7865 -0.7515  0.6472
   65SAPC   C25 5315   6.976   4.386   6.852  0.6063  0.2184  0.4111
   65SAPC   H5R 5316   6.884   4.446   6.854 -0.1471 -0.9012 -0.0317
   65SAPC   C26 5317   7.055   4.379   6.958 -0.2411 -0.1188 -0.8886
   65SAPC   H6R 5318   7.019   4.430   7.049  0.6283  0.0020 -0.6047
   65SAPC   C27 5319   7.186   4.313   6.979 -0.4453  0.3373 -0.6824
   65SAPC   H7R 5320   7.219   4.280   6.878  0.3482  0.4958 -0.4857
   65SAPC   H7S 5321   7.156   4.223   7.037  1.2748 -0.0491 -0.3626
   65SAPC   C28 5322   7.309   4.395   7.023  0.4141 -0.2694  0.6030
   65SAPC   H8R 5323   7.383   4.419   6.946 -0.8787  1.3500 -0.1598
   65SAPC   C29 5324   7.337   4.447   7.142  0.4670  0.4095  0.4603
   65SAPC   H9R 5325   7.426   4.510   7.145  0.0449  1.0638 -0.3323
   65SAPC  C210 5326   7.258   4.421   7.269  0.5851 -0.6440 -0.2380
   65SAPC  H10R 5327   7.315   4.357   7.339 -3.0332 -1.2335  2.3059
   65SAPC  H10S 5328   7.155   4.385   7.244  0.2059  0.2578 -0.0119
   65SAPC  C211 5329   7.243   4.555   7.338 -0.5953  0.1629 -0.5990
   65SAPC  H11R 5330   7.146   4.605   7.324 -0.3041  0.4171 -1.7553
   65SAPC  C212 5331   7.332   4.613   7.423  0.3562  0.1012 -0.6368
   65SAPC  H12R 5332   7.309   4.711   7.466 -1.2629 -0.2986 -0.5605
   65SAPC  C213 5333   7.466   4.564   7.467  0.0683 -0.2986  0.8699
   65SAPC  H13R 5334   7.536   4.646   7.494 -0.6636  0.4822  0.4220
   65SAPC  H13S 5335   7.511   4.514   7.378  1.5657  1.9837  0.2999
   65SAPC  C214 5336   7.463   4.469   7.586  0.4398 -0.4479  0.1784
   65SAPC  H14R 5337   7.402   4.383   7.557  0.9185 -0.0021 -2.2810
   65SAPC  C215 5338   7.523   4.482   7.709  0.0313  0.1461  0.6514
   65SAPC  H15R 5339   7.505   4.407   7.787  2.3433 -2.7526 -1.4770
   65SAPC  C216 5340   7.605   4.600   7.749  0.2044  0.0549 -1.0957
   65SAPC  H16R 5341   7.544   4.691   7.766 -0.4966 -0.8169  1.2399
   65SAPC  H16S 5342   7.675   4.625   7.666  0.1317 -1.2612 -1.5709
   65SAPC  C217 5343   7.694   4.578   7.881 -0.8641 -0.4321 -0.8550
   65SAPC  H17R 5344   7.769   4.657   7.905 -0.5767 -0.6684 -0.9717
   65SAPC  H17S 5345   7.763   4.492   7.869 -0.2837 -0.0097 -0.5696
   65SAPC  C218 5346   7.602   4.556   7.999  0.1563 -0.9048 -0.3167
   65SAPC  H18R 5347   7.537   4.469   7.975 -3.4608  1.7925 -0.6998
   65SAPC  H18S 5348   7.530   4.640   8.012 -0.5999 -1.2955 -1.8684
   65SAPC  C219 5349   7.680   4.528   8.130  0.1352  0.1673 -0.2925
   65SAPC  H19R 5350   7.742   4.620   8.137 -1.0511  0.9412  0.3532
   65SAPC  H19S 5351   7.740   4.435   8.123 -1.6386 -1.0152 -0.2811
   65SAPC  C220 5352   7.583   4.504   8.246  0.2678  0.6763 -0.2267
   65SAPC  H20R 5353   7.534   4.405   8.253 -3.1677  2.1430 -1.8719
   65SAPC  H20S 5354   7.497   4.574   8.235 -0.5782 -0.1317  0.9917
   65SAPC  H20T 5355   7.637   4.526   8.341 -1.1088 -1.6484  1.1442
   65SAPC   C33 5356   6.557   4.540   6.799  0.0254 -0.7051 -0.0577
   65SAPC   H3X 5357   6.660   4.497   6.792  0.5864  0.7283 -0.9443
   65SAPC   H3Y 5358   6.478   4.462   6.793 -1.2300  0.5276  0.3856
   65SAPC   C34 5359   6.550   4.602   6.944 -0.3856  0.0516 -0.0331
   65SAPC   H4X 5360   6.625   4.683   6.952  0.3537 -0.5183 -1.1122
   65SAPC   H4Y 5361   6.586   4.526   7.016 -0.1009 -0.7033 -0.9578
   65SAPC   C35 5362   6.408   4.644   6.981  0.6539  0.1485  0.7879
   65SAPC   H5X 5363   6.324   4.575   6.960  1.6482 -0.1316 -2.7360
   65SAPC   H5Y 5364   6.385   4.739   6.927 -0.0903 -0.4369  0.0767
   65SAPC   C36 5365   6.390   4.659   7.132  0.1096  0.2588  0.0259
   65SAPC   H6X 5366   6.418   4.561   7.178 -0.0535 -0.8157 -2.1179
   65SAPC   H6Y 5367   6.280   4.658   7.149 -0.0122  1.3419 -0.6865
   65SAPC   C37 5368   6.455   4.771   7.206  0.4859 -0.4971 -0.2180
   65SAPC   H7X 5369   6.418   4.860   7.152  1.0103  0.2003  0.5659
   65SAPC   H7Y 5370   6.565   4.761   7.191  0.6563  0.8864  0.0289
   65SAPC   C38 5371   6.406   4.794   7.346 -0.7419  0.6210  0.3194
   65SAPC   H8X 5372   6.299   4.769   7.361 -0.0511 -2.0339  1.0318
   65SAPC   H8Y 5373   6.400   4.902   7.372  0.7354  0.9219 -0.5650
   65SAPC   C39 5374   6.502   4.732   7.451  0.4756 -0.5954  0.2854
   65SAPC   H9X 5375   6.604   4.773   7.438 -0.0568  0.6613 -0.0464
   65SAPC   H9Y 5376   6.514   4.626   7.422 -1.8836 -0.4253 -1.4800
   65SAPC  C310 5377   6.446   4.737   7.597  0.2745 -0.0240 -0.5937
   65SAPC  H10X 5378   6.350   4.681   7.605  0.3036  0.1239  0.8335
   65SAPC  H10Y 5379   6.424   4.843   7.622  0.3960 -0.1088 -0.1222
   65SAPC  C311 5380   6.539   4.670   7.699  0.2440  0.2668  0.1402
   65SAPC  H11X 5381   6.626   4.740   7.698  2.0798 -1.9506  0.6336
   65SAPC  H11Y 5382   6.548   4.567   7.658 -0.2727  1.0240 -1.9414
   65SAPC  C312 5383   6.476   4.671   7.836 -0.4953 -0.4352 -0.2243
   65SAPC  H12X 5384   6.412   4.762   7.843 -1.6290 -1.1155 -1.6996
   65SAPC  H12Y 5385   6.558   4.673   7.912  0.5429 -2.7506 -1.2439
   65SAPC  C313 5386   6.379   4.549   7.849  0.2589 -0.6656 -0.1996
   65SAPC  H13X 5387   6.441   4.458   7.834  0.2820 -0.4239 -1.6423
   65SAPC  H13Y 5388   6.305   4.557   7.767  0.3325  2.7423  0.0152
   65SAPC  C314 5389   6.297   4.553   7.975  0.3293  0.7104  0.1518
   65SAPC  H14X 5390   6.252   4.654   7.991 -0.9028  0.0982  0.5660
   65SAPC  H14Y 5391   6.357   4.543   8.068 -1.8470 -0.0753  1.5140
   65SAPC  C315 5392   6.199   4.435   7.991 -0.3185 -0.4870 -0.6269
   65SAPC  H15X 5393   6.258   4.343   8.010 -1.2085 -0.6856  1.2035
   65SAPC  H15Y 5394   6.143   4.412   7.898 -1.3423 -1.8644  0.3166
   65SAPC  C316 5395   6.107   4.455   8.108 -0.0951  0.1414  0.0271
   65SAPC  H16X 5396   6.068   4.559   8.103  1.0410  0.4840 -2.3604
   65SAPC  H16Y 5397   6.161   4.445   8.204  1.1421 -0.1943 -0.7052
   65SAPC  C317 5398   5.994   4.351   8.126 -0.1571 -0.0563  0.1667
   65SAPC  H17X 5399   5.985   4.336   8.236 -0.9464 -1.5156 -0.0895
   65SAPC  H17Y 5400   6.041   4.260   8.083  0.7183  0.7759 -0.6731
   65SAPC  C318 5401   5.858   4.391   8.064 -0.1266 -0.3057 -0.0023
   65SAPC  H18X 5402   5.776   4.321   8.089  0.0585 -1.6237 -2.9302
   65SAPC  H18Y 5403   5.873   4.388   7.954  1.6319  0.9566  0.1693
   65SAPC  H18Z 5404   5.811   4.490   8.086  0.7643  0.4054 -1.1995
   66SAPC     N 5405   3.656   3.649   5.953  0.3523 -0.3322 -0.3226
   66SAPC   C12 5406   3.802   3.605   5.964 -0.2459 -0.2093 -1.1441
   66SAPC  H12A 5407   3.867   3.675   5.914 -2.6225  1.0660 -2.5551
   66SAPC  H12B 5408   3.798   3.511   5.911  2.6989 -0.4946 -0.9349
   66SAPC   C13 5409   3.630   3.788   6.010 -0.3641 -0.1380 -0.0788
   66SAPC  H13A 5410   3.691   3.855   5.952 -0.3638  1.3910  1.6489
   66SAPC  H13B 5411   3.526   3.810   5.990 -0.5029  1.2791  2.0216
   66SAPC  H13C 5412   3.644   3.804   6.116 -1.4768 -3.7279  0.6848
   66SAPC   C14 5413   3.619   3.652   5.800  0.7078 -0.2812 -0.1302
   66SAPC  H14A 5414   3.670   3.733   5.751 -0.7620  0.7284 -0.0292
   66SAPC  H14B 5415   3.641   3.555   5.758 -3.7224 -0.6776 -1.8859
   66SAPC  H14C 5416   3.513   3.666   5.782  0.3728 -0.9728  1.2443
   66SAPC   C15 5417   3.564   3.542   6.012 -0.3860 -0.5227  0.1740
   66SAPC  H15A 5418   3.587   3.522   6.115  0.6082 -1.3177 -0.1985
   66SAPC  H15B 5419   3.460   3.569   6.001 -0.5686 -1.2563  0.1068
   66SAPC  H15C 5420   3.585   3.450   5.959 -1.2886 -0.3586 -0.4882
   66SAPC   C11 5421   3.858   3.601   6.108  0.0081  0.2914 -0.5030
   66SAPC  H11A 5422   3.791   3.535   6.168 -2.4132  0.2861 -3.1457
   66SAPC  H11B 5423   3.842   3.699   6.159 -1.8933 -1.1828  1.8370
   66SAPC     P 5424   4.045   3.413   6.120 -0.0194  0.4371  0.1056
   66SAPC   O13 5425   3.985   3.327   6.018  0.5181 -0.0487  0.0568
   66SAPC   O14 5426   4.191   3.408   6.116  0.5804 -0.3535 -0.1896
   66SAPC   O12 5427   4.003   3.566   6.110  0.3371  0.0494  0.0156
   66SAPC   O11 5428   3.985   3.364   6.255  0.2165 -0.0080 -1.0375
   66SAPC    C1 5429   4.060   3.292   6.347 -0.3261  0.0273 -0.3375
   66SAPC    HA 5430   4.034   3.184   6.350  0.7128 -0.2280 -0.3943
   66SAPC    HB 5431   4.168   3.317   6.342 -0.7368  1.9184 -0.0417
   66SAPC    C2 5432   4.022   3.331   6.491  0.1780 -0.8145  0.7713
   66SAPC    HS 5433   3.912   3.347   6.480  0.0134 -2.8733 -0.6819
   66SAPC   O21 5434   4.095   3.444   6.522 -0.1640 -0.5079 -0.2037
   66SAPC   C21 5435   4.017   3.554   6.540 -0.5780 -0.5103  0.3387
   66SAPC   O22 5436   3.892   3.550   6.532 -0.0895  0.5328  0.0322
   66SAPC   C22 5437   4.105   3.671   6.584 -0.2573 -0.3817  0.0844
   66SAPC   H2R 5438   4.168   3.646   6.673 -1.2073 -1.3487  0.5013
   66SAPC   H2S 5439   4.167   3.708   6.501  0.8764  0.6159  1.3490
   66SAPC    C3 5440   4.045   3.223   6.601 -0.3966  0.7233 -0.8393
   66SAPC    HX 5441   4.145   3.178   6.583 -0.9802 -0.2475 -1.7357
   66SAPC    HY 5442   3.971   3.141   6.585  0.0319  0.5594 -2.0864
   66SAPC   O31 5443   4.021   3.278   6.729 -0.3985 -0.1415 -0.4790
   66SAPC   C31 5444   4.135   3.330   6.795  0.1014 -0.2078 -0.1300
   66SAPC   O32 5445   4.248   3.327   6.755  0.1365  0.4320 -0.1434
   66SAPC   C32 5446   4.092   3.410   6.917  0.1853  1.6015  0.6014
   66SAPC   H2X 5447   4.017   3.348   6.970  1.6342 -3.0722 -2.4736
   66SAPC   H2Y 5448   4.033   3.496   6.878 -2.9836 -0.1663  1.3473
   66SAPC   C23 5449   4.015   3.787   6.635  0.4159  0.0791 -0.2221
   66SAPC   H3R 5450   3.953   3.758   6.723 -0.1502  1.1689 -0.2529
   66SAPC   H3S 5451   3.948   3.801   6.548 -0.6483 -0.5909  0.4807
   66SAPC   C24 5452   4.092   3.917   6.665 -0.8315  0.5615  0.3365
   66SAPC   H4R 5453   4.145   3.954   6.575  0.4320  2.8018  1.9581
   66SAPC   H4S 5454   4.161   3.888   6.747  2.0292  0.6787 -1.9656
   66SAPC   C25 5455   4.010   4.036   6.701  0.4081 -0.1341 -0.4804
   66SAPC   H5R 5456   3.933   4.053   6.623 -0.3427 -2.3702 -0.2586
   66SAPC   C26 5457   4.036   4.125   6.800  0.0397 -0.3413  0.5184
   66SAPC   H6R 5458   3.969   4.212   6.804 -0.4441 -0.6759 -0.2211
   66SAPC   C27 5459   4.155   4.114   6.899  0.4155  0.7555 -0.6228
   66SAPC   H7R 5460   4.231   4.042   6.862  0.9189  0.3876  1.0737
   66SAPC   H7S 5461   4.123   4.065   6.994 -0.1933  0.2431 -1.0835
   66SAPC   C28 5462   4.206   4.253   6.921 -0.1251  0.1591 -0.8406
   66SAPC   H8R 5463   4.178   4.336   6.855 -1.5562  1.5466  1.4532
   66SAPC   C29 5464   4.303   4.292   7.006  0.2387 -0.5500  0.2955
   66SAPC   H9R 5465   4.329   4.397   7.025  0.9820 -0.6271 -0.2969
   66SAPC  C210 5466   4.364   4.203   7.110  0.1977  0.0060 -0.1281
   66SAPC  H10R 5467   4.466   4.234   7.141  0.8430 -1.9857 -0.1621
   66SAPC  H10S 5468   4.396   4.110   7.059  0.3223  0.0186 -0.0738
   66SAPC  C211 5469   4.280   4.160   7.236  0.9113 -0.3228  0.9122
   66SAPC  H11R 5470   4.183   4.115   7.212  1.7249 -1.7525  0.1926
   66SAPC  C212 5471   4.320   4.183   7.362  0.7238  0.8959 -0.2425
   66SAPC  H12R 5472   4.264   4.142   7.448 -1.9675  1.5300 -1.6475
   66SAPC  C213 5473   4.453   4.243   7.401  0.5835 -0.8124 -0.5588
   66SAPC  H13R 5474   4.472   4.336   7.343  0.7764  0.1299  0.9907
   66SAPC  H13S 5475   4.535   4.168   7.392  0.5737 -0.8194 -0.5908
   66SAPC  C214 5476   4.454   4.297   7.543 -0.3515 -0.0035  0.0156
   66SAPC  H14R 5477   4.462   4.407   7.547 -0.0809 -0.0815  2.0122
   66SAPC  C215 5478   4.457   4.227   7.660  0.8073  0.0470 -0.3420
   66SAPC  H15R 5479   4.478   4.286   7.751 -1.9774 -0.2206  0.5064
   66SAPC  C216 5480   4.457   4.077   7.660 -0.6326 -0.0568  0.0009
   66SAPC  H16R 5481   4.552   4.041   7.705 -1.9378 -2.1435  1.1505
   66SAPC  H16S 5482   4.453   4.031   7.559 -0.4919  0.5596 -0.2906
   66SAPC  C217 5483   4.348   4.031   7.759  0.0131  0.4188  0.1718
   66SAPC  H17R 5484   4.356   3.920   7.758  1.4832  0.5246 -0.1474
   66SAPC  H17S 5485   4.244   4.054   7.728 -0.2504 -1.8580 -0.7523
   66SAPC  C218 5486   4.367   4.080   7.905 -0.0920  0.6603  0.0635
   66SAPC  H18R 5487   4.343   4.188   7.922 -0.8511  0.5016  0.0420
   66SAPC  H18S 5488   4.476   4.071   7.922 -0.0907  0.8258  0.1504
   66SAPC  C219 5489   4.286   3.994   8.005  0.0931  0.3135 -0.4380
   66SAPC  H19R 5490   4.299   4.039   8.105  3.0881 -0.8349 -0.2916
   66SAPC  H19S 5491   4.335   3.895   8.012  1.7805  1.2737  1.4350
   66SAPC  C220 5492   4.128   3.984   7.985 -0.2436  0.4571  0.3694
   66SAPC  H20R 5493   4.088   4.085   8.006 -1.9119  0.0936 -0.9509
   66SAPC  H20S 5494   4.088   3.922   8.069 -1.8974  1.0349  0.0348
   66SAPC  H20T 5495   4.097   3.939   7.889  2.8938 -1.0153 -0.0107
   66SAPC   C33 5496   4.210   3.454   7.012 -0.0607 -0.1886 -0.5697
   66SAPC   H3X 5497   4.273   3.531   6.962  1.0599 -1.0950 -0.5818
   66SAPC   H3Y 5498   4.271   3.362   7.022 -2.3681 -1.7737 -0.6808
   66SAPC   C34 5499   4.160   3.501   7.149  0.4606 -0.5793 -0.1918
   66SAPC   H4X 5500   4.093   3.427   7.197 -0.4966  1.0433  1.0070
   66SAPC   H4Y 5501   4.109   3.599   7.139  0.5203 -0.5150  0.1296
   66SAPC   C35 5502   4.279   3.520   7.248  0.4169  0.4075 -0.3438
   66SAPC   H5X 5503   4.355   3.599   7.231  1.1291  0.2003  1.7365
   66SAPC   H5Y 5504   4.327   3.420   7.251 -0.1856  0.1637  2.1366
   66SAPC   C36 5505   4.241   3.543   7.399 -0.5570 -0.8267 -0.0569
   66SAPC   H6X 5506   4.167   3.465   7.428  0.9211 -1.0067  3.4727
   66SAPC   H6Y 5507   4.183   3.635   7.418 -1.2966 -1.0367 -1.2540
   66SAPC   C37 5508   4.363   3.533   7.488 -0.3861 -0.2862  0.8675
   66SAPC   H7X 5509   4.410   3.633   7.473 -2.6543  0.5410 -0.9974
   66SAPC   H7Y 5510   4.440   3.460   7.455 -1.4165 -1.3665  0.8233
   66SAPC   C38 5511   4.333   3.518   7.637  0.4664  0.3011 -0.4185
   66SAPC   H8X 5512   4.428   3.546   7.687 -1.2419  2.1100  1.8981
   66SAPC   H8Y 5513   4.325   3.411   7.668 -0.9526  0.8254  1.0814
   66SAPC   C39 5514   4.218   3.606   7.686  0.2945  0.0835 -0.2944
   66SAPC   H9X 5515   4.125   3.604   7.624 -1.6240 -1.6531  2.5150
   66SAPC   H9Y 5516   4.256   3.710   7.690 -0.6146  0.4465 -0.9127
   66SAPC  C310 5517   4.154   3.582   7.822  1.0295  0.6094 -0.8442
   66SAPC  H10X 5518   4.089   3.492   7.835  0.1665  1.7956  4.3099
   66SAPC  H10Y 5519   4.092   3.673   7.838 -1.0267 -0.7639 -0.7627
   66SAPC  C311 5520   4.262   3.580   7.937 -0.1710 -0.4346 -0.4388
   66SAPC  H11X 5521   4.348   3.650   7.926 -0.0192 -0.1577  2.1016
   66SAPC  H11Y 5522   4.313   3.481   7.935  1.8415  0.5434  0.8858
   66SAPC  C312 5523   4.189   3.598   8.067 -0.5071  0.2958  0.1585
   66SAPC  H12X 5524   4.105   3.526   8.082  0.1730 -0.2515  1.4458
   66SAPC  H12Y 5525   4.144   3.699   8.059 -1.9768 -0.4826 -1.6551
   66SAPC  C313 5526   4.287   3.593   8.191 -0.3666  0.5722  0.3824
   66SAPC  H13X 5527   4.348   3.686   8.199 -0.2303  0.6114 -1.0797
   66SAPC  H13Y 5528   4.356   3.506   8.181  0.4835  1.4449 -1.6351
   66SAPC  C314 5529   4.204   3.563   8.318 -0.5997 -0.1718 -0.5637
   66SAPC  H14X 5530   4.276   3.542   8.400  0.2254  1.2536 -0.9007
   66SAPC  H14Y 5531   4.137   3.474   8.320 -1.4171  0.4192 -1.1394
   66SAPC  C315 5532   4.113   3.686   8.359  0.2564 -0.2732 -0.4769
   66SAPC  H15X 5533   4.051   3.716   8.273  0.8163  1.5427 -0.2849
   66SAPC  H15Y 5534   4.171   3.777   8.388 -1.0471  0.2772  0.4437
   66SAPC  C316 5535   4.028   3.646   8.474  0.4319 -0.0443  0.0274
   66SAPC  H16X 5536   4.085   3.604   8.559  3.6231  0.0456 -1.9600
   66SAPC  H16Y 5537   3.958   3.570   8.435 -1.8767  2.5965 -1.1930
   66SAPC  C317 5538   3.945   3.765   8.527 -0.4470  0.7914 -0.1975
   66SAPC  H17X 5539   3.917   3.845   8.455  0.6296  0.1419 -1.3577
   66SAPC  H17Y 5540   4.012   3.832   8.586 -0.3200 -0.2750  0.8867
   66SAPC  C318 5541   3.827   3.739   8.621 -0.4635 -0.4355  0.3834
   66SAPC  H18X 5542   3.780   3.838   8.640 -0.6758 -0.5531  0.4813
   66SAPC  H18Y 5543   3.865   3.701   8.718  1.1330  2.0843  0.7994
   66SAPC  H18Z 5544   3.760   3.665   8.573 -0.7600  0.1556 -0.1167
   67SAPC     N 5545   6.629   6.748   6.312  0.1616  0.0644  0.2574
   67SAPC   C12 5546   6.659   6.654   6.428 -0.5179 -0.2359  0.0925
   67SAPC  H12A 5547   6.573   6.647   6.494 -0.3618  0.8047  0.4053
   67SAPC  H12B 5548   6.730   6.704   6.491 -0.9153 -1.0995  1.2517
   67SAPC   C13 5549   6.755   6.765   6.233 -0.6171  0.2183  0.1300
   67SAPC  H13A 5550   6.796   6.668   6.211 -0.9625  0.0840  0.0825
   67SAPC  H13B 5551   6.744   6.818   6.140  0.9220 -0.9157 -0.7200
   67SAPC  H13C 5552   6.828   6.812   6.298  0.9025  1.5661 -2.4867
   67SAPC   C14 5553   6.525   6.710   6.221 -0.3171 -0.2163  0.2989
   67SAPC  H14A 5554   6.430   6.698   6.271 -0.3622 -0.3026  0.1927
   67SAPC  H14B 5555   6.516   6.772   6.133 -1.3221  0.2447  0.7209
   67SAPC  H14C 5556   6.542   6.612   6.179 -1.6674  0.0107 -0.8436
   67SAPC   C15 5557   6.592   6.879   6.369  0.2963 -0.1843  0.6364
   67SAPC  H15A 5558   6.505   6.876   6.433  1.4805 -0.4376  2.2689
   67SAPC  H15B 5559   6.663   6.923   6.437 -2.3580  2.8044  1.5865
   67SAPC  H15C 5560   6.572   6.954   6.294  0.3735  0.5378  1.3288
   67SAPC   C11 5561   6.718   6.515   6.392  0.5638  0.2139 -0.4257
   67SAPC  H11A 5562   6.757   6.452   6.475  3.2656  1.6257 -0.5569
   67SAPC  H11B 5563   6.807   6.543   6.332  0.1063  2.3757 -0.1488
   67SAPC     P 5564   6.514   6.357   6.393 -0.0869 -0.2362  0.4332
   67SAPC   O13 5565   6.495   6.416   6.528 -0.0341 -0.6286 -0.2884
   67SAPC   O14 5566   6.389   6.348   6.317 -0.2565 -0.4888  0.3021
   67SAPC   O12 5567   6.618   6.444   6.312 -0.1494 -0.2166  0.5486
   67SAPC   O11 5568   6.592   6.218   6.401 -0.5838  0.0689  0.6569
   67SAPC    C1 5569   6.676   6.193   6.516  0.0340 -0.4151 -0.0729
   67SAPC    HA 5570   6.785   6.202   6.494 -0.1237  0.9675 -0.2826
   67SAPC    HB 5571   6.660   6.264   6.599 -2.3065  0.7732 -1.4876
   67SAPC    C2 5572   6.654   6.057   6.586 -0.6431 -0.4324  0.6805
   67SAPC    HS 5573   6.651   5.984   6.502 -1.3098 -1.1996  1.3668
   67SAPC   O21 5574   6.533   6.064   6.661  0.3128  0.6498 -0.0902
   67SAPC   C21 5575   6.444   5.965   6.653 -0.0896  0.0797  0.4579
   67SAPC   O22 5576   6.445   5.876   6.566  0.1226 -0.6284 -0.0726
   67SAPC   C22 5577   6.348   5.992   6.761 -0.1693  0.7107  0.8416
   67SAPC   H2R 5578   6.341   6.102   6.775  2.2329  0.6184  3.1889
   67SAPC   H2S 5579   6.251   5.956   6.722 -0.4775 -0.4079  2.5669
   67SAPC    C3 5580   6.761   6.012   6.692  0.5340  0.0646 -0.4301
   67SAPC    HX 5581   6.727   6.044   6.793 -0.0337 -1.8480  0.0256
   67SAPC    HY 5582   6.847   6.075   6.662  0.7662 -0.8413 -1.7053
   67SAPC   O31 5583   6.775   5.866   6.683 -0.0483 -0.4152  0.3661
   67SAPC   C31 5584   6.753   5.802   6.802 -0.2637  0.1776  1.0147
   67SAPC   O32 5585   6.709   5.854   6.901 -0.0568  0.5023  0.0491
   67SAPC   C32 5586   6.778   5.654   6.778 -0.0970 -0.9558 -0.0245
   67SAPC   H2X 5587   6.879   5.649   6.733  0.9387  0.0609  2.0810
   67SAPC   H2Y 5588   6.705   5.615   6.704  0.9024 -1.3656 -0.8052
   67SAPC   C23 5589   6.375   5.922   6.897 -0.0020  0.5169  0.3294
   67SAPC   H3R 5590   6.460   5.979   6.941 -2.3218  4.0321  0.4014
   67SAPC   H3S 5591   6.409   5.818   6.875 -3.5522 -0.6693  0.2200
   67SAPC   C24 5592   6.259   5.921   6.996 -0.0157  0.8254  0.4732
   67SAPC   H4R 5593   6.277   5.841   7.071  0.2316 -1.5960 -2.0632
   67SAPC   H4S 5594   6.171   5.887   6.936  0.3865 -0.0742  0.3737
   67SAPC   C25 5595   6.229   6.064   7.039 -0.5781 -0.5905 -0.2288
   67SAPC   H5R 5596   6.245   6.140   6.960 -0.7683 -2.0256 -1.6826
   67SAPC   C26 5597   6.197   6.114   7.155 -0.0415 -0.8291 -0.2136
   67SAPC   H6R 5598   6.186   6.223   7.164 -0.0365 -0.7519 -1.1024
   67SAPC   C27 5599   6.174   6.041   7.283  0.2946  0.3843 -0.0907
   67SAPC   H7R 5600   6.154   5.933   7.262  0.3182 -0.2830  2.9948
   67SAPC   H7S 5601   6.085   6.082   7.335 -0.2186 -0.2526 -0.4488
   67SAPC   C28 5602   6.288   6.023   7.370  0.4681 -0.0754  0.1325
   67SAPC   H8R 5603   6.386   6.007   7.323  0.0184  1.5547 -1.4122
   67SAPC   C29 5604   6.295   6.054   7.502 -0.0406 -0.3610 -1.0773
   67SAPC   H9R 5605   6.394   6.034   7.546 -1.1918 -0.6005  1.4489
   67SAPC  C210 5606   6.180   6.109   7.590 -0.0412  0.3029 -0.0494
   67SAPC  H10R 5607   6.097   6.035   7.589 -0.5145  0.8327 -0.3651
   67SAPC  H10S 5608   6.142   6.203   7.544  3.9040  1.5290 -1.0601
   67SAPC  C211 5609   6.226   6.133   7.731  0.0063 -0.0675 -0.0695
   67SAPC  H11R 5610   6.249   6.239   7.749  1.8924 -0.6950  1.3649
   67SAPC  C212 5611   6.258   6.044   7.826  0.6225 -0.1042 -0.2236
   67SAPC  H12R 5612   6.295   6.085   7.921  0.9201  1.1814 -0.8741
   67SAPC  C213 5613   6.256   5.892   7.813 -0.6426 -0.5325  0.1453
   67SAPC  H13R 5614   6.362   5.859   7.809  0.0118  1.5123  0.0214
   67SAPC  H13S 5615   6.213   5.859   7.716  0.2939 -1.3803  0.0143
   67SAPC  C214 5616   6.184   5.836   7.933 -0.8155  0.6297  0.3031
   67SAPC  H14R 5617   6.078   5.807   7.923 -1.0413  1.9005 -1.1596
   67SAPC  C215 5618   6.252   5.791   8.045 -0.0265 -0.0817 -0.3466
   67SAPC  H15R 5619   6.197   5.757   8.134  1.5205  1.9563  1.4371
   67SAPC  C216 5620   6.401   5.786   8.070 -0.4388  0.4600  0.5868
   67SAPC  H16R 5621   6.452   5.852   7.996 -0.2544  0.2567  0.5320
   67SAPC  H16S 5622   6.449   5.686   8.058 -1.2527  0.1923 -0.4941
   67SAPC  C217 5623   6.435   5.842   8.209 -0.0521 -0.3190 -0.0000
   67SAPC  H17R 5624   6.390   5.782   8.291  2.1319 -4.0074 -1.3760
   67SAPC  H17S 5625   6.383   5.940   8.215 -0.7751 -0.5669 -1.8952
   67SAPC  C218 5626   6.586   5.856   8.232  0.5036 -0.3953 -0.2281
   67SAPC  H18R 5627   6.628   5.925   8.156  1.7498 -2.8911 -1.8450
   67SAPC  H18S 5628   6.628   5.755   8.216 -0.6486 -0.5983 -2.1489
   67SAPC  C219 5629   6.622   5.898   8.371  0.3328  0.1372  0.1039
   67SAPC  H19R 5630   6.729   5.894   8.403  0.2185 -1.5129  0.3642
   67SAPC  H19S 5631   6.574   5.836   8.450  1.5368  2.3574  2.6821
   67SAPC  C220 5632   6.579   6.050   8.391  0.1322  1.0380 -0.4938
   67SAPC  H20R 5633   6.635   6.093   8.477  3.2163  1.3251 -2.5494
   67SAPC  H20S 5634   6.469   6.054   8.404  0.2768 -1.8178  2.5265
   67SAPC  H20T 5635   6.597   6.104   8.296 -0.7506  1.2478 -0.5418
   67SAPC   C33 5636   6.768   5.564   6.907 -0.0404 -0.2495  0.1797
   67SAPC   H3X 5637   6.737   5.458   6.890 -0.6440  0.4110 -3.1034
   67SAPC   H3Y 5638   6.697   5.613   6.977 -1.6945 -0.5570 -1.2782
   67SAPC   C34 5639   6.910   5.557   6.970 -0.2253 -0.0741 -0.4659
   67SAPC   H4X 5640   6.956   5.659   6.966  2.8397 -1.4222 -0.9688
   67SAPC   H4Y 5641   6.969   5.488   6.906  0.1407  1.1736 -1.5105
   67SAPC   C35 5642   6.905   5.506   7.118  0.6758  0.7500  0.6350
   67SAPC   H5X 5643   6.825   5.430   7.121  0.4670  0.9977  1.3327
   67SAPC   H5Y 5644   6.870   5.595   7.174 -1.4096  0.4237 -0.1152
   67SAPC   C36 5645   7.027   5.453   7.190 -0.4737 -0.8135 -0.0232
   67SAPC   H6X 5646   7.111   5.526   7.197  0.0379 -1.5572  1.8245
   67SAPC   H6Y 5647   7.081   5.370   7.140 -2.2080 -1.5404 -0.7030
   67SAPC   C37 5648   6.986   5.400   7.326  0.0868  0.2420 -0.3056
   67SAPC   H7X 5649   6.919   5.312   7.329  1.5203 -0.9074 -1.6324
   67SAPC   H7Y 5650   6.929   5.474   7.387  0.3841  0.0693  0.1848
   67SAPC   C38 5651   7.112   5.374   7.408  1.2768 -0.6608 -0.2426
   67SAPC   H8X 5652   7.172   5.467   7.403 -2.1719  1.7449  1.3570
   67SAPC   H8Y 5653   7.155   5.286   7.355  0.5410 -0.3975 -1.3002
   67SAPC   C39 5654   7.088   5.340   7.557  0.0611 -0.4459 -0.5125
   67SAPC   H9X 5655   7.153   5.252   7.573 -0.1087 -0.3383  0.8733
   67SAPC   H9Y 5656   6.987   5.301   7.582 -0.6041  1.5959  0.0951
   67SAPC  C310 5657   7.139   5.444   7.647 -0.3557  0.4395 -0.6588
   67SAPC  H10X 5658   7.088   5.539   7.622 -0.8079  0.5744  0.7421
   67SAPC  H10Y 5659   7.248   5.455   7.627 -0.3508  0.9943 -0.3254
   67SAPC  C311 5660   7.116   5.404   7.791 -0.3573 -0.4038 -0.2081
   67SAPC  H11X 5661   7.185   5.456   7.861 -1.0751  1.1161 -0.6148
   67SAPC  H11Y 5662   7.148   5.298   7.797  0.4557 -0.0497  2.3268
   67SAPC  C312 5663   6.971   5.416   7.839 -0.5569 -0.8392 -0.4070
   67SAPC  H12X 5664   6.925   5.321   7.804 -0.6196 -0.3949 -1.5587
   67SAPC  H12Y 5665   6.921   5.498   7.784  1.7558  0.6903 -0.2890
   67SAPC  C313 5666   6.960   5.423   7.990 -0.0481 -0.1165 -0.0652
   67SAPC  H13X 5667   6.986   5.523   8.033  0.1644 -0.4681  0.6266
   67SAPC  H13Y 5668   7.029   5.348   8.035 -1.0967  0.2639  2.2789
   67SAPC  C314 5669   6.814   5.398   8.031 -0.1294  0.6228  0.7442
   67SAPC  H14X 5670   6.783   5.306   7.977  0.5016  0.6753  0.2830
   67SAPC  H14Y 5671   6.754   5.489   8.008  0.6691  1.2482  1.1041
   67SAPC  C315 5672   6.808   5.374   8.178 -0.4489  0.5118  0.5072
   67SAPC  H15X 5673   6.826   5.471   8.229  1.8012 -0.7462  2.2206
   67SAPC  H15Y 5674   6.897   5.311   8.199 -0.5714 -1.1486 -3.5690
   67SAPC  C316 5675   6.678   5.313   8.232  0.5350  0.1663  0.1584
   67SAPC  H16X 5676   6.692   5.257   8.327  1.4391 -4.1354 -2.3549
   67SAPC  H16Y 5677   6.651   5.239   8.154  1.0024  1.9289 -1.7236
   67SAPC  C317 5678   6.569   5.416   8.242 -0.8197  0.5115 -0.5093
   67SAPC  H17X 5679   6.554   5.479   8.151  0.0836  0.5124 -0.6639
   67SAPC  H17Y 5680   6.593   5.481   8.330 -0.4409 -0.5961  0.2087
   67SAPC  C318 5681   6.432   5.347   8.279  0.6571 -0.5026 -0.2266
   67SAPC  H18X 5682   6.443   5.297   8.378 -2.1467  3.4889  2.2528
   67SAPC  H18Y 5683   6.404   5.272   8.203 -0.6164  0.0492 -0.3178
   67SAPC  H18Z 5684   6.362   5.432   8.292  2.9108  1.0934  2.1513
   68SAPC     N 5685   3.921   4.969   6.002 -0.6235 -0.1963  0.1283
   68SAPC   C12 5686   4.020   4.854   6.007  0.3854  0.1738  0.2754
   68SAPC  H12A 5687   4.043   4.820   5.907 -0.7765  2.6831 -0.8921
   68SAPC  H12B 5688   3.974   4.769   6.055  0.8561  0.4115  1.1595
   68SAPC   C13 5689   3.786   4.925   5.966 -0.3491 -0.8640  0.7830
   68SAPC  H13A 5690   3.742   4.861   6.041 -2.5151  2.0594  2.1300
   68SAPC  H13B 5691   3.724   5.010   5.939  1.8880 -0.1858 -2.4721
   68SAPC  H13C 5692   3.787   4.866   5.876  2.5519  1.0413 -0.5012
   68SAPC   C14 5693   3.923   5.042   6.129 -0.3188  0.0200  0.0209
   68SAPC  H14A 5694   3.841   5.112   6.133  0.5721  1.0915 -0.3601
   68SAPC  H14B 5695   3.909   4.974   6.212 -1.8195  2.5962  1.9933
   68SAPC  H14C 5696   4.014   5.096   6.150  0.1027 -0.1019 -1.4714
   68SAPC   C15 5697   3.957   5.063   5.891 -0.6286 -0.1759  0.5285
   68SAPC  H15A 5698   4.047   5.119   5.916  0.0209 -1.5121  1.2685
   68SAPC  H15B 5699   3.983   5.008   5.802  1.8817 -1.3853  1.9467
   68SAPC  H15C 5700   3.881   5.132   5.858  1.0224  1.3002 -0.2754
   68SAPC   C11 5701   4.148   4.883   6.087 -0.0374  0.0580  0.2889
   68SAPC  H11A 5702   4.213   4.793   6.079 -0.7812 -0.4023 -0.7309
   68SAPC  H11B 5703   4.121   4.887   6.195 -1.7251  0.2663 -0.1286
   68SAPC     P 5704   4.284   5.104   6.122  0.1835  0.0406  0.0311
   68SAPC   O13 5705   4.412   5.136   6.065 -0.5739 -0.9088 -0.8414
   68SAPC   O14 5706   4.190   5.218   6.133  0.5676 -0.6513  0.0265
   68SAPC   O12 5707   4.216   4.997   6.034 -0.4206  0.4170 -0.6186
   68SAPC   O11 5708   4.309   5.037   6.259 -0.3493  0.1623 -0.0961
   68SAPC    C1 5709   4.409   4.940   6.295  0.9998 -0.4074 -0.2458
   68SAPC    HA 5710   4.370   4.838   6.274  0.7953 -0.7346  1.6666
   68SAPC    HB 5711   4.500   4.961   6.235  0.7481  1.8842  0.1281
   68SAPC    C2 5712   4.439   4.954   6.446 -0.2632 -0.4754  0.8205
   68SAPC    HS 5713   4.524   4.885   6.467  1.0432  0.8440 -0.0046
   68SAPC   O21 5714   4.323   4.944   6.531 -0.4774  0.0065  0.2217
   68SAPC   C21 5715   4.291   4.818   6.548 -0.6202 -0.2112 -0.3057
   68SAPC   O22 5716   4.337   4.726   6.482 -0.4052 -0.5599 -0.0947
   68SAPC   C22 5717   4.178   4.809   6.651 -0.0320  0.0744  0.2657
   68SAPC   H2R 5718   4.089   4.864   6.614 -1.5950 -0.4268  3.1258
   68SAPC   H2S 5719   4.146   4.704   6.665  0.5882 -0.2185 -0.4558
   68SAPC    C3 5720   4.501   5.098   6.477 -0.7841  0.2711 -0.0867
   68SAPC    HX 5721   4.421   5.169   6.447  0.9843  2.0737 -0.6024
   68SAPC    HY 5722   4.585   5.107   6.404  0.3154 -0.3199  1.0851
   68SAPC   O31 5723   4.542   5.125   6.613 -0.3909  0.0720  0.0270
   68SAPC   C31 5724   4.648   5.069   6.664  0.3138 -0.6799  0.3655
   68SAPC   O32 5725   4.730   5.010   6.603 -0.1284 -0.2027  0.1517
   68SAPC   C32 5726   4.647   5.086   6.817  0.1490 -0.4967  0.1190
   68SAPC   H2X 5727   4.539   5.085   6.842 -0.0215 -2.2309 -0.6196
   68SAPC   H2Y 5728   4.696   5.184   6.834  0.3408 -0.1104 -2.4206
   68SAPC   C23 5729   4.230   4.863   6.785 -0.0256  0.4802 -0.7972
   68SAPC   H3R 5730   4.149   4.898   6.852 -0.5299 -1.8978 -0.1012
   68SAPC   H3S 5731   4.284   4.958   6.766  1.9085 -0.1300  1.3825
   68SAPC   C24 5732   4.330   4.776   6.863 -0.0681 -0.3810 -0.4388
   68SAPC   H4R 5733   4.381   4.837   6.941 -1.4583 -0.6056  0.6596
   68SAPC   H4S 5734   4.411   4.736   6.797 -0.8929 -0.1222 -1.6113
   68SAPC   C25 5735   4.264   4.654   6.925  0.3008 -0.3516  0.3915
   68SAPC   H5R 5736   4.215   4.582   6.857 -1.6260  1.2505  0.0297
   68SAPC   C26 5737   4.247   4.637   7.055 -0.1549  0.1954  0.0475
   68SAPC   H6R 5738   4.192   4.551   7.095  0.9898 -0.5768 -0.0102
   68SAPC   C27 5739   4.298   4.731   7.162 -0.2212 -0.1048  0.4212
   68SAPC   H7R 5740   4.243   4.711   7.257  0.9054  1.7434  1.5005
   68SAPC   H7S 5741   4.285   4.836   7.128  2.5573  0.4746  0.9349
   68SAPC   C28 5742   4.444   4.712   7.203  0.4364 -0.0425 -0.2647
   68SAPC   H8R 5743   4.508   4.657   7.133 -1.0728 -0.9258 -0.9770
   68SAPC   C29 5744   4.500   4.749   7.322 -0.2668 -0.6996 -0.3544
   68SAPC   H9R 5745   4.609   4.741   7.323 -0.2936 -1.1995 -1.0977
   68SAPC  C210 5746   4.441   4.819   7.449  0.3377 -0.5088  0.0353
   68SAPC  H10R 5747   4.339   4.860   7.430  1.9296  3.5497 -0.1954
   68SAPC  H10S 5748   4.501   4.909   7.471 -1.9246  0.5766  2.0071
   68SAPC  C211 5749   4.439   4.722   7.573 -0.5902 -0.0330 -0.1982
   68SAPC  H11R 5750   4.382   4.628   7.562 -1.3799  0.5014 -0.7100
   68SAPC  C212 5751   4.502   4.742   7.690 -0.7453 -0.1821 -0.6171
   68SAPC  H12R 5752   4.490   4.667   7.770  0.0434  0.7187  0.3691
   68SAPC  C213 5753   4.584   4.874   7.726 -0.5180  0.5602 -0.6531
   68SAPC  H13R 5754   4.535   4.957   7.671 -2.7729  0.6911  1.4489
   68SAPC  H13S 5755   4.690   4.876   7.695 -0.0447 -1.4569  0.7533
   68SAPC  C214 5756   4.566   4.891   7.878  0.6004 -0.5465  0.4254
   68SAPC  H14R 5757   4.460   4.885   7.905  0.9099 -0.3002  1.6987
   68SAPC  C215 5758   4.658   4.938   7.965 -0.1302  0.3510  0.0600
   68SAPC  H15R 5759   4.617   4.944   8.067 -1.3060 -2.0275 -0.2296
   68SAPC  C216 5760   4.801   4.981   7.939  0.3254 -0.2073  0.0936
   68SAPC  H16R 5761   4.799   5.083   7.895  3.4560  0.0335  0.3570
   68SAPC  H16S 5762   4.857   4.922   7.863  0.2129  0.2079 -0.3125
   68SAPC  C217 5763   4.887   4.991   8.064 -0.1638  0.5872  0.2288
   68SAPC  H17R 5764   4.987   5.016   8.021 -0.1069  1.2534  0.7361
   68SAPC  H17S 5765   4.887   4.892   8.113  0.4734 -0.4254 -1.7656
   68SAPC  C218 5766   4.839   5.091   8.164  0.2969 -0.5250 -0.1517
   68SAPC  H18R 5767   4.751   5.050   8.218 -0.1860  0.5131 -0.1311
   68SAPC  H18S 5768   4.815   5.191   8.123 -0.4377 -1.4320 -2.0209
   68SAPC  C219 5769   4.938   5.107   8.285  0.4584 -0.1603 -0.1273
   68SAPC  H19R 5770   5.033   5.140   8.238  0.8682 -1.4090 -0.1880
   68SAPC  H19S 5771   4.938   5.017   8.350  0.5124 -0.1647 -0.1345
   68SAPC  C220 5772   4.908   5.223   8.384  0.0565 -0.1901 -0.3546
   68SAPC  H20R 5773   4.982   5.228   8.467  2.1382 -0.0372 -2.1531
   68SAPC  H20S 5774   4.802   5.213   8.414  0.3306 -3.4423 -0.2349
   68SAPC  H20T 5775   4.922   5.319   8.330 -0.7157 -0.1140 -0.4218
   68SAPC   C33 5776   4.708   4.981   6.891 -0.3641  0.5314 -0.6018
   68SAPC   H3X 5777   4.818   4.992   6.877 -0.1665  1.2485  1.2964
   68SAPC   H3Y 5778   4.687   4.882   6.846 -2.4404 -0.9358  3.2985
   68SAPC   C34 5779   4.682   4.982   7.044 -0.1066 -0.6520 -0.0316
   68SAPC   H4X 5780   4.769   4.931   7.091 -0.3702 -0.7405  0.3569
   68SAPC   H4Y 5781   4.582   4.939   7.068  0.4074 -1.4131  0.7696
   68SAPC   C35 5782   4.683   5.121   7.102 -0.1416 -0.1728  0.6273
   68SAPC   H5X 5783   4.598   5.188   7.077 -0.2740 -0.7921 -0.5828
   68SAPC   H5Y 5784   4.781   5.170   7.085 -1.2501  1.2909 -1.7987
   68SAPC   C36 5785   4.659   5.098   7.254  0.1633 -0.0473  0.2270
   68SAPC   H6X 5786   4.732   5.019   7.283  1.9110  1.4301 -0.0682
   68SAPC   H6Y 5787   4.553   5.074   7.278  0.1841  0.1105  0.4802
   68SAPC   C37 5788   4.692   5.222   7.333 -0.2459  0.5882  0.3584
   68SAPC   H7X 5789   4.614   5.301   7.320  0.0980  1.3117  2.5131
   68SAPC   H7Y 5790   4.797   5.257   7.326  0.3597 -0.8909  1.7784
   68SAPC   C38 5791   4.659   5.194   7.477  0.5759  0.3864 -0.9430
   68SAPC   H8X 5792   4.718   5.106   7.510  0.6218  0.7805  0.0427
   68SAPC   H8Y 5793   4.552   5.163   7.485  0.7732  0.0558  0.6840
   68SAPC   C39 5794   4.689   5.307   7.571 -0.2647  0.5366  0.1810
   68SAPC   H9X 5795   4.639   5.395   7.524 -1.2948  0.0633  0.3573
   68SAPC   H9Y 5796   4.799   5.313   7.558 -0.2675 -0.1529 -0.1991
   68SAPC  C310 5797   4.638   5.285   7.712  0.2293 -0.7053 -0.3383
   68SAPC  H10X 5798   4.685   5.199   7.763 -2.0655 -1.4495  0.5677
   68SAPC  H10Y 5799   4.529   5.266   7.716  0.7176 -3.6243  0.1680
   68SAPC  C311 5800   4.681   5.411   7.783 -0.1580 -1.0390  0.1241
   68SAPC  H11X 5801   4.676   5.504   7.721 -1.2708 -1.4246 -0.3795
   68SAPC  H11Y 5802   4.782   5.403   7.826  0.1926 -0.6711 -0.6196
   68SAPC  C312 5803   4.569   5.453   7.891  0.5408 -0.4541 -0.1496
   68SAPC  H12X 5804   4.509   5.371   7.936 -1.1308  0.1405 -1.2713
   68SAPC  H12Y 5805   4.494   5.522   7.848  2.6478  1.5417 -0.6867
   68SAPC  C313 5806   4.633   5.535   7.997  0.5182 -0.1114  0.3133
   68SAPC  H13X 5807   4.544   5.591   8.032 -1.9040 -2.9670 -1.0855
   68SAPC  H13Y 5808   4.693   5.608   7.938  0.7852 -0.9033 -0.4177
   68SAPC  C314 5809   4.714   5.469   8.106 -0.4782 -0.1782  0.0878
   68SAPC  H14X 5810   4.804   5.418   8.066 -0.1239  0.1299  0.4822
   68SAPC  H14Y 5811   4.649   5.394   8.157  0.7130 -1.6453 -0.5228
   68SAPC  C315 5812   4.767   5.576   8.209  0.1287  0.2378  0.0747
   68SAPC  H15X 5813   4.815   5.515   8.287 -0.0202 -0.1854 -0.1619
   68SAPC  H15Y 5814   4.680   5.623   8.260  0.0151 -0.3252  0.3972
   68SAPC  C316 5815   4.865   5.677   8.155 -0.0648 -0.4886  0.0429
   68SAPC  H16X 5816   4.796   5.743   8.098  0.3770 -0.1480 -0.0945
   68SAPC  H16Y 5817   4.930   5.624   8.083  0.0816  0.3813 -0.4698
   68SAPC  C317 5818   4.970   5.741   8.254 -0.1544  0.1781 -0.0337
   68SAPC  H17X 5819   5.039   5.796   8.186 -1.0920 -0.4560 -1.5170
   68SAPC  H17Y 5820   5.023   5.663   8.313 -0.2593  2.4136  3.1408
   68SAPC  C318 5821   4.913   5.839   8.355  0.3913  0.7450 -0.8622
   68SAPC  H18X 5822   4.990   5.899   8.408 -0.4830 -1.6470  3.4086
   68SAPC  H18Y 5823   4.851   5.787   8.432  3.4437 -1.7144  0.0611
   68SAPC  H18Z 5824   4.849   5.918   8.311  0.4756  0.9297 -0.6517
   69SLPC     N 5825   2.254   2.649  11.184 -0.0220 -0.7659  0.1198
   69SLPC   C13 5826   2.271   2.503  11.216  0.3100 -0.2224  0.2797
   69SLPC  H13A 5827   2.215   2.449  11.141 -0.0367  1.0218 -0.3674
   69SLPC  H13B 5828   2.374   2.472  11.211  0.5707  0.5039  1.0158
   69SLPC  H13C 5829   2.233   2.474  11.314 -0.4304 -0.4298 -0.0632
   69SLPC   C14 5830   2.309   2.728  11.298  0.1219 -0.4310 -0.0608
   69SLPC  H14A 5831   2.265   2.825  11.282  0.1495 -0.9499 -3.7060
   69SLPC  H14B 5832   2.270   2.679  11.386 -2.0178  0.1901 -0.6311
   69SLPC  H14C 5833   2.417   2.726  11.295  0.0838  0.2999 -2.4926
   69SLPC   C15 5834   2.110   2.667  11.161  1.0129  0.4497  0.1270
   69SLPC  H15A 5835   2.082   2.610  11.073 -2.1516 -0.1220  1.4492
   69SLPC  H15B 5836   2.059   2.643  11.252  0.9670  1.9972  0.5248
   69SLPC  H15C 5837   2.086   2.770  11.136 -2.9189 -0.6361 -0.8026
   69SLPC   C12 5838   2.330   2.684  11.052 -0.5490  0.5057 -0.0044
   69SLPC  H12A 5839   2.322   2.600  10.985  1.1673 -1.7005  2.4671
   69SLPC  H12B 5840   2.434   2.701  11.076 -0.0551 -1.5714 -0.5698
   69SLPC   C11 5841   2.298   2.808  10.966 -0.4597  0.8433 -0.4161
   69SLPC  H11A 5842   2.203   2.779  10.916 -1.4645  2.3304  0.5579
   69SLPC  H11B 5843   2.376   2.822  10.889  0.1650  2.1322  0.4299
   69SLPC     P 5844   2.181   3.033  11.008 -0.2378 -0.3387 -0.3686
   69SLPC   O13 5845   2.053   2.962  11.008  0.1868  0.1638  0.0372
   69SLPC   O14 5846   2.183   3.146  11.096 -0.0251  0.1962  0.4340
   69SLPC   O12 5847   2.286   2.925  11.052  0.4291 -0.1001  0.4210
   69SLPC   O11 5848   2.213   3.081  10.860 -0.0716 -0.5235 -0.0682
   69SLPC    C1 5849   2.328   3.164  10.861  0.7953  0.5060  0.5599
   69SLPC    HA 5850   2.297   3.255  10.917  1.1583 -0.1406  1.8394
   69SLPC    HB 5851   2.421   3.114  10.897  2.0237  1.1033 -1.7317
   69SLPC    C2 5852   2.371   3.203  10.714  0.3962  0.2683 -0.3170
   69SLPC    HS 5853   2.469   3.254  10.727  1.6728 -2.0363 -0.6021
   69SLPC   O21 5854   2.270   3.278  10.652 -0.0012 -0.7783  0.7616
   69SLPC   C21 5855   2.308   3.389  10.585 -0.6659 -0.1362 -0.3832
   69SLPC   O22 5856   2.423   3.425  10.564  0.4079 -0.1985 -0.2426
   69SLPC   C22 5857   2.180   3.471  10.554  0.7304 -0.2066  0.0116
   69SLPC   H2R 5858   2.096   3.405  10.525 -0.7043  1.0085  1.3501
   69SLPC   H2S 5859   2.144   3.512  10.650  1.0210 -1.4366  0.6614
   69SLPC    C3 5860   2.404   3.078  10.621  0.1108  0.1146  0.0981
   69SLPC    HX 5861   2.310   3.019  10.626  0.1443 -0.2424 -2.9301
   69SLPC    HY 5862   2.486   3.017  10.665 -1.5656 -1.2579  1.4071
   69SLPC   O31 5863   2.426   3.109  10.481 -0.0063 -0.4189  0.0303
   69SLPC   C31 5864   2.538   3.056  10.428 -0.2600 -0.5008 -0.0967
   69SLPC   O32 5865   2.598   2.964  10.469 -0.2675 -0.1121 -0.3116
   69SLPC   C32 5866   2.586   3.132  10.306 -0.2646  0.4067  0.0085
   69SLPC   H2X 5867   2.672   3.189  10.346  0.2094 -0.9802  0.9873
   69SLPC   H2Y 5868   2.509   3.198  10.259 -1.0331 -1.1974 -1.0298
   69SLPC   C23 5869   2.201   3.591  10.450  0.0528  0.8163  0.3827
   69SLPC   H3R 5870   2.278   3.670  10.468  1.5409 -0.6424  0.4983
   69SLPC   H3S 5871   2.103   3.643  10.451 -0.1517  0.4301  0.5132
   69SLPC   C24 5872   2.218   3.526  10.313  0.0214  0.9993 -1.0237
   69SLPC   H4R 5873   2.158   3.433  10.307  0.0762  0.9399 -0.6127
   69SLPC   H4S 5874   2.327   3.508  10.317 -0.0421  0.8446 -0.0647
   69SLPC   C25 5875   2.189   3.617  10.195 -0.4543  0.1812  0.7738
   69SLPC   H5R 5876   2.223   3.716  10.235  2.6809 -0.3398 -0.4421
   69SLPC   H5S 5877   2.080   3.626  10.179 -0.2388  2.6552  0.5290
   69SLPC   C26 5878   2.261   3.584  10.062  1.1475  0.1899 -0.3153
   69SLPC   H6R 5879   2.210   3.492  10.027  0.7587  0.8049 -1.3742
   69SLPC   H6S 5880   2.365   3.558  10.089  1.0212  1.3248  1.3511
   69SLPC   C27 5881   2.246   3.693   9.954 -0.4837  0.3658 -0.1486
   69SLPC   H7R 5882   2.306   3.682   9.861 -2.7811  0.0396 -1.6379
   69SLPC   H7S 5883   2.285   3.785  10.002  0.1995 -0.5440  1.0739
   69SLPC   C28 5884   2.110   3.734   9.906  0.3294 -1.0705 -0.2920
   69SLPC   H8R 5885   2.045   3.783   9.982 -0.4004 -0.2698 -1.4169
   69SLPC   H8S 5886   2.059   3.643   9.868 -0.1658  0.1709 -2.7615
   69SLPC   C29 5887   2.132   3.833   9.791  1.0400  0.1720 -0.1752
   69SLPC   H9R 5888   2.120   3.940   9.815 -0.8909 -0.5399  2.3012
   69SLPC  C210 5889   2.150   3.804   9.663 -0.1695  0.0507  0.4914
   69SLPC  H10R 5890   2.180   3.887   9.597  0.5964 -2.0883 -1.9422
   69SLPC  C211 5891   2.148   3.661   9.613 -0.6858 -0.0888 -0.2028
   69SLPC  H11R 5892   2.075   3.646   9.531 -0.6003  1.2734 -0.5530
   69SLPC  H11S 5893   2.132   3.590   9.696 -3.0034  0.3912 -0.2113
   69SLPC  C212 5894   2.288   3.635   9.559  0.4022  0.1556 -0.5538
   69SLPC  H12R 5895   2.357   3.579   9.623  1.5820 -2.6323 -4.1193
   69SLPC  C213 5896   2.322   3.664   9.435 -0.4000 -0.0944 -0.1565
   69SLPC  H13R 5897   2.428   3.668   9.408 -0.4091  0.2088 -0.1544
   69SLPC  C214 5898   2.238   3.736   9.333  0.7497 -0.0866 -0.8390
   69SLPC  H14R 5899   2.305   3.804   9.276 -0.3273  0.8663 -0.9887
   69SLPC  H14S 5900   2.161   3.799   9.383  1.7130  1.2856 -1.0401
   69SLPC  C215 5901   2.185   3.633   9.237 -0.4056  0.1589  0.7168
   69SLPC  H15R 5902   2.148   3.688   9.147 -1.6605 -0.0232  1.1206
   69SLPC  H15S 5903   2.110   3.570   9.287 -0.7339 -0.7274 -0.8460
   69SLPC  C216 5904   2.291   3.534   9.172  0.3794  0.2599 -0.1292
   69SLPC  H16R 5905   2.320   3.462   9.253  1.0090 -2.1088 -2.3997
   69SLPC  H16S 5906   2.387   3.582   9.144 -0.1765 -0.0654 -2.6399
   69SLPC  C217 5907   2.222   3.469   9.049 -0.0525  0.4556 -1.5091
   69SLPC  H17R 5908   2.186   3.537   8.970 -0.0291  0.7532 -1.2645
   69SLPC  H17S 5909   2.135   3.411   9.090  1.5347  1.7432  4.2000
   69SLPC  C218 5910   2.321   3.364   8.994  0.1883  0.0431 -0.3713
   69SLPC  H18R 5911   2.339   3.277   9.060  1.0638  1.0926  0.8049
   69SLPC  H18S 5912   2.413   3.415   8.958 -1.5257  2.2472 -1.8564
   69SLPC  H18T 5913   2.266   3.323   8.906 -0.9163  1.4427 -0.3564
   69SLPC   C33 5914   2.637   3.029  10.198 -0.4031 -0.3156 -0.6973
   69SLPC   H3X 5915   2.561   2.957  10.160 -1.9419  0.3507  1.0505
   69SLPC   H3Y 5916   2.722   2.972  10.242 -0.4953  2.0355  2.7858
   69SLPC   C34 5917   2.710   3.111  10.088 -0.0461 -0.0930  0.3176
   69SLPC   H4X 5918   2.680   3.218  10.084 -2.4336 -0.7899 -2.5626
   69SLPC   H4Y 5919   2.675   3.067   9.992 -1.8602 -3.6003  2.4633
   69SLPC   C35 5920   2.865   3.108  10.087  0.5701  0.9647  0.0500
   69SLPC   H5X 5921   2.899   3.004  10.102  2.1797  0.9109 -3.4170
   69SLPC   H5Y 5922   2.902   3.169  10.172  1.0594 -1.5533  1.6915
   69SLPC   C36 5923   2.922   3.157   9.954 -0.0764  0.1646 -1.1459
   69SLPC   H6X 5924   2.903   3.080   9.876 -0.7155 -0.5750 -0.2712
   69SLPC   H6Y 5925   3.031   3.165   9.973 -0.0506 -2.0716 -0.2227
   69SLPC   C37 5926   2.854   3.292   9.911 -0.3541 -0.1063  0.2261
   69SLPC   H7X 5927   2.842   3.363   9.995  0.6562 -0.7791  0.9432
   69SLPC   H7Y 5928   2.755   3.266   9.867 -0.5291  0.1114  0.4924
   69SLPC   C38 5929   2.935   3.343   9.791  0.2789 -0.0650  0.3069
   69SLPC   H8X 5930   2.876   3.395   9.713 -0.0061  0.0905  0.6260
   69SLPC   H8Y 5931   2.984   3.256   9.742 -0.7525 -0.7596  0.4972
   69SLPC   C39 5932   3.038   3.439   9.849 -0.6027 -0.6335 -0.4879
   69SLPC   H9X 5933   3.069   3.412   9.952 -2.3418 -2.2428 -0.3510
   69SLPC   H9Y 5934   2.985   3.534   9.869 -1.3857 -1.4392  1.3928
   69SLPC  C310 5935   3.159   3.461   9.758  0.2231  0.1354  0.3383
   69SLPC  H10X 5936   3.222   3.369   9.749 -1.1360 -0.7227 -0.7150
   69SLPC  H10Y 5937   3.222   3.543   9.797  1.5085 -1.3312  1.4087
   69SLPC  C311 5938   3.104   3.520   9.621  0.1723  1.0353 -0.4666
   69SLPC  H11X 5939   3.074   3.626   9.634 -1.7223  0.4447  0.0674
   69SLPC  H11Y 5940   3.012   3.477   9.576 -0.9890  2.7217  0.2500
   69SLPC  C312 5941   3.216   3.512   9.513  0.4405  0.3459 -0.3549
   69SLPC  H12X 5942   3.235   3.402   9.511  0.6443  0.3692  0.1958
   69SLPC  H12Y 5943   3.313   3.558   9.542 -0.2099  1.4482  0.0933
   69SLPC  C313 5944   3.172   3.577   9.378  0.2161 -0.5759 -0.1005
   69SLPC  H13X 5945   3.133   3.681   9.383 -0.6090 -0.8265 -1.3532
   69SLPC  H13Y 5946   3.089   3.518   9.334  2.1907 -3.6170  0.0743
   69SLPC  C314 5947   3.304   3.565   9.283 -0.2945  0.1198  0.0820
   69SLPC  H14X 5948   3.343   3.462   9.292  0.1367  0.1932 -0.8530
   69SLPC  H14Y 5949   3.370   3.642   9.329  0.0236  0.5955 -1.1645
   69SLPC  C315 5950   3.282   3.615   9.138  0.5405 -0.3885  0.5557
   69SLPC  H15X 5951   3.279   3.726   9.132  0.3356 -0.5328 -2.4286
   69SLPC  H15Y 5952   3.182   3.576   9.112  0.6849  0.2935 -1.0944
   69SLPC  C316 5953   3.388   3.560   9.048 -0.5982  0.2723  0.6056
   69SLPC  H16X 5954   3.369   3.451   9.039 -0.6221  0.4959 -2.7416
   69SLPC  H16Y 5955   3.488   3.585   9.089 -1.1731  1.8164  1.1118
   69SLPC  C317 5956   3.379   3.611   8.907  0.1508 -0.0670 -0.3962
   69SLPC  H17X 5957   3.345   3.717   8.910 -0.0164 -0.1205 -0.4216
   69SLPC  H17Y 5958   3.297   3.550   8.864  0.1227 -1.5738  1.6884
   69SLPC  C318 5959   3.507   3.601   8.830 -0.2559  0.6190 -0.4008
   69SLPC  H18X 5960   3.535   3.494   8.822  0.3021  0.5772  1.9090
   69SLPC  H18Y 5961   3.591   3.658   8.874  0.9986  0.3599 -2.3951
   69SLPC  H18Z 5962   3.502   3.640   8.726  1.0809  1.6420 -0.0848
   70SLPC     N 5963   3.428   0.114  11.055 -0.3651  0.3813  0.3254
   70SLPC   C13 5964   3.322   0.153  11.155 -0.2150  0.7633 -0.0509
   70SLPC  H13A 5965   3.293   0.256  11.144 -1.2595  0.2796 -1.8363
   70SLPC  H13B 5966   3.232   0.100  11.130  0.7055 -0.7815 -0.1982
   70SLPC  H13C 5967   3.347   0.130  11.258  0.3569 -0.9964 -0.5591
   70SLPC   C14 5968   3.477  -0.029  11.087  0.0370 -0.2369  0.2637
   70SLPC  H14A 5969   3.493  -0.042  11.193 -1.2672 -1.4487  0.3197
   70SLPC  H14B 5970   3.406  -0.104  11.058 -0.7763 -0.0932  1.8505
   70SLPC  H14C 5971   3.569  -0.042  11.032 -0.0409 -2.0733  0.5672
   70SLPC   C15 5972   3.550   0.201  11.068  0.0834 -0.4305  0.2076
   70SLPC  H15A 5973   3.631   0.154  11.014 -0.2837 -1.1933  0.3057
   70SLPC  H15B 5974   3.531   0.293  11.015  0.8981  0.0121  0.6868
   70SLPC  H15C 5975   3.581   0.206  11.171  1.6674 -0.8762 -0.2419
   70SLPC   C12 5976   3.365   0.130  10.915  0.5500  0.6545  0.4232
   70SLPC  H12A 5977   3.312   0.037  10.902  1.3588 -0.2248  3.1254
   70SLPC  H12B 5978   3.444   0.122  10.842 -0.0698 -0.8540 -0.0962
   70SLPC   C11 5979   3.283   0.255  10.885 -0.2835 -0.0998 -0.6051
   70SLPC  H11A 5980   3.178   0.250  10.921 -0.7453 -0.2109 -1.9520
   70SLPC  H11B 5981   3.273   0.249  10.775 -3.4373  0.8295 -0.4055
   70SLPC     P 5982   3.276   0.513  10.947  0.2382  0.3668  0.0596
   70SLPC   O13 5983   3.175   0.516  11.058  1.0158  0.2569 -0.0018
   70SLPC   O14 5984   3.382   0.613  10.950 -0.7591 -0.1479  0.2397
   70SLPC   O12 5985   3.340   0.375  10.935  0.0994  0.4067  0.0247
   70SLPC   O11 5986   3.195   0.534  10.816 -0.1286  0.4658 -0.2643
   70SLPC    C1 5987   3.250   0.562  10.688 -0.0523  0.3289 -0.0034
   70SLPC    HA 5988   3.320   0.648  10.685  1.9321 -1.1917  1.3124
   70SLPC    HB 5989   3.305   0.469  10.661 -0.5273  0.1057 -0.1982
   70SLPC    C2 5990   3.135   0.570  10.580 -0.0295  0.3602  0.0805
   70SLPC    HS 5991   3.122   0.468  10.539  0.1021  1.0712 -1.7664
   70SLPC   O21 5992   3.168   0.669  10.480  0.1014  0.3603  0.3023
   70SLPC   C21 5993   3.250   0.624  10.388  0.1735  0.1571 -0.7211
   70SLPC   O22 5994   3.269   0.507  10.362  0.2805 -0.5467 -0.3730
   70SLPC   C22 5995   3.314   0.739  10.301 -0.2332 -0.7160 -0.7213
   70SLPC   H2R 5996   3.242   0.823  10.293 -0.5930 -0.6392  2.5652
   70SLPC   H2S 5997   3.407   0.763  10.356  0.0162 -1.3621 -0.8592
   70SLPC    C3 5998   2.993   0.606  10.639 -0.3858  0.2743  0.1368
   70SLPC    HX 5999   2.993   0.688  10.714  0.3048  2.2202 -1.9528
   70SLPC    HY 6000   2.956   0.509  10.680 -0.5458 -0.3367 -1.4277
   70SLPC   O31 6001   2.905   0.630  10.527  0.4785 -0.0332 -0.1849
   70SLPC   C31 6002   2.887   0.755  10.502 -0.0205 -0.0234 -0.3840
   70SLPC   O32 6003   2.908   0.849  10.577 -0.1869  0.0751 -0.0578
   70SLPC   C32 6004   2.814   0.757  10.361 -0.2694 -0.8451  0.0476
   70SLPC   H2X 6005   2.791   0.865  10.345 -0.8268 -0.3466  3.7957
   70SLPC   H2Y 6006   2.719   0.700  10.370 -0.5770 -0.2920  0.2909
   70SLPC   C23 6007   3.364   0.694  10.163 -0.0114  0.7680 -0.1665
   70SLPC   H3R 6008   3.447   0.622  10.176  0.3221  1.2699  0.4903
   70SLPC   H3S 6009   3.411   0.785  10.121 -0.9950  1.3354 -0.0448
   70SLPC   C24 6010   3.251   0.651  10.068  0.7238 -0.1942 -0.2774
   70SLPC   H4R 6011   3.168   0.723  10.086  1.2032  0.4524 -0.6416
   70SLPC   H4S 6012   3.207   0.550  10.081  0.3995 -0.2072 -1.3868
   70SLPC   C25 6013   3.297   0.642   9.918 -1.2001 -1.0290  0.5976
   70SLPC   H5R 6014   3.384   0.575   9.936  0.3489  0.8907  0.3276
   70SLPC   H5S 6015   3.345   0.736   9.886 -2.2754 -0.4018  0.7867
   70SLPC   C26 6016   3.201   0.580   9.814 -0.3805 -0.5111 -0.1025
   70SLPC   H6R 6017   3.124   0.655   9.783 -1.5193 -0.5732  2.4345
   70SLPC   H6S 6018   3.135   0.507   9.867 -0.9471  0.3198  0.3503
   70SLPC   C27 6019   3.255   0.519   9.689  0.0273  0.3889  0.6650
   70SLPC   H7R 6020   3.176   0.485   9.619  1.1811  0.1404 -0.5406
   70SLPC   H7S 6021   3.330   0.438   9.707 -1.4950 -1.2032  0.0174
   70SLPC   C28 6022   3.329   0.612   9.590  0.4686 -0.6968 -0.5846
   70SLPC   H8R 6023   3.371   0.547   9.510 -0.3766 -0.2460 -1.4064
   70SLPC   H8S 6024   3.418   0.647   9.647 -0.5837 -2.4080  2.1873
   70SLPC   C29 6025   3.254   0.729   9.530 -0.1681  0.3620  0.6957
   70SLPC   H9R 6026   3.206   0.793   9.605 -0.4599  0.7074  0.2106
   70SLPC  C210 6027   3.216   0.753   9.403  0.2020 -0.0518  0.1289
   70SLPC  H10R 6028   3.164   0.849   9.387  0.5490  0.0565 -0.3736
   70SLPC  C211 6029   3.242   0.671   9.281  0.3164  0.5667  0.2513
   70SLPC  H11R 6030   3.279   0.568   9.299 -1.5237 -0.4482 -1.5115
   70SLPC  H11S 6031   3.323   0.718   9.221  1.5879 -1.1871  0.5695
   70SLPC  C212 6032   3.114   0.655   9.194  0.6214  0.0609  0.1626
   70SLPC  H12R 6033   3.028   0.632   9.258  1.5233 -0.6948  1.1368
   70SLPC  C213 6034   3.103   0.655   9.061 -0.3910 -0.1703  0.2008
   70SLPC  H13R 6035   3.004   0.656   9.013 -1.3078  0.8040  2.0849
   70SLPC  C214 6036   3.209   0.683   8.960  0.0567 -0.4141  0.1989
   70SLPC  H14R 6037   3.309   0.697   9.007 -1.2021  2.1795  2.2574
   70SLPC  H14S 6038   3.183   0.774   8.901 -0.9829  0.9952  2.7394
   70SLPC  C215 6039   3.222   0.549   8.871 -0.6856  0.3003  0.0122
   70SLPC  H15R 6040   3.126   0.501   8.842 -0.1924 -2.9923  3.4959
   70SLPC  H15S 6041   3.274   0.473   8.933  0.2208 -0.3084 -1.4753
   70SLPC  C216 6042   3.287   0.563   8.732 -0.0570 -0.2486 -0.2470
   70SLPC  H16R 6043   3.317   0.459   8.704 -3.3835 -2.0435  2.4051
   70SLPC  H16S 6044   3.375   0.625   8.755  0.8537 -1.3147 -0.8090
   70SLPC  C217 6045   3.187   0.618   8.627  0.2897  0.1830 -0.6035
   70SLPC  H17R 6046   3.137   0.710   8.664 -0.6062  0.2342 -1.9022
   70SLPC  H17S 6047   3.094   0.557   8.624 -1.0821  2.1761  0.0776
   70SLPC  C218 6048   3.238   0.649   8.489 -0.1936  0.2406 -0.1978
   70SLPC  H18R 6049   3.164   0.672   8.408 -0.8957 -0.2180  0.3128
   70SLPC  H18S 6050   3.286   0.554   8.460 -2.0718 -1.5278  2.2680
   70SLPC  H18T 6051   3.319   0.725   8.492 -2.3468  2.5403  2.5461
   70SLPC   C33 6052   2.900   0.721  10.237  0.2785  0.2479  1.0074
   70SLPC   H3X 6053   2.948   0.621  10.250 -1.0623 -0.6116 -0.3762
   70SLPC   H3Y 6054   2.980   0.798  10.230  1.0121 -0.6676 -1.3289
   70SLPC   C34 6055   2.809   0.719  10.106 -0.1522 -0.2950 -0.1974
   70SLPC   H4X 6056   2.786   0.824  10.078 -3.0867 -1.0926 -0.8962
   70SLPC   H4Y 6057   2.718   0.661  10.131 -1.0426  0.6508 -1.1918
   70SLPC   C35 6058   2.878   0.650   9.995 -0.5289  0.2270  0.4401
   70SLPC   H5X 6059   2.945   0.569  10.032  2.3992  2.0068 -0.7171
   70SLPC   H5Y 6060   2.938   0.729   9.944  1.1516 -1.5717 -0.4781
   70SLPC   C36 6061   2.771   0.609   9.893 -0.1194  0.7495  0.3877
   70SLPC   H6X 6062   2.692   0.688   9.894  0.4626  1.3297  2.1550
   70SLPC   H6Y 6063   2.725   0.517   9.934  1.1046 -1.7269 -3.5437
   70SLPC   C37 6064   2.810   0.575   9.745 -0.5167 -0.2091 -0.1100
   70SLPC   H7X 6065   2.722   0.519   9.707 -2.1892  2.8781 -0.9202
   70SLPC   H7Y 6066   2.897   0.506   9.749 -1.1089 -0.9343  0.3486
   70SLPC   C38 6067   2.823   0.685   9.642 -0.6442 -0.3562  0.4313
   70SLPC   H8X 6068   2.884   0.763   9.693  0.3532 -0.6642 -0.2768
   70SLPC   H8Y 6069   2.720   0.717   9.614 -0.2271  0.3513 -0.3028
   70SLPC   C39 6070   2.896   0.643   9.513 -0.5277  0.2633 -0.4621
   70SLPC   H9X 6071   2.998   0.621   9.551  0.4869  0.9870 -2.6929
   70SLPC   H9Y 6072   2.910   0.730   9.445 -0.2093  0.2237 -0.4435
   70SLPC  C310 6073   2.838   0.531   9.426 -0.1817 -0.3901  0.1385
   70SLPC  H10X 6074   2.809   0.443   9.487 -0.8926  0.0198  0.3905
   70SLPC  H10Y 6075   2.915   0.492   9.356 -1.0906 -2.3364  0.1874
   70SLPC  C311 6076   2.710   0.574   9.346  0.4381 -0.1002  0.8018
   70SLPC  H11X 6077   2.726   0.581   9.236  0.1942  1.8957  0.8799
   70SLPC  H11Y 6078   2.664   0.666   9.389  0.1416  0.8797 -1.5365
   70SLPC  C312 6079   2.603   0.464   9.365 -0.8995  0.1239 -0.3362
   70SLPC  H12X 6080   2.575   0.464   9.473  0.4559  1.5295  0.0231
   70SLPC  H12Y 6081   2.645   0.363   9.349  0.9265  0.4113  2.3421
   70SLPC  C313 6082   2.471   0.493   9.282 -0.8298  0.2196 -0.2478
   70SLPC  H13X 6083   2.448   0.601   9.295 -0.7828  0.2074 -0.0592
   70SLPC  H13Y 6084   2.384   0.437   9.324 -0.2108  0.7463  1.7910
   70SLPC  C314 6085   2.485   0.454   9.136 -0.0163 -1.2366 -0.0291
   70SLPC  H14X 6086   2.495   0.345   9.119 -0.9404 -1.2430 -0.5899
   70SLPC  H14Y 6087   2.572   0.508   9.094  0.3386 -1.2227  0.7254
   70SLPC  C315 6088   2.367   0.505   9.044  0.5678  0.0218 -0.1296
   70SLPC  H15X 6089   2.395   0.477   8.940 -0.3212  2.6431 -1.1126
   70SLPC  H15Y 6090   2.366   0.616   9.039 -0.3084  0.0033 -0.3251
   70SLPC  C316 6091   2.238   0.420   9.065  0.5714 -0.5628  0.0212
   70SLPC  H16X 6092   2.179   0.440   8.973 -0.6116 -0.9567  0.6727
   70SLPC  H16Y 6093   2.178   0.470   9.144  1.5128 -2.5173  2.0165
   70SLPC  C317 6094   2.250   0.275   9.103 -0.1756 -0.6388 -0.6731
   70SLPC  H17X 6095   2.275   0.250   9.208  3.5167  1.4758 -0.9615
   70SLPC  H17Y 6096   2.333   0.234   9.041  0.5846  0.5281 -0.4431
   70SLPC  C318 6097   2.120   0.196   9.066 -0.4815  0.4200  0.1319
   70SLPC  H18X 6098   2.137   0.092   9.102 -1.7252  0.1102 -0.1596
   70SLPC  H18Y 6099   2.102   0.196   8.957 -1.8739  0.3599  0.3495
   70SLPC  H18Z 6100   2.025   0.229   9.113 -1.5201 -0.4560 -1.3085
   71SLPC     N 6101   2.030   5.307  11.030  0.0358  0.3836 -0.6294
   71SLPC   C13 6102   1.938   5.427  11.022  0.4311  0.0914 -0.6713
   71SLPC  H13A 6103   1.986   5.509  11.073  2.2294 -0.4549 -1.4744
   71SLPC  H13B 6104   1.915   5.460  10.922 -0.0983 -2.4528 -1.4242
   71SLPC  H13C 6105   1.842   5.415  11.071 -0.1109  0.0838 -1.7149
   71SLPC   C14 6106   1.957   5.193  10.958 -0.1564  0.1134  0.0968
   71SLPC  H14A 6107   1.857   5.185  10.997 -0.9041  1.1496 -1.5784
   71SLPC  H14B 6108   1.931   5.218  10.856 -3.8478 -2.1721  0.4066
   71SLPC  H14C 6109   2.018   5.104  10.952 -1.2263 -0.5591 -0.8872
   71SLPC   C15 6110   2.053   5.267  11.175 -0.5730  0.6039  0.0363
   71SLPC  H15A 6111   2.053   5.350  11.244 -1.6525  0.1840  0.5560
   71SLPC  H15B 6112   1.977   5.197  11.204  0.6628 -1.2605 -1.0930
   71SLPC  H15C 6113   2.149   5.218  11.183  0.8258  2.5582 -3.5003
   71SLPC   C12 6114   2.159   5.335  10.959 -0.3752 -1.2100 -0.2079
   71SLPC  H12A 6115   2.213   5.242  10.968  0.6466 -0.4790  1.4190
   71SLPC  H12B 6116   2.201   5.414  11.020 -2.0085 -0.1907 -0.3581
   71SLPC   C11 6117   2.149   5.392  10.813 -0.6757 -0.1916 -0.0514
   71SLPC  H11A 6118   2.109   5.495  10.807  1.9417  0.7729 -2.0127
   71SLPC  H11B 6119   2.072   5.332  10.760  0.4092 -0.7753 -0.9818
   71SLPC     P 6120   2.328   5.294  10.644  0.4332  0.0795 -0.1708
   71SLPC   O13 6121   2.468   5.327  10.606 -0.3577  0.6415 -0.0286
   71SLPC   O14 6122   2.297   5.155  10.685 -0.9684 -0.2063  0.5892
   71SLPC   O12 6123   2.283   5.392  10.761 -0.0368  0.1319 -0.3671
   71SLPC   O11 6124   2.234   5.330  10.525  0.0512  0.0332 -0.2237
   71SLPC    C1 6125   2.177   5.455  10.494 -0.1794 -0.0910 -0.4515
   71SLPC    HA 6126   2.067   5.442  10.492 -0.1092 -0.9336  1.0205
   71SLPC    HB 6127   2.197   5.527  10.575 -3.8476 -0.1906  0.6349
   71SLPC    C2 6128   2.225   5.524  10.360 -0.2486  0.3346 -0.2977
   71SLPC    HS 6129   2.173   5.622  10.370  0.0809  0.4306  0.4878
   71SLPC   O21 6130   2.188   5.445  10.241  0.0453 -0.2789 -0.0887
   71SLPC   C21 6131   2.061   5.449  10.224 -0.2998  0.3194  0.3856
   71SLPC   O22 6132   1.978   5.519  10.286  0.1533 -0.0008 -0.8078
   71SLPC   C22 6133   2.020   5.355  10.104 -0.4518 -0.5192 -0.2919
   71SLPC   H2R 6134   2.114   5.305  10.074  0.0654  0.4830 -0.3610
   71SLPC   H2S 6135   1.949   5.288  10.158  0.9093 -1.5264  0.2794
   71SLPC    C3 6136   2.374   5.560  10.366  0.4845 -0.0500  0.6483
   71SLPC    HX 6137   2.430   5.472  10.328 -2.7548 -1.6297 -0.6773
   71SLPC    HY 6138   2.389   5.565  10.476  0.0309 -0.5982  0.7364
   71SLPC   O31 6139   2.402   5.689  10.306 -0.1380 -0.4825 -0.1076
   71SLPC   C31 6140   2.434   5.689  10.177 -0.1841 -0.1282  0.8248
   71SLPC   O32 6141   2.473   5.587  10.119 -0.7727  0.1502 -0.1142
   71SLPC   C32 6142   2.394   5.828  10.115 -0.5359 -0.2757  0.1780
   71SLPC   H2X 6143   2.473   5.900  10.148 -1.6676  0.3930  1.4738
   71SLPC   H2Y 6144   2.294   5.850  10.157 -1.3652 -2.5058 -0.5732
   71SLPC   C23 6145   1.956   5.422   9.974  0.5613 -0.3661  0.3897
   71SLPC   H3R 6146   1.862   5.479   9.989 -0.5936 -1.0193 -3.7944
   71SLPC   H3S 6147   1.917   5.335   9.918 -0.1640  1.3511 -1.8557
   71SLPC   C24 6148   2.066   5.497   9.899  0.8706 -0.3406 -0.0496
   71SLPC   H4R 6149   2.166   5.451   9.915 -0.2642 -3.0458 -0.4402
   71SLPC   H4S 6150   2.069   5.601   9.937  0.6777 -0.2926 -0.1684
   71SLPC   C25 6151   2.030   5.491   9.747  0.0680 -0.5321  0.0811
   71SLPC   H5R 6152   1.925   5.527   9.736  0.9995  1.9790 -0.9175
   71SLPC   H5S 6153   2.028   5.388   9.705 -2.9709  0.4816 -2.4738
   71SLPC   C26 6154   2.116   5.581   9.644  0.2978  0.4293 -0.2476
   71SLPC   H6R 6155   2.221   5.559   9.675 -0.3124 -1.5124  0.4991
   71SLPC   H6S 6156   2.076   5.683   9.666  0.5119  0.8086 -1.5845
   71SLPC   C27 6157   2.076   5.550   9.500 -0.8360  0.0623  0.1017
   71SLPC   H7R 6158   1.965   5.558   9.495 -0.9377 -0.6305  1.1614
   71SLPC   H7S 6159   2.111   5.455   9.456  2.2247  0.2672  1.9909
   71SLPC   C28 6160   2.114   5.675   9.408 -0.3867 -0.0359  0.2170
   71SLPC   H8R 6161   2.055   5.761   9.447 -0.3671  0.2961 -0.4943
   71SLPC   H8S 6162   2.070   5.647   9.310 -0.9036  0.1495  0.3943
   71SLPC   C29 6163   2.266   5.713   9.415 -0.1926  0.3848 -0.1907
   71SLPC   H9R 6164   2.317   5.724   9.512  0.2184  2.6453 -0.6319
   71SLPC  C210 6165   2.350   5.711   9.314 -0.3357 -0.3969  0.1825
   71SLPC  H10R 6166   2.457   5.724   9.335 -0.4991  0.5781  0.4355
   71SLPC  C211 6167   2.318   5.677   9.168  0.0907 -0.4156 -0.2251
   71SLPC  H11R 6168   2.224   5.621   9.149 -0.9553  1.5996 -1.2021
   71SLPC  H11S 6169   2.399   5.610   9.133 -0.6066 -2.3091  1.6771
   71SLPC  C212 6170   2.321   5.792   9.072 -0.3018 -0.1309  0.4520
   71SLPC  H12R 6171   2.334   5.887   9.127 -1.7634  0.3486 -0.0143
   71SLPC  C213 6172   2.315   5.789   8.930 -0.1924 -0.6993  0.0481
   71SLPC  H13R 6173   2.314   5.884   8.875  1.8897  0.0694  1.2603
   71SLPC  C214 6174   2.306   5.667   8.841  0.0982 -0.5927 -0.0671
   71SLPC  H14R 6175   2.245   5.589   8.891 -0.5491 -0.4683 -0.6542
   71SLPC  H14S 6176   2.402   5.614   8.828  0.2708 -0.5170  0.8869
   71SLPC  C215 6177   2.243   5.694   8.703  0.0750 -0.3133 -0.9099
   71SLPC  H15R 6178   2.261   5.596   8.654 -0.1969 -0.1399 -1.3554
   71SLPC  H15S 6179   2.304   5.772   8.654 -0.7173 -0.2038 -1.7388
   71SLPC  C216 6180   2.090   5.739   8.708 -0.3301 -0.1170 -0.4720
   71SLPC  H16R 6181   2.090   5.839   8.757 -0.7112 -0.1580 -0.3920
   71SLPC  H16S 6182   2.037   5.661   8.767  0.1077  0.1501  0.2855
   71SLPC  C217 6183   2.028   5.733   8.574 -0.5032 -0.4024  0.2020
   71SLPC  H17R 6184   2.053   5.631   8.539 -3.1635 -1.0967  0.2452
   71SLPC  H17S 6185   2.077   5.805   8.504 -2.0430  0.2577 -0.2164
   71SLPC  C218 6186   1.881   5.783   8.582 -0.3194 -0.3008 -0.1066
   71SLPC  H18R 6187   1.871   5.885   8.626  0.5329 -0.6988  1.0298
   71SLPC  H18S 6188   1.812   5.722   8.643 -0.3253  0.6459  0.8540
   71SLPC  H18T 6189   1.846   5.792   8.477  1.5367  1.5011 -0.6144
   71SLPC   C33 6190   2.380   5.843   9.966 -0.2784  0.6360  0.0283
   71SLPC   H3X 6191   2.347   5.948   9.948 -2.0641 -0.1787 -1.5997
   71SLPC   H3Y 6192   2.301   5.778   9.924 -2.2850  0.2007  4.2951
   71SLPC   C34 6193   2.515   5.835   9.890  0.3037  0.2855  0.1741
   71SLPC   H4X 6194   2.547   5.730   9.907 -2.4794 -0.7411 -0.6388
   71SLPC   H4Y 6195   2.589   5.895   9.946 -1.2210 -0.9959  3.6928
   71SLPC   C35 6196   2.494   5.876   9.749 -0.0771  0.4526  0.8437
   71SLPC   H5X 6197   2.464   5.983   9.745  0.9396  0.6627 -2.6701
   71SLPC   H5Y 6198   2.409   5.819   9.705  0.1149  1.1579 -0.4815
   71SLPC   C36 6199   2.612   5.847   9.661 -0.7740 -0.4924 -0.2311
   71SLPC   H6X 6200   2.628   5.737   9.655  0.1026 -0.3309 -1.0589
   71SLPC   H6Y 6201   2.707   5.887   9.702  0.0688 -1.2208 -1.4112
   71SLPC   C37 6202   2.603   5.901   9.516  0.0950  0.4386 -0.2275
   71SLPC   H7X 6203   2.615   6.011   9.520 -0.0642  0.4561 -0.1966
   71SLPC   H7Y 6204   2.500   5.886   9.475 -0.3309 -0.0823  1.0045
   71SLPC   C38 6205   2.712   5.854   9.419  0.5443  0.0887 -0.7120
   71SLPC   H8X 6206   2.691   5.746   9.412 -0.8640  0.1818  1.4187
   71SLPC   H8Y 6207   2.812   5.861   9.466 -2.5296 -0.0284  6.5207
   71SLPC   C39 6208   2.708   5.909   9.274 -0.3291  0.1063 -0.6052
   71SLPC   H9X 6209   2.791   5.983   9.272 -0.4070  0.2856  1.4064
   71SLPC   H9Y 6210   2.610   5.960   9.269  0.5549  2.1234  1.3717
   71SLPC  C310 6211   2.748   5.812   9.169 -0.3628  0.5364  0.2705
   71SLPC  H10X 6212   2.692   5.716   9.174 -0.7891  0.6969 -1.3825
   71SLPC  H10Y 6213   2.857   5.795   9.181 -0.0271  2.5651  0.2891
   71SLPC  C311 6214   2.713   5.867   9.026 -0.5771  0.1510 -1.0156
   71SLPC  H11X 6215   2.777   5.950   8.989  0.8794 -0.7309 -0.5244
   71SLPC  H11Y 6216   2.611   5.909   9.026 -0.9827 -0.6014  3.4249
   71SLPC  C312 6217   2.740   5.753   8.924 -0.2173  0.7255 -0.5516
   71SLPC  H12X 6218   2.684   5.666   8.965 -0.5867  1.5290  0.6885
   71SLPC  H12Y 6219   2.843   5.718   8.906 -0.6600 -0.2734 -1.1831
   71SLPC  C313 6220   2.685   5.789   8.775 -0.1538 -0.4534  0.2730
   71SLPC  H13X 6221   2.711   5.885   8.727 -2.0048  0.1841  0.5062
   71SLPC  H13Y 6222   2.575   5.806   8.783 -0.2975 -1.3289  0.1810
   71SLPC  C314 6223   2.723   5.690   8.663  0.3035  0.3256 -0.3022
   71SLPC  H14X 6224   2.669   5.595   8.679  0.4456  0.4872  1.1676
   71SLPC  H14Y 6225   2.830   5.659   8.661  0.4374  0.8046 -3.3009
   71SLPC  C315 6226   2.677   5.738   8.524  0.3320 -0.0066 -0.2276
   71SLPC  H15X 6227   2.710   5.844   8.516 -0.2446  0.5286  3.3693
   71SLPC  H15Y 6228   2.567   5.731   8.508  0.4076 -0.3661 -0.5934
   71SLPC  C316 6229   2.749   5.653   8.420  0.1781  0.2297 -0.3729
   71SLPC  H16X 6230   2.699   5.554   8.420 -0.9333  0.7787 -1.1138
   71SLPC  H16Y 6231   2.854   5.638   8.451  0.2529  1.1249 -0.1771
   71SLPC  C317 6232   2.747   5.721   8.283  0.6788  0.0241  0.1388
   71SLPC  H17X 6233   2.762   5.829   8.300 -0.5537  0.2390 -0.1348
   71SLPC  H17Y 6234   2.646   5.701   8.241 -0.4017  1.1564  2.1192
   71SLPC  C318 6235   2.863   5.683   8.179 -0.3944 -0.0828 -1.1207
   71SLPC  H18X 6236   2.876   5.574   8.169  1.0778  0.0059 -0.3046
   71SLPC  H18Y 6237   2.961   5.724   8.213  0.6222 -3.3940  0.0902
   71SLPC  H18Z 6238   2.843   5.742   8.087  0.5964  1.5979 -0.3040
   72SLPC     N 6239   3.982   4.885  10.642 -0.2708  0.3702 -0.7688
   72SLPC   C13 6240   4.049   5.011  10.611  0.3857  0.3703  1.0178
   72SLPC  H13A 6241   3.997   5.098  10.649 -1.3419 -0.4626  0.6095
   72SLPC  H13B 6242   4.154   5.018  10.638  1.0684  0.7372 -1.5820
   72SLPC  H13C 6243   4.052   5.023  10.503  0.5159  1.3029  1.1156
   72SLPC   C14 6244   4.008   4.850  10.785 -0.8813  0.3656 -0.8556
   72SLPC  H14A 6245   3.935   4.773  10.806  0.5940 -0.9775 -0.6021
   72SLPC  H14B 6246   4.101   4.798  10.803 -1.2918 -0.3470 -0.7679
   72SLPC  H14C 6247   3.992   4.937  10.848  0.3886 -0.0494  0.0417
   72SLPC   C15 6248   4.036   4.776  10.556  0.1527  0.4390 -0.2447
   72SLPC  H15A 6249   4.110   4.807  10.484  0.2324  2.2108  0.5696
   72SLPC  H15B 6250   4.081   4.697  10.613  0.0645 -0.7144 -1.7248
   72SLPC  H15C 6251   3.950   4.724  10.515  0.0327 -1.9111  2.8466
   72SLPC   C12 6252   3.830   4.897  10.618  0.6907  0.2419  0.0469
   72SLPC  H12A 6253   3.820   4.925  10.514 -4.8311  0.4398  0.5247
   72SLPC  H12B 6254   3.797   4.977  10.682  0.9119  0.9209 -0.6832
   72SLPC   C11 6255   3.737   4.773  10.648  0.6209 -0.0626 -1.0386
   72SLPC  H11A 6256   3.635   4.814  10.633 -0.4182 -1.5284  1.6785
   72SLPC  H11B 6257   3.751   4.737  10.753 -1.0564 -0.0485 -0.7953
   72SLPC     P 6258   3.761   4.520  10.601 -0.5412 -0.1250  0.5178
   72SLPC   O13 6259   3.883   4.502  10.680 -0.2424  0.5907 -0.4116
   72SLPC   O14 6260   3.633   4.486  10.666 -0.2534 -0.0574  0.1054
   72SLPC   O12 6261   3.754   4.671  10.556  0.2081 -0.2078  0.3593
   72SLPC   O11 6262   3.773   4.427  10.472  0.0623  0.2626 -0.3693
   72SLPC    C1 6263   3.697   4.456  10.350 -0.5674 -0.0063 -1.1613
   72SLPC    HA 6264   3.596   4.412  10.367 -0.5699  0.4542  0.0934
   72SLPC    HB 6265   3.682   4.564  10.328 -2.3191  0.0271  0.0255
   72SLPC    C2 6266   3.753   4.404  10.211  0.1458  0.4597  0.0227
   72SLPC    HS 6267   3.761   4.294  10.225  1.2726  0.5679  0.3266
   72SLPC   O21 6268   3.876   4.480  10.182  0.5557  0.5210 -0.1217
   72SLPC   C21 6269   3.971   4.400  10.136 -0.7907 -0.2055 -0.8962
   72SLPC   O22 6270   3.968   4.275  10.135  0.3389  0.4118  0.2734
   72SLPC   C22 6271   4.095   4.489  10.110  0.3251 -0.4259  0.0520
   72SLPC   H2R 6272   4.061   4.595  10.111 -1.3087 -0.9160 -1.8671
   72SLPC   H2S 6273   4.171   4.472  10.189 -0.2619  2.3985  1.3144
   72SLPC    C3 6274   3.646   4.424  10.094 -0.4254  0.3071  0.2433
   72SLPC    HX 6275   3.614   4.530  10.103 -2.3291 -0.2842  0.5321
   72SLPC    HY 6276   3.556   4.363  10.114  1.1686 -2.2812 -0.3409
   72SLPC   O31 6277   3.711   4.395   9.970  0.6879 -0.2898 -0.2765
   72SLPC   C31 6278   3.690   4.274   9.929 -0.1817  0.9718 -0.3293
   72SLPC   O32 6279   3.609   4.197   9.969  0.2460  0.2059  0.3045
   72SLPC   C32 6280   3.794   4.245   9.823  0.6441 -0.0083 -0.3715
   72SLPC   H2X 6281   3.784   4.134   9.825  0.3760  0.0214 -0.0797
   72SLPC   H2Y 6282   3.896   4.270   9.859  1.4132 -4.1527  0.6654
   72SLPC   C23 6283   4.166   4.469   9.973  0.5796  0.1014 -0.8227
   72SLPC   H3R 6284   4.192   4.361   9.964  1.6474  0.3197 -0.4481
   72SLPC   H3S 6285   4.258   4.531   9.983  0.2852  0.3576  0.3494
   72SLPC   C24 6286   4.102   4.523   9.847 -0.6491  0.4817 -0.0295
   72SLPC   H4R 6287   4.085   4.632   9.866 -0.4650  0.4511  0.3216
   72SLPC   H4S 6288   4.005   4.474   9.825  0.3136 -1.0718 -0.8687
   72SLPC   C25 6289   4.189   4.493   9.724  0.3965  0.7784 -0.6475
   72SLPC   H5R 6290   4.215   4.385   9.729  0.4188  0.7862 -0.5943
   72SLPC   H5S 6291   4.283   4.551   9.716 -0.7013  2.7300  0.0073
   72SLPC   C26 6292   4.110   4.518   9.589  0.0059 -0.4269  0.2534
   72SLPC   H6R 6293   4.101   4.625   9.561  3.3728 -0.1628 -0.0234
   72SLPC   H6S 6294   4.005   4.482   9.594  0.4221 -1.6034  0.7087
   72SLPC   C27 6295   4.157   4.434   9.463  0.3158  0.2469 -0.6701
   72SLPC   H7R 6296   4.107   4.335   9.457 -0.5182  0.7354 -2.0814
   72SLPC   H7S 6297   4.262   4.401   9.475  0.5209  0.8604 -0.7633
   72SLPC   C28 6298   4.148   4.515   9.335  0.4754  0.0539 -0.4678
   72SLPC   H8R 6299   4.224   4.597   9.328  1.3566 -0.6731  0.3539
   72SLPC   H8S 6300   4.053   4.572   9.335  0.6329  0.3985 -3.7057
   72SLPC   C29 6301   4.155   4.432   9.211  0.1244 -0.6967  1.2800
   72SLPC   H9R 6302   4.180   4.325   9.214 -1.9036 -1.2592 -0.4804
   72SLPC  C210 6303   4.143   4.488   9.089  0.0493  0.7960  0.0119
   72SLPC  H10R 6304   4.152   4.416   9.007  1.7881  0.4453  0.4870
   72SLPC  C211 6305   4.121   4.626   9.054  0.7391 -0.1535  0.4309
   72SLPC  H11R 6306   4.219   4.668   9.023  0.8222  0.0218  0.9369
   72SLPC  H11S 6307   4.069   4.681   9.136 -0.0989 -0.8271  0.3581
   72SLPC  C212 6308   4.028   4.623   8.940 -0.3894  0.3561 -0.3183
   72SLPC  H12R 6309   3.923   4.597   8.961 -0.2894 -0.9677 -1.4427
   72SLPC  C213 6310   4.049   4.665   8.816 -0.4452 -0.0376  0.4746
   72SLPC  H13R 6311   3.969   4.680   8.743  1.0171 -0.2384 -1.2196
   72SLPC  C214 6312   4.173   4.745   8.770 -0.2163  0.2038  0.4358
   72SLPC  H14R 6313   4.259   4.701   8.826 -0.5949 -0.1417  0.7499
   72SLPC  H14S 6314   4.182   4.853   8.795 -0.5559  0.4491 -0.5043
   72SLPC  C215 6315   4.191   4.730   8.615  0.3905  0.3450 -0.1496
   72SLPC  H15R 6316   4.174   4.625   8.582 -0.4998 -0.1182  1.7534
   72SLPC  H15S 6317   4.296   4.744   8.581  0.1540  1.8564 -0.2834
   72SLPC  C216 6318   4.108   4.840   8.538  0.4640  0.2571 -0.1283
   72SLPC  H16R 6319   4.167   4.934   8.547 -1.4056  1.5689 -1.1843
   72SLPC  H16S 6320   4.004   4.856   8.572  0.4684 -2.8138  1.4482
   72SLPC  C217 6321   4.093   4.797   8.393 -0.1665 -0.5401  0.0771
   72SLPC  H17R 6322   4.189   4.761   8.350 -0.1013  1.2685 -1.3685
   72SLPC  H17S 6323   4.074   4.889   8.333 -0.8984 -1.7040 -1.5067
   72SLPC  C218 6324   3.985   4.691   8.362  0.3949 -0.2572 -0.7596
   72SLPC  H18R 6325   3.887   4.716   8.407 -0.3759 -1.1890 -1.8606
   72SLPC  H18S 6326   4.012   4.590   8.399  3.8020  0.7204 -0.4508
   72SLPC  H18T 6327   3.965   4.691   8.252 -0.7191  3.1329 -0.6243
   72SLPC   C33 6328   3.747   4.298   9.687  0.1995  0.3102  0.0515
   72SLPC   H3X 6329   3.779   4.404   9.675  2.3602 -0.3468 -0.2066
   72SLPC   H3Y 6330   3.636   4.298   9.678  0.3595 -0.2290 -2.3229
   72SLPC   C34 6331   3.814   4.224   9.570  0.1457  0.5586  0.1025
   72SLPC   H4X 6332   3.763   4.125   9.565 -0.8390  1.0097  0.9430
   72SLPC   H4Y 6333   3.920   4.211   9.599  0.6515  0.7939 -1.6081
   72SLPC   C35 6334   3.800   4.277   9.420  0.0319  0.5789 -0.3152
   72SLPC   H5X 6335   3.852   4.375   9.414  1.4134 -0.1908 -1.1840
   72SLPC   H5Y 6336   3.694   4.291   9.392 -0.2921  0.1157  0.6791
   72SLPC   C36 6337   3.861   4.178   9.325  0.3751  0.6263  0.3619
   72SLPC   H6X 6338   3.830   4.077   9.360  2.0878  0.4417  1.3791
   72SLPC   H6Y 6339   3.971   4.173   9.339  0.2760 -2.1489  0.5729
   72SLPC   C37 6340   3.829   4.206   9.180 -0.3370 -0.5435 -0.3058
   72SLPC   H7X 6341   3.894   4.138   9.121 -1.5620 -1.6035 -0.4683
   72SLPC   H7Y 6342   3.862   4.309   9.156  0.1018 -0.6014  0.0510
   72SLPC   C38 6343   3.687   4.178   9.134  0.4164  0.2836 -0.1497
   72SLPC   H8X 6344   3.695   4.179   9.023  1.9577  2.1337 -0.0448
   72SLPC   H8Y 6345   3.619   4.261   9.162  2.7040  2.1514  0.0645
   72SLPC   C39 6346   3.635   4.041   9.160  1.1260  0.8251  0.3502
   72SLPC   H9X 6347   3.613   4.031   9.269  2.1143 -2.6605  0.3129
   72SLPC   H9Y 6348   3.712   3.965   9.134  0.5299  0.5345 -0.5775
   72SLPC  C310 6349   3.500   4.007   9.091  0.2005 -0.3117  0.0141
   72SLPC  H10X 6350   3.481   3.900   9.115 -2.0066  0.0223 -0.1955
   72SLPC  H10Y 6351   3.526   4.026   8.985 -0.0062 -0.8447 -0.1347
   72SLPC  C311 6352   3.386   4.102   9.134  0.3254  0.3680 -0.1488
   72SLPC  H11X 6353   3.398   4.210   9.108 -0.0441  0.8802  1.7396
   72SLPC  H11Y 6354   3.391   4.104   9.245 -0.5152 -3.7773  0.0359
   72SLPC  C312 6355   3.253   4.050   9.067 -0.4601 -0.0653 -0.5159
   72SLPC  H12X 6356   3.170   4.095   9.126  0.9851  0.9533  0.7694
   72SLPC  H12Y 6357   3.265   3.939   9.071  0.2436  0.0193 -0.1417
   72SLPC  C313 6358   3.234   4.088   8.922 -0.2497 -0.5772  0.6171
   72SLPC  H13X 6359   3.289   4.013   8.860  1.5069  0.0220  1.4199
   72SLPC  H13Y 6360   3.259   4.196   8.913  0.4057 -0.6950  0.9831
   72SLPC  C314 6361   3.085   4.064   8.890  0.3449 -0.5181  0.0047
   72SLPC  H14X 6362   3.022   4.085   8.979 -1.1874 -1.0762 -0.9369
   72SLPC  H14Y 6363   3.068   3.954   8.896  0.7084 -0.5269  0.9363
   72SLPC  C315 6364   3.028   4.125   8.768  0.0445  0.2098 -0.2502
   72SLPC  H15X 6365   3.114   4.141   8.699 -1.5514 -1.2973 -2.6643
   72SLPC  H15Y 6366   2.998   4.228   8.795 -0.3282 -0.1547  0.7596
   72SLPC  C316 6367   2.907   4.043   8.703  0.0451 -0.6549 -0.3663
   72SLPC  H16X 6368   2.941   3.938   8.694 -2.4994 -1.7391  1.8428
   72SLPC  H16Y 6369   2.886   4.086   8.603  0.5253  4.6696  1.6574
   72SLPC  C317 6370   2.770   4.037   8.778 -0.4424  0.1096  0.1727
   72SLPC  H17X 6371   2.798   4.017   8.883  5.1665 -1.9074 -1.5224
   72SLPC  H17Y 6372   2.692   3.965   8.745 -0.2945 -1.3306  2.9080
   72SLPC  C318 6373   2.701   4.175   8.788 -0.5543  0.5884  0.4119
   72SLPC  H18X 6374   2.685   4.219   8.688  2.5410  0.3876 -0.2225
   72SLPC  H18Y 6375   2.764   4.240   8.853  0.5649 -1.3850  1.3641
   72SLPC  H18Z 6376   2.605   4.155   8.841  1.3160 -2.5175  2.8071
   73SLPC     N 6377   3.938   2.897  11.143  0.0596 -0.1215 -0.3026
   73SLPC   C13 6378   3.970   2.907  11.287 -0.0969 -0.2369  0.1958
   73SLPC  H13A 6379   3.897   2.964  11.342  1.6971  0.6037  1.7685
   73SLPC  H13B 6380   3.963   2.812  11.338  1.5248 -0.4676  0.0405
   73SLPC  H13C 6381   4.066   2.956  11.296 -0.0186 -0.4342  0.4511
   73SLPC   C14 6382   3.899   3.033  11.101 -0.3433  0.0337 -0.4256
   73SLPC  H14A 6383   3.833   3.080  11.173 -0.3136 -1.9663  0.9574
   73SLPC  H14B 6384   3.990   3.091  11.097 -0.3673  0.3704  2.7136
   73SLPC  H14C 6385   3.851   3.024  11.005 -1.9116  1.0190  0.2488
   73SLPC   C15 6386   3.816   2.812  11.128  0.0916  0.1344  0.3203
   73SLPC  H15A 6387   3.811   2.729  11.197  1.4114  1.2634  1.7763
   73SLPC  H15B 6388   3.733   2.876  11.154 -0.1544  0.2325 -0.6836
   73SLPC  H15C 6389   3.811   2.773  11.027  2.2866  0.6060  0.0038
   73SLPC   C12 6390   4.053   2.839  11.057 -0.6794  0.7258  0.1592
   73SLPC  H12A 6391   4.086   2.752  11.111  0.0403  1.8111  1.4954
   73SLPC  H12B 6392   4.132   2.912  11.051 -2.7344  2.8213 -2.7508
   73SLPC   C11 6393   4.022   2.817  10.905 -0.1240  0.4451  0.1341
   73SLPC  H11A 6394   4.116   2.805  10.847  0.9914  1.7295  1.6273
   73SLPC  H11B 6395   3.972   2.909  10.868  0.3956 -0.2181 -2.3328
   73SLPC     P 6396   3.997   2.557  10.886  0.0947 -0.1103 -0.4698
   73SLPC   O13 6397   4.142   2.570  10.909 -0.0891 -0.0869 -0.5201
   73SLPC   O14 6398   3.915   2.468  10.974  0.4559 -1.1288  0.0246
   73SLPC   O12 6399   3.936   2.704  10.887 -0.1708  0.0868 -0.2183
   73SLPC   O11 6400   3.976   2.516  10.736 -0.0378 -0.3641 -0.4874
   73SLPC    C1 6401   4.034   2.605  10.630 -0.0688  0.3374 -0.4264
   73SLPC    HA 6402   4.111   2.676  10.667 -0.0515 -0.6508  1.4707
   73SLPC    HB 6403   4.081   2.534  10.558 -0.7054 -0.1747 -0.3465
   73SLPC    C2 6404   3.935   2.686  10.548 -0.3110  0.4036 -0.2584
   73SLPC    HS 6405   3.889   2.764  10.613 -2.3205 -0.7515 -0.2270
   73SLPC   O21 6406   3.833   2.596  10.501  0.3453  0.1311  0.2655
   73SLPC   C21 6407   3.725   2.660  10.468 -0.2837  0.4940  0.5664
   73SLPC   O22 6408   3.702   2.780  10.485 -0.7748 -0.2024 -0.1490
   73SLPC   C22 6409   3.619   2.561  10.425  0.8703  0.2920  0.3154
   73SLPC   H2R 6410   3.659   2.466  10.383  0.5445  1.0417 -1.7811
   73SLPC   H2S 6411   3.573   2.530  10.521 -0.3006  0.6214 -0.1314
   73SLPC    C3 6412   4.007   2.765  10.433  0.9826 -0.6133 -0.1560
   73SLPC    HX 6413   4.116   2.776  10.450  0.9826  0.2895 -0.6782
   73SLPC    HY 6414   3.963   2.867  10.432  3.2799  0.4019 -0.8019
   73SLPC   O31 6415   3.983   2.714  10.301 -0.1150 -0.4248 -0.4814
   73SLPC   C31 6416   4.067   2.619  10.266 -0.2255  0.4688 -0.1441
   73SLPC   O32 6417   4.167   2.584  10.326  0.1571  0.2636 -0.5734
   73SLPC   C32 6418   4.008   2.558  10.136 -0.3444  0.6151 -0.4484
   73SLPC   H2X 6419   3.996   2.629  10.051 -1.0864 -0.2281 -1.0622
   73SLPC   H2Y 6420   3.906   2.523  10.161  0.9997 -2.7021  0.6964
   73SLPC   C23 6421   3.515   2.627  10.326  0.1293 -0.6258 -0.4956
   73SLPC   H3R 6422   3.487   2.728  10.364  1.5670 -0.3665 -0.1050
   73SLPC   H3S 6423   3.432   2.555  10.304 -0.9075  0.1649  0.7764
   73SLPC   C24 6424   3.579   2.653  10.184  0.3377 -0.5579  0.2579
   73SLPC   H4R 6425   3.673   2.705  10.214  0.5661  0.7556 -2.4960
   73SLPC   H4S 6426   3.520   2.732  10.132  1.5841 -1.0369 -1.9845
   73SLPC   C25 6427   3.603   2.540  10.085  0.3991  0.3674  0.4232
   73SLPC   H5R 6428   3.666   2.467  10.140  0.8175 -1.1249 -1.9615
   73SLPC   H5S 6429   3.661   2.564   9.993  1.7871 -1.5863  0.7616
   73SLPC   C26 6430   3.474   2.466  10.042 -0.1725  0.0070  0.0244
   73SLPC   H6R 6431   3.425   2.419  10.129 -0.4673  0.7242  0.2443
   73SLPC   H6S 6432   3.503   2.384   9.972 -1.0698 -1.2034  1.0496
   73SLPC   C27 6433   3.369   2.547   9.959 -0.0591 -0.5957  0.4145
   73SLPC   H7R 6434   3.420   2.606   9.879 -0.3223 -0.3767  0.4071
   73SLPC   H7S 6435   3.326   2.620  10.031 -4.0601 -2.1239 -0.3392
   73SLPC   C28 6436   3.266   2.462   9.892  0.2962 -0.0711 -0.4635
   73SLPC   H8R 6437   3.179   2.521   9.856  0.4146  0.0577 -0.5420
   73SLPC   H8S 6438   3.232   2.385   9.964 -0.0803 -0.6953 -1.2860
   73SLPC   C29 6439   3.316   2.373   9.782  0.3257  0.2345  0.1376
   73SLPC   H9R 6440   3.413   2.323   9.793  0.9645  1.2187 -0.8481
   73SLPC  C210 6441   3.264   2.358   9.657 -0.1920 -0.3349  0.4397
   73SLPC  H10R 6442   3.327   2.307   9.583  1.5409 -1.2829  2.5203
   73SLPC  C211 6443   3.145   2.424   9.591  0.6386 -0.0327  0.0316
   73SLPC  H11R 6444   3.075   2.479   9.657  1.6067 -1.7189  2.5392
   73SLPC  H11S 6445   3.087   2.337   9.553 -0.0554  1.0976 -1.5728
   73SLPC  C212 6446   3.185   2.511   9.470  0.1341  0.4629 -0.0498
   73SLPC  H12R 6447   3.277   2.567   9.489 -1.7436  2.6802  2.9357
   73SLPC  C213 6448   3.145   2.508   9.342  0.3666  0.2853 -0.0128
   73SLPC  H13R 6449   3.175   2.591   9.277  1.7672 -1.4290 -1.6321
   73SLPC  C214 6450   3.044   2.410   9.281 -0.1480 -0.0593  0.9357
   73SLPC  H14R 6451   2.996   2.339   9.352  0.2576  0.5475  1.8357
   73SLPC  H14S 6452   3.085   2.346   9.201  3.2173 -1.2517  3.4826
   73SLPC  C215 6453   2.915   2.484   9.226  0.0438 -0.8513 -0.6702
   73SLPC  H15R 6454   2.947   2.553   9.145 -1.0217 -0.1250 -0.4843
   73SLPC  H15S 6455   2.876   2.552   9.306  2.1981 -0.9738  0.5449
   73SLPC  C216 6456   2.804   2.389   9.200 -0.1057 -0.1905  0.4719
   73SLPC  H16R 6457   2.787   2.318   9.284  0.7504  0.1313  0.9226
   73SLPC  H16S 6458   2.847   2.327   9.118  1.3238 -2.1427  2.6035
   73SLPC  C217 6459   2.674   2.461   9.167  0.1266 -0.6580  0.6618
   73SLPC  H17R 6460   2.673   2.535   9.084  0.0788 -0.9320  0.4140
   73SLPC  H17S 6461   2.649   2.527   9.253 -0.9061  1.4153 -1.1666
   73SLPC  C218 6462   2.563   2.371   9.139 -0.0267  0.6304  0.0566
   73SLPC  H18R 6463   2.565   2.293   9.218 -2.4520 -0.1784 -0.6283
   73SLPC  H18S 6464   2.568   2.320   9.040  1.4196  0.5475  0.1557
   73SLPC  H18T 6465   2.472   2.434   9.139  0.5045  1.4045 -0.4087
   73SLPC   C33 6466   4.099   2.437  10.102 -0.5143  0.6930 -0.0814
   73SLPC   H3X 6467   4.081   2.345  10.162  2.4389 -0.5194 -0.9878
   73SLPC   H3Y 6468   4.206   2.460  10.123 -1.1159  1.5866  2.2168
   73SLPC   C34 6469   4.089   2.401   9.951  0.4153 -0.2766 -0.1190
   73SLPC   H4X 6470   4.182   2.343   9.931  1.2314  1.3413 -1.1036
   73SLPC   H4Y 6471   4.117   2.487   9.886  1.4287 -0.3195  0.2646
   73SLPC   C35 6472   3.963   2.332   9.902 -0.2417 -0.7693  0.3569
   73SLPC   H5X 6473   3.888   2.368   9.975  1.6990 -0.8002  2.4239
   73SLPC   H5Y 6474   3.968   2.221   9.913 -0.2238 -0.8340 -0.3081
   73SLPC   C36 6475   3.937   2.365   9.755 -0.1800 -0.3976  0.4993
   73SLPC   H6X 6476   3.855   2.294   9.731  0.9162 -1.5305  0.0547
   73SLPC   H6Y 6477   4.022   2.341   9.688  0.7467  1.8541  0.8287
   73SLPC   C37 6478   3.890   2.515   9.728  0.1113 -0.2574 -0.1139
   73SLPC   H7X 6479   3.974   2.588   9.728 -0.5342  0.5016  1.8211
   73SLPC   H7Y 6480   3.818   2.544   9.807  0.7843 -1.7071  1.0475
   73SLPC   C38 6481   3.836   2.526   9.586  0.2855 -0.2164 -0.3945
   73SLPC   H8X 6482   3.799   2.429   9.547 -1.9316  0.2162  0.5360
   73SLPC   H8Y 6483   3.922   2.560   9.525  0.0614 -0.4354 -0.8365
   73SLPC   C39 6484   3.726   2.632   9.576  0.5243 -0.1389  0.0696
   73SLPC   H9X 6485   3.775   2.713   9.634  0.3843 -0.4075  0.5689
   73SLPC   H9Y 6486   3.637   2.604   9.637 -0.6194  2.8117 -0.1652
   73SLPC  C310 6487   3.686   2.669   9.432 -0.6793 -0.2548 -0.1072
   73SLPC  H10X 6488   3.763   2.622   9.368 -0.2919  3.0954 -2.2234
   73SLPC  H10Y 6489   3.681   2.779   9.418 -0.7422  0.1896  3.1460
   73SLPC  C311 6490   3.541   2.607   9.412 -0.3320  0.0859  0.2135
   73SLPC  H11X 6491   3.465   2.658   9.475 -1.1246  3.2383 -3.1003
   73SLPC  H11Y 6492   3.536   2.498   9.435 -0.4543 -0.1817 -1.0421
   73SLPC  C312 6493   3.494   2.624   9.270  0.5121 -0.2064  0.3708
   73SLPC  H12X 6494   3.411   2.550   9.270 -0.7757  1.1855 -0.9769
   73SLPC  H12Y 6495   3.574   2.591   9.201  0.3903  0.3247 -0.0279
   73SLPC  C313 6496   3.437   2.762   9.232 -0.1534  0.2697  0.0762
   73SLPC  H13X 6497   3.506   2.838   9.274  1.8501 -1.3565 -0.1765
   73SLPC  H13Y 6498   3.341   2.779   9.284 -1.0177 -0.0690 -1.3778
   73SLPC  C314 6499   3.427   2.790   9.082  0.2922  0.5272 -0.0561
   73SLPC  H14X 6500   3.355   2.713   9.046  2.5297 -0.5318 -2.4486
   73SLPC  H14Y 6501   3.524   2.770   9.033 -0.3680 -0.9801 -0.7980
   73SLPC  C315 6502   3.370   2.926   9.056 -0.5530  0.5798 -0.4318
   73SLPC  H15X 6503   3.413   3.010   9.115 -2.0892  0.5664  0.7618
   73SLPC  H15Y 6504   3.264   2.927   9.090 -0.8610 -1.1124 -1.3012
   73SLPC  C316 6505   3.383   2.972   8.912 -0.6061 -0.4950  0.4070
   73SLPC  H16X 6506   3.343   2.886   8.852 -1.1661 -1.3505  1.9881
   73SLPC  H16Y 6507   3.492   2.978   8.894 -0.5556  3.4281  1.6278
   73SLPC  C317 6508   3.328   3.117   8.876  0.7454 -0.2816 -0.0833
   73SLPC  H17X 6509   3.309   3.165   8.974 -1.5532  1.0958 -1.1818
   73SLPC  H17Y 6510   3.228   3.095   8.834  0.9570  0.9810 -1.2931
   73SLPC  C318 6511   3.406   3.210   8.782 -0.3803 -0.2439  0.7882
   73SLPC  H18X 6512   3.499   3.255   8.824  1.1225 -0.8156 -1.7787
   73SLPC  H18Y 6513   3.356   3.298   8.736  0.8018 -0.1319 -0.3178
   73SLPC  H18Z 6514   3.442   3.138   8.706 -0.1746  1.9568 -1.2688
   74SLPC     N 6515   5.059   3.996  11.001  0.5422  0.0288 -0.3150
   74SLPC   C13 6516   5.197   3.968  11.054 -0.3193  1.0102  0.0045
   74SLPC  H13A 6517   5.248   3.887  11.004 -1.4858 -0.2425  0.7870
   74SLPC  H13B 6518   5.269   4.046  11.039  1.8727 -0.6297  1.5884
   74SLPC  H13C 6519   5.200   3.939  11.158  3.0072 -0.2865 -0.3993
   74SLPC   C14 6520   5.007   4.112  11.079 -0.6612  0.3144 -0.1660
   74SLPC  H14A 6521   4.995   4.088  11.183  0.7486  0.2285 -0.0066
   74SLPC  H14B 6522   5.073   4.197  11.069 -0.0362 -0.0925  0.4398
   74SLPC  H14C 6523   4.911   4.119  11.030  0.2853 -2.2200 -2.5467
   74SLPC   C15 6524   4.976   3.879  11.027 -0.7965  0.3032 -0.3373
   74SLPC  H15A 6525   5.028   3.794  10.985 -2.0950 -0.5780 -0.1734
   74SLPC  H15B 6526   4.976   3.856  11.133 -0.3434  1.5930 -0.0424
   74SLPC  H15C 6527   4.877   3.880  10.986  0.1620 -2.9312 -2.9357
   74SLPC   C12 6528   5.067   4.020  10.850 -0.0029 -0.0668 -0.2469
   74SLPC  H12A 6529   5.121   3.935  10.811 -0.5433  0.2033 -1.5973
   74SLPC  H12B 6530   5.136   4.100  10.831 -2.4618  2.0387 -0.5116
   74SLPC   C11 6531   4.941   4.055  10.762  0.1156  0.0580  0.3268
   74SLPC  H11A 6532   4.864   3.980  10.789 -2.2959  0.9617 -3.6260
   74SLPC  H11B 6533   4.977   4.054  10.657  1.2233 -0.9318  0.6986
   74SLPC     P 6534   4.977   4.310  10.782  0.3065 -0.0330  0.0731
   74SLPC   O13 6535   4.939   4.412  10.883  0.2371  0.9199  0.2732
   74SLPC   O14 6536   5.121   4.274  10.771  0.6440 -0.3606  0.1182
   74SLPC   O12 6537   4.884   4.183  10.800  0.3322  0.3563 -0.0367
   74SLPC   O11 6538   4.925   4.383  10.649  0.1233  0.6692  0.5263
   74SLPC    C1 6539   4.808   4.330  10.578  0.2248 -0.6462  0.4800
   74SLPC    HA 6540   4.730   4.296  10.649 -0.4091  1.7144  0.9487
   74SLPC    HB 6541   4.748   4.416  10.540  0.5184  0.2534  2.0346
   74SLPC    C2 6542   4.837   4.232  10.461 -0.2544 -0.3384  0.3156
   74SLPC    HS 6543   4.893   4.147  10.505 -0.8061 -0.1053  1.5069
   74SLPC   O21 6544   4.905   4.300  10.359 -0.5536 -0.0717 -0.0286
   74SLPC   C21 6545   4.925   4.244  10.241  0.0261  0.4225 -0.5896
   74SLPC   O22 6546   4.908   4.127  10.215  0.1435 -0.1605 -0.4709
   74SLPC   C22 6547   5.000   4.350  10.156  0.2813  0.3099 -0.0431
   74SLPC   H2R 6548   4.970   4.450  10.193  0.5799  0.3792  0.0155
   74SLPC   H2S 6549   5.109   4.345  10.178  0.4458 -0.6821 -1.0367
   74SLPC    C3 6550   4.699   4.185  10.402  0.2407  0.0832 -0.4683
   74SLPC    HX 6551   4.630   4.144  10.478 -2.5027  2.6876 -1.4433
   74SLPC    HY 6552   4.716   4.095  10.340  2.0970  0.2092 -0.1899
   74SLPC   O31 6553   4.633   4.294  10.331 -0.1309  0.9704 -0.0911
   74SLPC   C31 6554   4.503   4.277  10.311  0.2365  0.1316 -0.4608
   74SLPC   O32 6555   4.436   4.179  10.341 -0.6200  0.0399  0.3595
   74SLPC   C32 6556   4.441   4.392  10.236 -0.6446 -0.4574 -0.0105
   74SLPC   H2X 6557   4.362   4.431  10.304 -1.7945 -0.0932 -1.5265
   74SLPC   H2Y 6558   4.414   4.356  10.135 -0.4744 -1.9445  0.4611
   74SLPC   C23 6559   4.987   4.322  10.005 -0.4656  0.1903 -0.6350
   74SLPC   H3R 6560   4.879   4.317   9.978 -0.2161 -0.7434 -1.4988
   74SLPC   H3S 6561   5.018   4.218   9.981 -1.9621 -0.1762 -1.0631
   74SLPC   C24 6562   5.070   4.415   9.911 -0.8751 -0.6450 -0.2425
   74SLPC   H4R 6563   5.177   4.411   9.940 -1.3515 -1.5501  1.4526
   74SLPC   H4S 6564   5.036   4.521   9.923  4.0737  0.8489  1.5735
   74SLPC   C25 6565   5.056   4.391   9.754  0.2254 -1.0017 -0.3024
   74SLPC   H5R 6566   4.953   4.353   9.734  0.9619 -2.5305 -1.2608
   74SLPC   H5S 6567   5.127   4.309   9.732  1.0139  0.0145 -1.6208
   74SLPC   C26 6568   5.076   4.511   9.655 -0.4554  0.3905  0.2685
   74SLPC   H6R 6569   5.162   4.567   9.698  0.8023 -0.8640 -0.5627
   74SLPC   H6S 6570   4.989   4.579   9.646 -0.3933  0.4890  0.4094
   74SLPC   C27 6571   5.123   4.454   9.519 -0.2379  0.5357 -0.2205
   74SLPC   H7R 6572   5.038   4.428   9.451 -0.9490 -0.6762  1.0949
   74SLPC   H7S 6573   5.190   4.369   9.545  1.1771  1.7691  0.2230
   74SLPC   C28 6574   5.209   4.556   9.438 -0.4116  0.0703  0.5072
   74SLPC   H8R 6575   5.279   4.601   9.511 -0.6962 -0.6934  1.2617
   74SLPC   H8S 6576   5.149   4.644   9.405 -0.4237 -0.1209  0.0179
   74SLPC   C29 6577   5.270   4.467   9.334  0.4161  0.3792 -0.0104
   74SLPC   H9R 6578   5.368   4.423   9.360  0.4313  0.8613  0.7775
   74SLPC  C210 6579   5.217   4.440   9.211  0.4785  0.3969  0.3221
   74SLPC  H10R 6580   5.268   4.361   9.153  0.1754 -1.2753  2.2917
   74SLPC  C211 6581   5.091   4.506   9.152  0.6765  0.8252 -0.1750
   74SLPC  H11R 6582   5.038   4.577   9.219 -0.7752  2.5904 -3.1134
   74SLPC  H11S 6583   5.018   4.424   9.136 -0.9908  1.4006  3.7719
   74SLPC  C212 6584   5.121   4.571   9.018  0.4064  0.0281 -0.3244
   74SLPC  H12R 6585   5.160   4.670   9.045  0.3190 -0.3577  1.2945
   74SLPC  C213 6586   5.095   4.536   8.889 -0.1798  0.6949 -0.0843
   74SLPC  H13R 6587   5.141   4.591   8.806  0.4049 -0.8818 -0.8321
   74SLPC  C214 6588   5.037   4.407   8.843 -0.3555  0.0895 -0.2074
   74SLPC  H14R 6589   5.000   4.345   8.927  0.2475  0.3026  0.2271
   74SLPC  H14S 6590   5.115   4.352   8.786 -2.1028 -0.8937 -1.7092
   74SLPC  C215 6591   4.923   4.440   8.747  0.8408  0.9704  0.0462
   74SLPC  H15R 6592   4.931   4.530   8.682 -1.6603  0.7874 -0.5691
   74SLPC  H15S 6593   4.833   4.464   8.808  0.2000  0.1031 -0.5500
   74SLPC  C216 6594   4.891   4.321   8.654 -0.5225  0.7673  0.1457
   74SLPC  H16R 6595   4.861   4.229   8.708 -1.1223 -0.7195 -2.6655
   74SLPC  H16S 6596   4.989   4.300   8.606 -0.0380  0.1931  1.3687
   74SLPC  C217 6597   4.790   4.352   8.545 -0.4719  0.0672 -0.5189
   74SLPC  H17R 6598   4.713   4.407   8.603  1.3115  0.8256  1.2028
   74SLPC  H17S 6599   4.751   4.254   8.511 -0.0905 -0.5027  0.6397
   74SLPC  C218 6600   4.844   4.438   8.430 -0.3730 -0.5379 -0.2115
   74SLPC  H18R 6601   4.886   4.535   8.465 -0.3415 -1.0649  1.2300
   74SLPC  H18S 6602   4.766   4.458   8.354 -2.2432  0.1676  1.8596
   74SLPC  H18T 6603   4.921   4.381   8.374 -0.2009  2.4063 -3.1617
   74SLPC   C33 6604   4.527   4.518  10.194 -0.0501 -0.0672  0.4235
   74SLPC   H3X 6605   4.589   4.556  10.278  0.5267 -1.5672  0.6790
   74SLPC   H3Y 6606   4.453   4.598  10.171  0.1185  0.4020  1.4636
   74SLPC   C34 6607   4.628   4.481  10.087 -0.3778 -0.1582  0.2995
   74SLPC   H4X 6608   4.657   4.374  10.095 -2.1137 -0.6805 -0.1025
   74SLPC   H4Y 6609   4.727   4.531  10.089 -1.1323  1.4034 -0.3767
   74SLPC   C35 6610   4.582   4.512   9.943 -0.4863  0.0817  0.3504
   74SLPC   H5X 6611   4.587   4.622   9.930  0.4800 -0.2558 -2.3261
   74SLPC   H5Y 6612   4.474   4.489   9.931 -0.1194 -1.1360 -0.6787
   74SLPC   C36 6613   4.657   4.442   9.829 -0.7500  1.0165  0.4696
   74SLPC   H6X 6614   4.653   4.336   9.862 -1.3741  1.2486  1.1435
   74SLPC   H6Y 6615   4.762   4.478   9.830  0.1878 -1.4401 -1.9368
   74SLPC   C37 6616   4.593   4.450   9.687 -0.3232  0.3578 -0.0904
   74SLPC   H7X 6617   4.594   4.557   9.655  0.7049  0.8080  1.3749
   74SLPC   H7Y 6618   4.487   4.418   9.685 -0.6953  1.5749 -0.6647
   74SLPC   C38 6619   4.675   4.383   9.582  0.2050 -0.4375  0.4112
   74SLPC   H8X 6620   4.691   4.278   9.616  2.5022 -0.7227 -1.3485
   74SLPC   H8Y 6621   4.774   4.425   9.555  1.1271 -2.2242  0.9195
   74SLPC   C39 6622   4.595   4.369   9.450 -0.2598  0.1893  0.3780
   74SLPC   H9X 6623   4.494   4.327   9.467 -0.0525 -0.3048  0.4019
   74SLPC   H9Y 6624   4.649   4.308   9.374  0.1197 -1.4755  1.9512
   74SLPC  C310 6625   4.579   4.507   9.368 -0.4574 -1.0275  0.4910
   74SLPC  H10X 6626   4.680   4.549   9.347 -0.6158 -0.6791  0.4169
   74SLPC  H10Y 6627   4.516   4.580   9.422  2.3570  2.2932 -0.4847
   74SLPC  C311 6628   4.529   4.471   9.231 -0.8745  0.0123 -0.2255
   74SLPC  H11X 6629   4.443   4.402   9.245  0.0988 -0.7396  2.3420
   74SLPC  H11Y 6630   4.608   4.411   9.180 -2.9391 -1.6185 -1.6163
   74SLPC  C312 6631   4.494   4.585   9.136 -0.5111 -0.3220  0.2350
   74SLPC  H12X 6632   4.422   4.650   9.191 -1.2578 -0.3073 -0.7489
   74SLPC  H12Y 6633   4.454   4.536   9.045  1.0963  0.0049 -0.6697
   74SLPC  C313 6634   4.613   4.673   9.098 -0.0930  0.6050 -0.0437
   74SLPC  H13X 6635   4.704   4.618   9.067 -0.3933  1.8731 -3.4053
   74SLPC  H13Y 6636   4.643   4.747   9.175  0.1954  0.5727 -0.1231
   74SLPC  C314 6637   4.590   4.745   8.965  0.7083 -0.3746  0.0956
   74SLPC  H14X 6638   4.652   4.836   8.956  0.3463  0.1043  2.1216
   74SLPC  H14Y 6639   4.483   4.769   8.948  1.1153  2.4122  1.2333
   74SLPC  C315 6640   4.649   4.675   8.846  0.1466 -0.0865 -0.3898
   74SLPC  H15X 6641   4.590   4.583   8.828  0.6767 -0.4229 -0.4225
   74SLPC  H15Y 6642   4.747   4.634   8.877 -1.5637 -2.3521  2.2068
   74SLPC  C316 6643   4.682   4.755   8.719 -0.0229  0.7628  0.1725
   74SLPC  H16X 6644   4.743   4.695   8.650 -0.0259  0.8395  0.1029
   74SLPC  H16Y 6645   4.741   4.841   8.759  0.6260  0.3149  0.1815
   74SLPC  C317 6646   4.552   4.791   8.647  0.7393  0.4967 -0.3437
   74SLPC  H17X 6647   4.493   4.853   8.718  1.6805  0.5922  0.3607
   74SLPC  H17Y 6648   4.498   4.696   8.628  0.8691  0.5550 -1.0397
   74SLPC  C318 6649   4.580   4.862   8.517 -0.7563 -0.2027  0.0452
   74SLPC  H18X 6650   4.638   4.795   8.449  0.6687  1.5906 -0.5371
   74SLPC  H18Y 6651   4.633   4.955   8.547 -0.8620 -0.0333 -0.2959
   74SLPC  H18Z 6652   4.491   4.876   8.453  0.1277  0.3804 -1.0757
   75SLPC     N 6653   3.482   0.769   6.430  0.1012  0.6189  0.7741
   75SLPC   C13 6654   3.529   0.766   6.287 -0.1579  0.2175  0.2990
   75SLPC  H13A 6655   3.447   0.770   6.216 -0.8828  0.5126  1.1550
   75SLPC  H13B 6656   3.601   0.842   6.262  0.7472 -0.8654 -0.4600
   75SLPC  H13C 6657   3.584   0.675   6.265  0.8089  0.8876 -0.1037
   75SLPC   C14 6658   3.425   0.903   6.469  0.0533 -0.0232  0.1213
   75SLPC  H14A 6659   3.324   0.918   6.433  0.6026  2.7445 -0.3665
   75SLPC  H14B 6660   3.428   0.915   6.577 -2.0781  1.1015  0.0995
   75SLPC  H14C 6661   3.487   0.978   6.424 -3.5901  1.3073 -2.9414
   75SLPC   C15 6662   3.609   0.754   6.520  0.1764 -0.5553  0.2966
   75SLPC  H15A 6663   3.668   0.664   6.506 -0.5910 -1.1817  1.0563
   75SLPC  H15B 6664   3.679   0.833   6.501 -0.4851  0.4820  2.0858
   75SLPC  H15C 6665   3.583   0.765   6.624 -1.6310 -0.8164 -0.0991
   75SLPC   C12 6666   3.389   0.663   6.457  0.3158  0.4205  0.2159
   75SLPC  H12A 6667   3.359   0.659   6.561 -0.1265  2.5200  0.2009
   75SLPC  H12B 6668   3.431   0.566   6.437  0.7662  0.8606 -0.9747
   75SLPC   C11 6669   3.250   0.657   6.371 -1.3832 -0.1281  0.7010
   75SLPC  H11A 6670   3.210   0.554   6.384  0.1621 -0.9519 -0.8570
   75SLPC  H11B 6671   3.282   0.666   6.265 -0.2752 -1.5912  0.8991
   75SLPC     P 6672   3.076   0.773   6.546 -0.1628 -0.1859 -0.1583
   75SLPC   O13 6673   3.078   0.917   6.586 -0.1691 -0.4826 -0.0324
   75SLPC   O14 6674   2.946   0.709   6.525  0.6293  0.3004  0.0120
   75SLPC   O12 6675   3.150   0.751   6.406 -0.5198 -0.8717 -0.5140
   75SLPC   O11 6676   3.161   0.701   6.651 -0.6605  0.5786  0.3684
   75SLPC    C1 6677   3.155   0.557   6.672 -0.1051  0.0743 -0.0881
   75SLPC    HA 6678   3.127   0.501   6.580  1.4569  0.2299 -0.6683
   75SLPC    HB 6679   3.259   0.526   6.698 -0.9219 -1.9580  0.8375
   75SLPC    C2 6680   3.061   0.531   6.795  0.2254 -0.8638  0.1334
   75SLPC    HS 6681   2.971   0.589   6.766  0.6226 -0.9479 -1.2956
   75SLPC   O21 6682   3.120   0.593   6.910  0.0631  0.0106 -0.0369
   75SLPC   C21 6683   3.035   0.650   6.988 -0.7441 -0.3647  0.2482
   75SLPC   O22 6684   2.914   0.652   6.980  0.5524 -0.1713 -0.3475
   75SLPC   C22 6685   3.110   0.736   7.089  0.1963 -0.7005 -0.9001
   75SLPC   H2R 6686   3.179   0.663   7.135  1.5219  1.0610 -0.0611
   75SLPC   H2S 6687   3.168   0.815   7.037 -0.1021 -0.0680 -0.2885
   75SLPC    C3 6688   3.030   0.391   6.824 -0.0357 -0.0643  0.0996
   75SLPC    HX 6689   3.121   0.347   6.871 -1.0364 -0.8201  1.3878
   75SLPC    HY 6690   3.015   0.326   6.734  3.0366 -0.9720  0.1983
   75SLPC   O31 6691   2.928   0.376   6.926  0.3723 -0.0481  0.1301
   75SLPC   C31 6692   2.815   0.403   6.872  0.6028 -0.5789 -1.2576
   75SLPC   O32 6693   2.795   0.421   6.750 -0.5709  0.0544  0.1148
   75SLPC   C32 6694   2.706   0.401   6.977 -0.0582  0.4009  0.1933
   75SLPC   H2X 6695   2.611   0.419   6.921  0.0627  1.6518  0.3805
   75SLPC   H2Y 6696   2.720   0.493   7.038  0.6614  0.5259 -0.1578
   75SLPC   C23 6697   3.027   0.783   7.211  0.2954 -0.1716 -0.4050
   75SLPC   H3R 6698   2.932   0.827   7.174 -0.4898 -1.3935  0.1574
   75SLPC   H3S 6699   3.078   0.875   7.249  1.2831 -0.1150 -1.8186
   75SLPC   C24 6700   2.985   0.666   7.308  0.0828 -1.3622 -0.0653
   75SLPC   H4R 6701   3.073   0.639   7.370  1.8648  2.0547 -0.9918
   75SLPC   H4S 6702   2.969   0.579   7.240 -0.6040 -1.9055  0.7896
   75SLPC   C25 6703   2.861   0.694   7.392  0.6474 -0.8091 -0.1083
   75SLPC   H5R 6704   2.771   0.696   7.327 -1.1519 -0.7027  2.3181
   75SLPC   H5S 6705   2.881   0.797   7.429  0.5967  0.2574 -2.9299
   75SLPC   C26 6706   2.840   0.589   7.507 -0.5725 -0.5478  0.5245
   75SLPC   H6R 6707   2.748   0.613   7.564 -1.7872  0.1691 -1.6660
   75SLPC   H6S 6708   2.919   0.600   7.584  1.1534  2.3177 -1.5399
   75SLPC   C27 6709   2.836   0.446   7.452  0.6934 -0.3005 -0.0589
   75SLPC   H7R 6710   2.942   0.421   7.431  1.3875  2.4379 -0.0200
   75SLPC   H7S 6711   2.775   0.434   7.359 -1.2918 -2.2738  1.4476
   75SLPC   C28 6712   2.788   0.344   7.561 -0.1156  0.1121  0.3114
   75SLPC   H8R 6713   2.857   0.346   7.648 -1.1619 -1.1828  1.2025
   75SLPC   H8S 6714   2.779   0.243   7.516  0.8592 -0.4696  1.3870
   75SLPC   C29 6715   2.648   0.376   7.601  0.1862  0.5713 -0.0286
   75SLPC   H9R 6716   2.577   0.374   7.517 -1.4543  0.5242  1.3241
   75SLPC  C210 6717   2.593   0.408   7.721 -0.0793  0.3392 -0.5811
   75SLPC  H10R 6718   2.485   0.431   7.720  0.2544  1.9444 -0.7918
   75SLPC  C211 6719   2.674   0.428   7.844  0.5806 -0.4295 -1.3047
   75SLPC  H11R 6720   2.772   0.382   7.823  0.1070 -1.3683 -1.4501
   75SLPC  H11S 6721   2.623   0.376   7.928 -0.5630  0.3608 -1.4834
   75SLPC  C212 6722   2.678   0.576   7.866 -0.5882  0.2177  0.3997
   75SLPC  H12R 6723   2.717   0.632   7.780  2.0669 -1.7324  0.2732
   75SLPC  C213 6724   2.643   0.636   7.980 -0.2508  0.3326 -0.2381
   75SLPC  H13R 6725   2.643   0.746   7.985 -0.0929  0.3599 -0.8012
   75SLPC  C214 6726   2.587   0.564   8.106 -0.0979 -1.0074  0.3526
   75SLPC  H14R 6727   2.663   0.491   8.142  0.8802  0.3615  1.1462
   75SLPC  H14S 6728   2.496   0.507   8.078 -1.3320  0.6528  0.8667
   75SLPC  C215 6729   2.560   0.654   8.226 -0.3223  0.6749  0.2142
   75SLPC  H15R 6730   2.655   0.707   8.249 -1.1142  1.7643  0.9811
   75SLPC  H15S 6731   2.535   0.589   8.312 -0.8788  1.7542  0.8721
   75SLPC  C216 6732   2.431   0.739   8.206  0.3056 -0.0483  0.4888
   75SLPC  H16R 6733   2.355   0.679   8.151  0.9894 -0.8343  0.3985
   75SLPC  H16S 6734   2.452   0.834   8.154  0.2929 -1.1822 -1.6480
   75SLPC  C217 6735   2.363   0.766   8.339  0.1467 -0.0197 -0.6379
   75SLPC  H17R 6736   2.419   0.835   8.405 -1.4591 -0.7045  1.5117
   75SLPC  H17S 6737   2.348   0.668   8.390  3.0932 -1.0698 -1.6808
   75SLPC  C218 6738   2.224   0.826   8.320  0.0350  0.0499 -0.0231
   75SLPC  H18R 6739   2.162   0.825   8.412 -1.0193  0.0381 -0.7233
   75SLPC  H18S 6740   2.174   0.782   8.232  1.2558 -0.4894 -0.4513
   75SLPC  H18T 6741   2.227   0.936   8.303 -0.8369 -0.3780 -3.1473
   75SLPC   C33 6742   2.711   0.280   7.071  0.0181  0.1520 -0.1880
   75SLPC   H3X 6743   2.812   0.233   7.081  0.8591  1.6770 -1.4223
   75SLPC   H3Y 6744   2.681   0.313   7.173  1.7837 -0.6882  0.6330
   75SLPC   C34 6745   2.610   0.177   7.021 -1.0698 -0.9351 -0.2710
   75SLPC   H4X 6746   2.654   0.081   7.058  1.4611 -0.4078 -1.7564
   75SLPC   H4Y 6747   2.619   0.167   6.911 -0.2079 -0.3609 -0.2553
   75SLPC   C35 6748   2.468   0.193   7.078 -0.7763 -0.0761 -0.9367
   75SLPC   H5X 6749   2.385   0.137   7.031 -2.0138  0.9059  0.0721
   75SLPC   H5Y 6750   2.437   0.297   7.053  1.0030  0.5185 -0.7697
   75SLPC   C36 6751   2.454   0.161   7.224  0.4257  0.3978 -0.3372
   75SLPC   H6X 6752   2.517   0.240   7.271 -0.8504  1.8018 -0.9483
   75SLPC   H6Y 6753   2.501   0.063   7.246 -0.5897  0.3290  1.6917
   75SLPC   C37 6754   2.309   0.166   7.274  0.2611  0.1716  0.1348
   75SLPC   H7X 6755   2.247   0.105   7.204 -0.4117 -2.4188  2.8964
   75SLPC   H7Y 6756   2.246   0.257   7.273 -0.7917 -0.5349  0.8685
   75SLPC   C38 6757   2.305   0.089   7.412  0.0042 -0.4967  0.6064
   75SLPC   H8X 6758   2.406   0.045   7.423  1.7671  3.2111  0.1543
   75SLPC   H8Y 6759   2.231   0.007   7.410  0.0551 -0.5214 -2.2802
   75SLPC   C39 6760   2.272   0.181   7.527  0.2558  0.1617 -0.7322
   75SLPC   H9X 6761   2.168   0.216   7.511  0.0821  0.5119  1.0009
   75SLPC   H9Y 6762   2.333   0.271   7.505 -1.1475  0.3302 -4.2573
   75SLPC  C310 6763   2.304   0.120   7.668 -0.1331  0.3108  0.1716
   75SLPC  H10X 6764   2.412   0.096   7.667 -0.4688 -1.3421 -2.5366
   75SLPC  H10Y 6765   2.249   0.023   7.676 -0.8655  0.6307 -0.9696
   75SLPC  C311 6766   2.273   0.214   7.788  0.4611  0.6796  0.6413
   75SLPC  H11X 6767   2.168   0.245   7.769  0.7140  0.3620 -1.4727
   75SLPC  H11Y 6768   2.327   0.311   7.778  0.6814  0.6410  1.4697
   75SLPC  C312 6769   2.301   0.170   7.929  0.3416 -0.4680 -0.0827
   75SLPC  H12X 6770   2.407   0.165   7.963 -0.3581  0.0211  2.3074
   75SLPC  H12Y 6771   2.262   0.069   7.955 -1.4427  0.1131 -0.3997
   75SLPC  C313 6772   2.235   0.271   8.023  0.1191  0.2628  0.6396
   75SLPC  H13X 6773   2.124   0.271   8.027  0.1622  1.2346  2.2800
   75SLPC  H13Y 6774   2.276   0.366   7.982  0.1085 -0.7066 -1.6775
   75SLPC  C314 6775   2.292   0.263   8.168  0.1938 -0.3217  0.5975
   75SLPC  H14X 6776   2.401   0.281   8.158 -0.3429  2.2876 -1.1584
   75SLPC  H14Y 6777   2.280   0.169   8.225 -3.1052 -0.8601 -0.8744
   75SLPC  C315 6778   2.229   0.378   8.249  0.2565  0.4651 -0.7179
   75SLPC  H15X 6779   2.119   0.386   8.233  0.0482  0.4097  0.6528
   75SLPC  H15Y 6780   2.285   0.467   8.212 -1.2976  2.1429  0.8478
   75SLPC  C316 6781   2.255   0.364   8.402 -0.7599  0.2675 -0.7947
   75SLPC  H16X 6782   2.364   0.382   8.411 -0.5467 -1.0835 -0.5705
   75SLPC  H16Y 6783   2.251   0.260   8.439 -1.0558  0.0330 -1.4768
   75SLPC  C317 6784   2.160   0.454   8.487 -0.2961  0.0666 -0.3050
   75SLPC  H17X 6785   2.055   0.425   8.467 -0.3062 -0.6540  0.7458
   75SLPC  H17Y 6786   2.161   0.559   8.451 -1.4691  0.1941  0.0261
   75SLPC  C318 6787   2.185   0.452   8.639 -0.2761  0.1323  0.5751
   75SLPC  H18X 6788   2.130   0.532   8.693 -2.0071 -1.7163  1.6286
   75SLPC  H18Y 6789   2.293   0.468   8.660 -0.0014 -0.8662 -0.0556
   75SLPC  H18Z 6790   2.155   0.354   8.683 -1.3397  1.1925  2.2868
   76SLPC     N 6791   5.096   5.117   5.904  0.0477  0.4473  0.3728
   76SLPC   C13 6792   5.002   5.007   5.845 -0.6422  0.1405  0.5077
   76SLPC  H13A 6793   5.056   4.953   5.768  0.2416  0.5848  0.8088
   76SLPC  H13B 6794   4.968   4.939   5.921  1.3153  1.9990  3.1377
   76SLPC  H13C 6795   4.911   5.050   5.806  0.1404  3.4865  2.1332
   76SLPC   C14 6796   5.118   5.229   5.804 -0.3044 -0.2418  0.0769
   76SLPC  H14A 6797   5.161   5.189   5.713 -2.3850 -1.7321 -0.2822
   76SLPC  H14B 6798   5.026   5.283   5.789  0.0953  1.1714  2.5405
   76SLPC  H14C 6799   5.177   5.298   5.862 -1.2123 -0.4511  1.2578
   76SLPC   C15 6800   5.225   5.044   5.928 -0.6585  0.3986 -0.0369
   76SLPC  H15A 6801   5.215   4.963   5.999 -0.8460 -0.4306 -0.9992
   76SLPC  H15B 6802   5.273   5.012   5.837 -1.5836 -0.3432 -0.2758
   76SLPC  H15C 6803   5.302   5.110   5.966 -1.3058 -0.1864  2.3883
   76SLPC   C12 6804   5.040   5.177   6.031 -0.1749 -0.4737  0.1993
   76SLPC  H12A 6805   5.026   5.095   6.099  0.6926 -2.9204 -2.5061
   76SLPC  H12B 6806   4.945   5.222   6.005 -1.2808 -1.1501  2.9253
   76SLPC   C11 6807   5.128   5.284   6.101  0.2215 -0.1157  0.8577
   76SLPC  H11A 6808   5.234   5.252   6.100  0.2574 -0.0089 -0.3315
   76SLPC  H11B 6809   5.101   5.279   6.208  0.5232  0.3904  0.9574
   76SLPC     P 6810   4.968   5.486   6.053 -0.2601  0.1851 -0.4492
   76SLPC   O13 6811   4.989   5.634   6.030 -0.2278  0.2770 -0.2784
   76SLPC   O14 6812   4.877   5.421   5.960 -0.9878  0.7533  0.2284
   76SLPC   O12 6813   5.110   5.413   6.044  0.2142 -0.2341  0.1584
   76SLPC   O11 6814   4.922   5.455   6.205 -0.1359 -0.0471  0.1735
   76SLPC    C1 6815   4.993   5.508   6.318  0.2065 -0.3066 -0.0861
   76SLPC    HA 6816   4.978   5.450   6.411 -0.6676  2.5184  1.5893
   76SLPC    HB 6817   5.103   5.513   6.303  0.2336 -0.8383 -0.0583
   76SLPC    C2 6818   4.936   5.647   6.361  0.7024 -0.0839  0.5067
   76SLPC    HS 6819   4.958   5.718   6.278  0.0522 -1.7307 -1.0995
   76SLPC   O21 6820   5.004   5.685   6.480  0.0538 -0.1662 -0.5282
   76SLPC   C21 6821   5.001   5.808   6.512  0.1877  0.0052 -0.3345
   76SLPC   O22 6822   4.936   5.900   6.458 -0.1988 -0.5361 -0.4506
   76SLPC   C22 6823   5.093   5.841   6.637 -0.0117  0.0170 -0.3344
   76SLPC   H2R 6824   5.134   5.758   6.698 -0.0244  1.0497  1.1214
   76SLPC   H2S 6825   5.168   5.912   6.596 -0.1893  0.2354 -0.2811
   76SLPC    C3 6826   4.782   5.646   6.374 -0.5543  0.3208 -0.1654
   76SLPC    HX 6827   4.724   5.629   6.280 -2.5722 -1.8692  1.4338
   76SLPC    HY 6828   4.753   5.746   6.413  1.6830  1.2177 -0.7259
   76SLPC   O31 6829   4.749   5.549   6.472  0.1539 -0.9366 -0.4027
   76SLPC   C31 6830   4.622   5.517   6.467  0.4297  0.1635  0.0447
   76SLPC   O32 6831   4.536   5.555   6.382 -0.2658  0.0293  0.2503
   76SLPC   C32 6832   4.582   5.449   6.595 -0.4712  0.6616 -0.1417
   76SLPC   H2X 6833   4.662   5.381   6.631  0.1515  0.3121 -2.1328
   76SLPC   H2Y 6834   4.501   5.381   6.562 -0.6256 -0.5413  2.6333
   76SLPC   C23 6835   5.022   5.927   6.747 -0.0069  0.1429  0.0908
   76SLPC   H3R 6836   4.915   5.896   6.746  0.1593 -0.4618  0.5262
   76SLPC   H3S 6837   5.010   6.030   6.707  1.5930  0.2159 -0.2265
   76SLPC   C24 6838   5.075   5.912   6.892 -0.3221 -0.2267  0.3053
   76SLPC   H4R 6839   5.086   5.804   6.915 -1.5226 -0.2029  1.0577
   76SLPC   H4S 6840   4.989   5.940   6.957 -0.7700 -1.1151  0.1009
   76SLPC   C25 6841   5.195   5.999   6.932  0.0933 -0.0879 -0.3284
   76SLPC   H5R 6842   5.164   6.106   6.932 -0.4330 -0.2239  1.1607
   76SLPC   H5S 6843   5.262   5.986   6.845 -2.0707 -0.9235 -1.9149
   76SLPC   C26 6844   5.241   5.960   7.072 -0.2157 -0.2902  0.2520
   76SLPC   H6R 6845   5.343   6.002   7.092  0.5998 -1.7503 -0.7562
   76SLPC   H6S 6846   5.252   5.850   7.081  0.3931 -0.6029 -3.5750
   76SLPC   C27 6847   5.164   6.023   7.180 -1.0004  0.6728  0.0461
   76SLPC   H7R 6848   5.059   5.987   7.171 -0.6075 -0.5034  0.0287
   76SLPC   H7S 6849   5.163   6.132   7.160 -0.2048  0.7385  0.3472
   76SLPC   C28 6850   5.219   5.985   7.321  0.5362  0.2655 -0.0740
   76SLPC   H8R 6851   5.209   5.876   7.340  0.5478  0.4847  1.1911
   76SLPC   H8S 6852   5.321   6.027   7.326  0.5018  0.1769  1.7512
   76SLPC   C29 6853   5.142   6.056   7.431 -0.6697  0.0656 -0.8091
   76SLPC   H9R 6854   5.053   6.105   7.390 -0.3575  1.3965  0.0668
   76SLPC  C210 6855   5.176   6.058   7.565 -0.8761 -0.3292  0.5395
   76SLPC  H10R 6856   5.105   6.110   7.630 -1.3399 -0.1197 -0.1333
   76SLPC  C211 6857   5.298   6.007   7.643  0.1402 -0.2356  0.6159
   76SLPC  H11R 6858   5.369   6.091   7.664 -0.4315 -0.0424  1.8206
   76SLPC  H11S 6859   5.357   5.935   7.583 -0.4193 -0.2316  0.0541
   76SLPC  C212 6860   5.256   5.933   7.767 -0.3665  0.3879 -0.5033
   76SLPC  H12R 6861   5.230   5.826   7.759  0.6569  0.0391  0.6541
   76SLPC  C213 6862   5.246   5.999   7.889 -0.7785 -0.3581  0.7973
   76SLPC  H13R 6863   5.211   5.952   7.982 -0.7742 -0.8798  0.5348
   76SLPC  C214 6864   5.273   6.148   7.917 -1.1095 -0.7542 -0.5934
   76SLPC  H14R 6865   5.248   6.216   7.834 -0.8580  0.1303  0.0478
   76SLPC  H14S 6866   5.383   6.157   7.936 -0.8101 -0.6121 -2.3086
   76SLPC  C215 6867   5.186   6.198   8.043 -0.6684  0.2024  0.6019
   76SLPC  H15R 6868   5.222   6.298   8.077  1.2769  0.1492 -1.2159
   76SLPC  H15S 6869   5.196   6.125   8.126 -0.5609 -2.9416 -2.0669
   76SLPC  C216 6870   5.039   6.192   8.026 -0.1660  0.2571  0.0630
   76SLPC  H16R 6871   5.012   6.107   7.959 -0.7612  0.0521  0.5531
   76SLPC  H16S 6872   5.008   6.283   7.970  1.0121  1.0545  0.6775
   76SLPC  C217 6873   4.960   6.181   8.161 -0.5908  0.0984  0.2791
   76SLPC  H17R 6874   4.994   6.088   8.212  0.9175 -0.2305 -1.2782
   76SLPC  H17S 6875   4.852   6.173   8.139 -0.3131  2.3750 -2.1797
   76SLPC  C218 6876   4.986   6.293   8.261  0.2789  0.7561  0.2407
   76SLPC  H18R 6877   4.919   6.279   8.348 -0.3876 -0.6235 -0.4666
   76SLPC  H18S 6878   4.974   6.393   8.215  0.6032  0.7382  0.1177
   76SLPC  H18T 6879   5.091   6.286   8.296 -0.1363  1.2050  1.6136
   76SLPC   C33 6880   4.538   5.544   6.713 -0.4198 -0.5912 -0.5570
   76SLPC   H3X 6881   4.497   5.639   6.673 -2.8733 -1.5000 -0.3086
   76SLPC   H3Y 6882   4.626   5.576   6.773  0.3528 -1.5450 -1.1639
   76SLPC   C34 6883   4.431   5.478   6.790  0.6067 -0.1889  0.6090
   76SLPC   H4X 6884   4.475   5.380   6.819 -1.7038 -1.4828 -0.2109
   76SLPC   H4Y 6885   4.337   5.460   6.734  1.2469 -5.3697  0.9031
   76SLPC   C35 6886   4.383   5.557   6.917  0.5077  0.1700  0.0109
   76SLPC   H5X 6887   4.300   5.502   6.967  1.7011 -0.6190  1.1547
   76SLPC   H5Y 6888   4.350   5.659   6.889 -0.1696 -0.1574 -0.4011
   76SLPC   C36 6889   4.494   5.578   7.032 -0.3606  0.2688 -0.2361
   76SLPC   H6X 6890   4.582   5.636   6.998  1.5974 -1.9063  1.0067
   76SLPC   H6Y 6891   4.533   5.478   7.062 -0.9318 -0.0949 -0.6882
   76SLPC   C37 6892   4.419   5.625   7.156 -0.4250  0.5352  0.0925
   76SLPC   H7X 6893   4.326   5.565   7.159  0.0444 -0.1411  1.8229
   76SLPC   H7Y 6894   4.389   5.730   7.138  2.5901  1.1271 -1.9154
   76SLPC   C38 6895   4.498   5.617   7.286  0.1239 -0.8565  0.0493
   76SLPC   H8X 6896   4.594   5.673   7.289  0.1706 -0.9525  0.4217
   76SLPC   H8Y 6897   4.522   5.514   7.320 -0.0281 -0.5282  1.1614
   76SLPC   C39 6898   4.417   5.676   7.405  0.0101 -0.4552  0.4473
   76SLPC   H9X 6899   4.329   5.611   7.426 -0.3745  0.8267  3.1492
   76SLPC   H9Y 6900   4.378   5.778   7.382 -1.5251 -1.5981 -2.2522
   76SLPC  C310 6901   4.507   5.687   7.532 -0.5349 -0.2411  0.0615
   76SLPC  H10X 6902   4.606   5.729   7.502 -1.4459 -0.0585 -2.8173
   76SLPC  H10Y 6903   4.544   5.587   7.563 -1.2523  0.1150  2.1398
   76SLPC  C311 6904   4.438   5.742   7.659 -0.3262  0.3288  0.0476
   76SLPC  H11X 6905   4.394   5.840   7.631 -1.5057  0.0040  0.7613
   76SLPC  H11Y 6906   4.510   5.774   7.737 -0.3783  3.1883 -1.0028
   76SLPC  C312 6907   4.324   5.653   7.713 -0.4467 -0.0668  0.1898
   76SLPC  H12X 6908   4.351   5.545   7.720  5.0603  1.1740  0.7722
   76SLPC  H12Y 6909   4.251   5.652   7.630  0.5242 -0.9606 -0.6737
   76SLPC  C313 6910   4.261   5.709   7.834 -0.2574  0.0066  0.0318
   76SLPC  H13X 6911   4.193   5.796   7.817  0.7918  0.7553 -0.4130
   76SLPC  H13Y 6912   4.338   5.742   7.908  1.5200 -1.6906 -1.0060
   76SLPC  C314 6913   4.175   5.612   7.902 -0.2008 -0.1768  0.5554
   76SLPC  H14X 6914   4.231   5.516   7.911 -0.4394 -0.2786  0.9506
   76SLPC  H14Y 6915   4.082   5.584   7.849 -0.6052 -1.1905  1.7818
   76SLPC  C315 6916   4.129   5.655   8.046 -0.2601  0.4900 -0.5073
   76SLPC  H15X 6917   4.050   5.588   8.085  0.5138 -1.5048 -2.2721
   76SLPC  H15Y 6918   4.090   5.757   8.063  0.2981  1.0433 -2.3666
   76SLPC  C316 6919   4.246   5.640   8.150  0.3768  0.0296 -0.2485
   76SLPC  H16X 6920   4.326   5.714   8.127  0.2270  0.1591 -0.3615
   76SLPC  H16Y 6921   4.280   5.535   8.139  2.6421  0.6894  0.0668
   76SLPC  C317 6922   4.194   5.651   8.293 -0.1057 -0.2533  0.1062
   76SLPC  H17X 6923   4.273   5.632   8.369 -1.0668 -1.1975  0.8872
   76SLPC  H17Y 6924   4.115   5.574   8.309 -1.2164  1.0067  0.8192
   76SLPC  C318 6925   4.132   5.779   8.350 -0.5852  0.0606  0.7791
   76SLPC  H18X 6926   4.210   5.856   8.334 -0.9660  0.7751  2.2126
   76SLPC  H18Y 6927   4.112   5.752   8.456  1.5975 -0.0578  1.1743
   76SLPC  H18Z 6928   4.040   5.810   8.296 -0.3951  2.0162  1.5504
   77SLPC     N 6929   1.004   5.500   6.304  0.0829  0.1590  0.0375
   77SLPC   C13 6930   1.101   5.515   6.192 -0.5139 -0.4149  0.4429
   77SLPC  H13A 6931   1.202   5.508   6.229 -0.4371 -0.1143  0.2949
   77SLPC  H13B 6932   1.079   5.438   6.119  3.7540 -0.9704 -0.3603
   77SLPC  H13C 6933   1.093   5.607   6.135 -1.3613 -0.8734 -0.1820
   77SLPC   C14 6934   0.878   5.436   6.245 -0.2505 -0.1962 -0.4716
   77SLPC  H14A 6935   0.818   5.517   6.206  1.2367  0.9112 -0.4937
   77SLPC  H14B 6936   0.905   5.362   6.171 -0.1205 -1.3994  0.7613
   77SLPC  H14C 6937   0.817   5.389   6.320  0.2168  0.5183  0.3596
   77SLPC   C15 6938   0.971   5.631   6.365  0.1569 -0.0528 -0.2158
   77SLPC  H15A 6939   0.941   5.702   6.289 -0.0803 -1.6247 -1.6164
   77SLPC  H15B 6940   0.893   5.615   6.437  1.4466 -1.0488  0.9851
   77SLPC  H15C 6941   1.053   5.666   6.425 -0.8315 -0.5972  1.4766
   77SLPC   C12 6942   1.059   5.399   6.398 -0.3174 -0.3037 -0.1094
   77SLPC  H12A 6943   1.163   5.424   6.414 -0.9483  0.2902  3.5260
   77SLPC  H12B 6944   1.062   5.301   6.352 -1.1858 -0.9849  1.2630
   77SLPC   C11 6945   0.990   5.385   6.533 -0.3456  0.3584  0.1002
   77SLPC  H11A 6946   0.976   5.490   6.568 -0.0330  0.4717 -0.1085
   77SLPC  H11B 6947   1.057   5.323   6.596  2.6482  0.6185 -2.7107
   77SLPC     P 6948   0.822   5.188   6.550  0.2172 -0.3327  0.4374
   77SLPC   O13 6949   0.690   5.147   6.502  0.3399  0.1725  0.7287
   77SLPC   O14 6950   0.938   5.095   6.513 -0.7532  0.1593 -0.0735
   77SLPC   O12 6951   0.852   5.340   6.515  0.2239  0.3121  0.2798
   77SLPC   O11 6952   0.827   5.184   6.707  0.1646  0.5336  0.6571
   77SLPC    C1 6953   0.728   5.255   6.773 -0.1159  0.9820 -0.1632
   77SLPC    HA 6954   0.727   5.363   6.748 -1.1061  0.8697 -0.6148
   77SLPC    HB 6955   0.632   5.216   6.733 -0.0178  0.8359 -0.2609
   77SLPC    C2 6956   0.727   5.232   6.924  0.4974  0.0284 -0.9030
   77SLPC    HS 6957   0.659   5.310   6.963  0.7771 -0.3919  0.4643
   77SLPC   O21 6958   0.859   5.230   6.981 -0.2540  0.2351 -0.0756
   77SLPC   C21 6959   0.869   5.279   7.100  0.3803  0.1930 -0.1694
   77SLPC   O22 6960   0.777   5.311   7.170  0.2320 -0.5357  0.4541
   77SLPC   C22 6961   1.022   5.285   7.151 -0.0372  0.5660  0.7779
   77SLPC   H2R 6962   1.055   5.184   7.121 -2.7164  0.0624 -0.6160
   77SLPC   H2S 6963   1.068   5.369   7.094 -3.6944  2.6208  0.6467
   77SLPC    C3 6964   0.664   5.091   6.950  0.4229  0.1855  0.1995
   77SLPC    HX 6965   0.722   5.015   6.894 -0.3128  0.0659 -0.3991
   77SLPC    HY 6966   0.568   5.087   6.895  0.0245  2.9612  0.6025
   77SLPC   O31 6967   0.657   5.059   7.087  0.1068 -0.7407  0.8008
   77SLPC   C31 6968   0.545   5.109   7.143 -0.2164 -0.4559  0.7147
   77SLPC   O32 6969   0.468   5.190   7.093 -0.0693  0.6656  0.1562
   77SLPC   C32 6970   0.521   5.029   7.272  0.1234  0.1514 -0.5422
   77SLPC   H2X 6971   0.516   4.922   7.243 -0.4634  0.1022 -0.2797
   77SLPC   H2Y 6972   0.419   5.059   7.304  1.0715  1.1273  1.6791
   77SLPC   C23 6973   1.011   5.306   7.301 -0.7201 -1.0193  0.1198
   77SLPC   H3R 6974   0.944   5.232   7.350  1.5887 -0.5170  4.2144
   77SLPC   H3S 6975   0.981   5.409   7.327  0.2898 -0.2939 -1.5188
   77SLPC   C24 6976   1.151   5.286   7.364  0.2505  0.3905 -0.4066
   77SLPC   H4R 6977   1.221   5.350   7.306  1.0365  0.2809  0.4096
   77SLPC   H4S 6978   1.192   5.185   7.346  0.1009  0.3181 -0.3427
   77SLPC   C25 6979   1.160   5.317   7.518  0.0233 -0.4364 -0.2731
   77SLPC   H5R 6980   1.267   5.331   7.541  0.3303 -2.7522 -0.2245
   77SLPC   H5S 6981   1.137   5.218   7.562  0.6449 -1.2961 -1.8290
   77SLPC   C26 6982   1.088   5.431   7.590  0.1858  0.0214 -0.5312
   77SLPC   H6R 6983   1.085   5.524   7.530  3.4956  0.7481  0.3808
   77SLPC   H6S 6984   1.140   5.452   7.685 -0.5939 -2.3351  0.4521
   77SLPC   C27 6985   0.947   5.398   7.626  0.9112 -0.2100  0.1267
   77SLPC   H7R 6986   0.930   5.301   7.679 -0.3929 -0.2246 -0.2963
   77SLPC   H7S 6987   0.884   5.412   7.536  0.1554 -1.7375  0.3981
   77SLPC   C28 6988   0.889   5.514   7.700  0.2968 -0.5171 -0.6852
   77SLPC   H8R 6989   0.858   5.599   7.636 -0.4521  1.6575  2.4125
   77SLPC   H8S 6990   0.959   5.560   7.773  1.7311  0.0568 -2.3914
   77SLPC   C29 6991   0.761   5.471   7.767  0.1132 -0.7127  0.3059
   77SLPC   H9R 6992   0.715   5.387   7.711 -0.0679 -0.6937  0.4238
   77SLPC  C210 6993   0.698   5.513   7.884  0.0093 -0.1128 -0.4804
   77SLPC  H10R 6994   0.607   5.465   7.921  1.0456  0.0021  2.4425
   77SLPC  C211 6995   0.754   5.628   7.969 -0.1097  0.4416  0.5263
   77SLPC  H11R 6996   0.800   5.700   7.898  0.9459 -2.0120 -1.3752
   77SLPC  H11S 6997   0.840   5.584   8.023  2.3806  3.0532 -1.1212
   77SLPC  C212 6998   0.643   5.692   8.047  0.7364 -0.3023 -0.2683
   77SLPC  H12R 6999   0.542   5.649   8.042  0.8537 -0.4502 -1.5212
   77SLPC  C213 7000   0.645   5.794   8.125  0.5169 -0.0720  0.8447
   77SLPC  H13R 7001   0.547   5.819   8.169  0.2453  0.0731  0.1659
   77SLPC  C214 7002   0.750   5.891   8.154  0.1285 -0.4158 -0.4717
   77SLPC  H14R 7003   0.712   5.987   8.115 -2.0411 -0.6371  1.0081
   77SLPC  H14S 7004   0.849   5.855   8.119  0.6699  1.0888 -0.5103
   77SLPC  C215 7005   0.757   5.917   8.306 -0.0402  0.1896  0.4844
   77SLPC  H15R 7006   0.775   5.815   8.346 -1.0368  0.1627  0.8832
   77SLPC  H15S 7007   0.658   5.946   8.348  0.3969 -0.8983  2.3060
   77SLPC  C216 7008   0.855   6.034   8.341 -0.1887  0.1656 -0.1791
   77SLPC  H16R 7009   0.824   6.128   8.290  2.2724  0.7075 -0.7318
   77SLPC  H16S 7010   0.953   6.010   8.296 -0.5701 -1.9572  0.0888
   77SLPC  C217 7011   0.876   6.052   8.493  0.2235  0.1761 -0.5788
   77SLPC  H17R 7012   0.943   6.140   8.487  0.3623  0.1013 -0.1422
   77SLPC  H17S 7013   0.935   5.965   8.530 -0.9943 -0.9360 -1.1985
   77SLPC  C218 7014   0.749   6.075   8.581  0.5196  0.0515 -0.0034
   77SLPC  H18R 7015   0.694   6.169   8.561  2.0686  1.0886  0.5447
   77SLPC  H18S 7016   0.773   6.083   8.689  0.0415 -1.3089  0.2158
   77SLPC  H18T 7017   0.681   5.987   8.573 -0.7652  1.1514 -1.4154
   77SLPC   C33 7018   0.615   5.071   7.388  0.8698 -0.6803 -0.0870
   77SLPC   H3X 7019   0.616   5.181   7.400  0.0862 -0.8467  1.6147
   77SLPC   H3Y 7020   0.713   5.039   7.345  1.2739  3.3826 -2.4108
   77SLPC   C34 7021   0.583   5.013   7.527 -0.1932 -0.5714  0.2077
   77SLPC   H4X 7022   0.617   4.907   7.528 -1.8424 -1.1278 -0.1515
   77SLPC   H4Y 7023   0.478   5.041   7.550 -0.1042  0.4973 -0.6285
   77SLPC   C35 7024   0.657   5.077   7.642  0.2398 -0.1617  0.6223
   77SLPC   H5X 7025   0.675   5.184   7.616  2.0381  0.0265  2.5422
   77SLPC   H5Y 7026   0.760   5.040   7.625 -0.0153 -0.2049 -0.8825
   77SLPC   C36 7027   0.598   5.037   7.770  0.6149  0.8766 -0.0212
   77SLPC   H6X 7028   0.570   4.929   7.776  1.4176  0.7117  1.0508
   77SLPC   H6Y 7029   0.501   5.089   7.782 -0.0093 -0.2488 -0.1024
   77SLPC   C37 7030   0.697   5.081   7.884  0.5988 -0.1489 -0.1511
   77SLPC   H7X 7031   0.721   5.186   7.856 -2.4626  0.2692 -1.3572
   77SLPC   H7Y 7032   0.794   5.027   7.876  1.2638  0.3911  3.3845
   77SLPC   C38 7033   0.645   5.060   8.026  0.3025 -0.2300  0.0785
   77SLPC   H8X 7034   0.548   5.111   8.048 -0.7467 -2.0072 -0.3697
   77SLPC   H8Y 7035   0.727   5.106   8.085 -0.8293  0.2842  1.2910
   77SLPC   C39 7036   0.620   4.918   8.078  0.9460  0.6635  0.0258
   77SLPC   H9X 7037   0.694   4.848   8.033 -1.7702  0.0466 -3.7030
   77SLPC   H9Y 7038   0.521   4.874   8.052  0.6476  0.9806  0.6008
   77SLPC  C310 7039   0.648   4.902   8.231  0.7190 -0.0592  0.7716
   77SLPC  H10X 7040   0.623   4.796   8.251 -1.0854  0.2530  0.3490
   77SLPC  H10Y 7041   0.583   4.971   8.290 -0.1700  0.8577 -1.2180
   77SLPC  C311 7042   0.794   4.906   8.263  0.0702 -0.5983  0.4616
   77SLPC  H11X 7043   0.844   5.003   8.244 -0.2524 -0.3154  1.0555
   77SLPC  H11Y 7044   0.850   4.834   8.199  1.3473 -0.9847  2.0129
   77SLPC  C312 7045   0.822   4.860   8.401 -0.6062  0.5459  0.5552
   77SLPC  H12X 7046   0.790   4.753   8.403  0.4835  0.2253  1.4817
   77SLPC  H12Y 7047   0.761   4.910   8.478  2.4495  1.6475  2.3653
   77SLPC  C313 7048   0.972   4.870   8.429 -0.3094 -0.6700 -0.9561
   77SLPC  H13X 7049   0.988   4.979   8.435 -2.6256 -0.3701  0.1967
   77SLPC  H13Y 7050   1.020   4.822   8.341 -0.8563  1.1184 -2.2532
   77SLPC  C314 7051   1.015   4.800   8.557  0.3440  0.1534 -0.2618
   77SLPC  H14X 7052   1.022   4.694   8.526  1.3823  0.1959 -0.1914
   77SLPC  H14Y 7053   0.944   4.795   8.642  2.2441  0.0286  1.3556
   77SLPC  C315 7054   1.162   4.841   8.601 -0.0827 -0.2962 -0.0882
   77SLPC  H15X 7055   1.184   4.801   8.702 -2.8627 -0.0991  0.6295
   77SLPC  H15Y 7056   1.160   4.952   8.600 -1.7119 -0.3004  1.0974
   77SLPC  C316 7057   1.270   4.789   8.498 -0.0695 -0.3482  0.4027
   77SLPC  H16X 7058   1.247   4.689   8.455  3.1515 -1.3908  0.9679
   77SLPC  H16Y 7059   1.365   4.780   8.555  0.1858 -0.8680 -0.1059
   77SLPC  C317 7060   1.291   4.885   8.382 -0.1756  0.1016 -1.0933
   77SLPC  H17X 7061   1.393   4.930   8.387 -0.8353  1.7143 -1.6261
   77SLPC  H17Y 7062   1.224   4.974   8.386 -2.1041 -1.4326  3.3856
   77SLPC  C318 7063   1.263   4.823   8.245  0.1990  0.0139 -0.6297
   77SLPC  H18X 7064   1.320   4.730   8.223  0.9280  0.3764 -0.2911
   77SLPC  H18Y 7065   1.293   4.901   8.172 -0.9550  2.0060  0.9548
   77SLPC  H18Z 7066   1.158   4.794   8.222  0.3622  0.4756 -1.9836
   78SLPC     N 7067   2.795   0.291   6.330 -0.5768 -0.5317  0.1949
   78SLPC   C13 7068   2.856   0.389   6.425 -0.3184 -0.2829 -0.0717
   78SLPC  H13A 7069   2.850   0.376   6.532  1.6241  0.7063  0.1829
   78SLPC  H13B 7070   2.958   0.400   6.392  0.3116  0.6987  2.1175
   78SLPC  H13C 7071   2.810   0.486   6.411 -0.7605 -0.6113 -0.9878
   78SLPC   C14 7072   2.838   0.316   6.192 -0.2704  0.2454 -0.1898
   78SLPC  H14A 7073   2.803   0.246   6.117 -1.4447  1.2171 -0.5747
   78SLPC  H14B 7074   2.815   0.417   6.161  2.3884  1.3087  1.1143
   78SLPC  H14C 7075   2.945   0.309   6.181 -0.4708 -3.1452 -0.5246
   78SLPC   C15 7076   2.652   0.286   6.333  0.0393  0.1761 -0.3087
   78SLPC  H15A 7077   2.619   0.380   6.291 -1.8594  0.6810  2.2475
   78SLPC  H15B 7078   2.611   0.208   6.270  1.7258 -0.9204 -0.0941
   78SLPC  H15C 7079   2.621   0.267   6.434  0.3939  0.3146 -0.1719
   78SLPC   C12 7080   2.847   0.155   6.373  0.4245 -0.0346  0.5110
   78SLPC  H12A 7081   2.818   0.140   6.475  0.1084  1.7457  0.6998
   78SLPC  H12B 7082   2.955   0.155   6.371  0.4913  4.0264 -0.9135
   78SLPC   C11 7083   2.782   0.033   6.294  0.1905 -0.0927 -0.3139
   78SLPC  H11A 7084   2.796   0.054   6.186 -0.5992  1.8161 -0.0651
   78SLPC  H11B 7085   2.675   0.028   6.322  0.2144 -1.5872 -0.4247
   78SLPC     P 7086   3.002  -0.110   6.303 -0.4938  0.1280 -0.1414
   78SLPC   O13 7087   3.005  -0.175   6.173  0.1771 -0.7202 -0.4576
   78SLPC   O14 7088   3.083   0.010   6.316  0.2452 -0.0888 -0.3503
   78SLPC   O12 7089   2.849  -0.081   6.347 -0.0544 -0.4751  0.2991
   78SLPC   O11 7090   3.036  -0.210   6.427 -0.5653  0.7221  0.4820
   78SLPC    C1 7091   2.960  -0.339   6.423  0.0686 -0.8005  0.1486
   78SLPC    HA 7092   2.857  -0.337   6.383  0.3835 -1.0939 -0.6729
   78SLPC    HB 7093   3.005  -0.414   6.355 -1.6263 -0.3137 -1.5453
   78SLPC    C2 7094   2.955  -0.396   6.566  0.8983 -0.4302 -0.1826
   78SLPC    HS 7095   2.872  -0.339   6.613  0.9437 -1.2462  0.9044
   78SLPC   O21 7096   3.082  -0.383   6.639 -0.1700 -0.4042 -0.0895
   78SLPC   C21 7097   3.068  -0.334   6.760  0.4740  0.0845 -0.3615
   78SLPC   O22 7098   2.966  -0.325   6.827  0.6625 -0.1117  0.5999
   78SLPC   C22 7099   3.206  -0.291   6.815 -0.5069  0.0032  0.3914
   78SLPC   H2R 7100   3.282  -0.360   6.773 -0.0423 -0.0718  1.3398
   78SLPC   H2S 7101   3.222  -0.191   6.772 -2.7436  1.1203  2.0273
   78SLPC    C3 7102   2.905  -0.542   6.554  1.0754  0.1646 -0.0650
   78SLPC    HX 7103   2.999  -0.600   6.540 -0.2299 -2.4644  1.5604
   78SLPC    HY 7104   2.841  -0.551   6.463  2.2917 -1.5122 -0.7810
   78SLPC   O31 7105   2.820  -0.591   6.667  0.8178  0.4008 -0.6804
   78SLPC   C31 7106   2.879  -0.655   6.767 -0.2705  0.3139  0.4703
   78SLPC   O32 7107   3.000  -0.678   6.775  0.5152 -0.5375  0.3841
   78SLPC   C32 7108   2.771  -0.690   6.871 -0.4792 -0.6490 -0.0207
   78SLPC   H2X 7109   2.788  -0.799   6.889 -2.0795 -0.6391  1.5927
   78SLPC   H2Y 7110   2.670  -0.681   6.826  0.3963 -2.1367 -2.3997
   78SLPC   C23 7111   3.221  -0.283   6.970  0.1693 -0.6967 -0.4399
   78SLPC   H3R 7112   3.127  -0.248   7.017 -0.1743 -1.7174 -0.3679
   78SLPC   H3S 7113   3.282  -0.191   6.984  0.8610 -1.5003  1.9305
   78SLPC   C24 7114   3.262  -0.404   7.051  0.2248 -1.0458  0.4614
   78SLPC   H4R 7115   3.187  -0.484   7.038 -2.1158  1.2044 -0.3896
   78SLPC   H4S 7116   3.256  -0.380   7.159 -0.6577  0.2123  0.1546
   78SLPC   C25 7117   3.398  -0.448   7.011 -0.5171  0.2095 -0.3572
   78SLPC   H5R 7118   3.458  -0.355   7.002 -0.9132  0.5699  0.5865
   78SLPC   H5S 7119   3.404  -0.491   6.909  0.1635  0.3063 -0.3541
   78SLPC   C26 7120   3.457  -0.541   7.117  0.9492  0.3560 -0.2826
   78SLPC   H6R 7121   3.384  -0.612   7.160  0.3823  2.0214  1.6059
   78SLPC   H6S 7122   3.483  -0.482   7.208  0.6533 -0.0227  0.0491
   78SLPC   C27 7123   3.583  -0.614   7.062 -0.1567 -0.6113  0.1993
   78SLPC   H7R 7124   3.564  -0.696   6.989 -0.2980 -1.0478  0.7210
   78SLPC   H7S 7125   3.627  -0.667   7.150  3.4428  2.6612  0.4874
   78SLPC   C28 7126   3.683  -0.504   7.010  0.6870  0.1369 -0.3745
   78SLPC   H8R 7127   3.713  -0.450   7.102 -0.4039 -0.0127  0.0748
   78SLPC   H8S 7128   3.647  -0.430   6.936 -0.4292  1.8093  1.7820
   78SLPC   C29 7129   3.793  -0.581   6.946 -0.6458 -0.0383 -0.3089
   78SLPC   H9R 7130   3.758  -0.643   6.863  2.7601 -2.4284 -0.0608
   78SLPC  C210 7131   3.925  -0.583   6.982  0.1669 -0.0743 -0.3532
   78SLPC  H10R 7132   3.993  -0.660   6.942 -0.7024 -1.2297  0.3596
   78SLPC  C211 7133   3.991  -0.503   7.089 -0.5321  0.1185 -0.4206
   78SLPC  H11R 7134   3.936  -0.407   7.099  1.4546  1.1283  1.0898
   78SLPC  H11S 7135   4.094  -0.485   7.050 -0.0854 -0.0943  0.6543
   78SLPC  C212 7136   3.991  -0.561   7.232 -0.1206 -0.1568 -0.0722
   78SLPC  H12R 7137   4.014  -0.669   7.235  1.3232  0.1730  1.5570
   78SLPC  C213 7138   3.962  -0.514   7.352 -0.0702  0.2968 -0.6001
   78SLPC  H13R 7139   3.948  -0.575   7.442 -1.2122 -0.4329 -1.2712
   78SLPC  C214 7140   3.921  -0.367   7.363  0.5457  0.1853  0.0872
   78SLPC  H14R 7141   3.823  -0.363   7.416  1.4233  1.5744  1.6433
   78SLPC  H14S 7142   3.902  -0.320   7.265  0.6451 -3.1057 -1.5667
   78SLPC  C215 7143   4.023  -0.290   7.454  0.6100  0.0646 -0.0393
   78SLPC  H15R 7144   4.124  -0.276   7.410  0.1628  2.0520 -0.4893
   78SLPC  H15S 7145   4.038  -0.346   7.549 -0.1246  0.2049  0.1603
   78SLPC  C216 7146   3.962  -0.155   7.485 -0.5529 -0.3821  0.3878
   78SLPC  H16R 7147   3.864  -0.176   7.533 -1.6021  0.8682 -1.1536
   78SLPC  H16S 7148   3.945  -0.092   7.395 -0.4023 -1.4970 -0.4315
   78SLPC  C217 7149   4.038  -0.081   7.598  0.2657  0.0322  0.1121
   78SLPC  H17R 7150   3.974   0.004   7.631 -0.0798  0.0148 -0.5026
   78SLPC  H17S 7151   4.131  -0.048   7.546  1.7791 -1.2179  1.9621
   78SLPC  C218 7152   4.078  -0.167   7.719  0.7277  0.5407  0.4324
   78SLPC  H18R 7153   4.144  -0.104   7.782  1.4547  0.8086 -0.5808
   78SLPC  H18S 7154   4.125  -0.263   7.687  0.5514  0.7026 -0.3268
   78SLPC  H18T 7155   3.989  -0.198   7.778  1.0073 -1.8637 -0.3254
   78SLPC   C33 7156   2.775  -0.606   6.994 -0.7220 -0.7059 -0.1422
   78SLPC   H3X 7157   2.676  -0.598   7.043 -0.9398  1.1046 -0.8417
   78SLPC   H3Y 7158   2.808  -0.505   6.961 -0.2301  0.0672  2.5607
   78SLPC   C34 7159   2.864  -0.670   7.099  0.8446  0.0175 -0.0111
   78SLPC   H4X 7160   2.969  -0.677   7.062  1.1362  0.4883  0.7249
   78SLPC   H4Y 7161   2.834  -0.776   7.114 -1.1634  0.5789  0.0823
   78SLPC   C35 7162   2.866  -0.587   7.226  0.1214  0.8821 -0.6223
   78SLPC   H5X 7163   2.767  -0.563   7.270  0.2465  0.5805 -0.1763
   78SLPC   H5Y 7164   2.908  -0.491   7.188  0.3606  1.0532  0.0632
   78SLPC   C36 7165   2.950  -0.657   7.331 -0.0828  0.7770  0.1444
   78SLPC   H6X 7166   3.039  -0.684   7.270 -0.3339 -0.0402  0.1399
   78SLPC   H6Y 7167   2.897  -0.749   7.362  2.1472 -0.5572  0.1174
   78SLPC   C37 7168   2.970  -0.568   7.460 -0.1821  0.2908  0.9576
   78SLPC   H7X 7169   2.869  -0.547   7.501  0.5647  0.1135  2.9414
   78SLPC   H7Y 7170   3.025  -0.476   7.433 -0.5019  0.4931  1.0059
   78SLPC   C38 7171   3.068  -0.643   7.554 -0.0745 -0.3703  0.1682
   78SLPC   H8X 7172   3.168  -0.659   7.509 -0.9097 -5.2384 -0.2400
   78SLPC   H8Y 7173   3.033  -0.745   7.583 -0.9593  0.3021  1.5192
   78SLPC   C39 7174   3.096  -0.568   7.680  0.4193  0.4134  0.6274
   78SLPC   H9X 7175   3.008  -0.505   7.704  0.7322  0.4395  1.7562
   78SLPC   H9Y 7176   3.184  -0.501   7.670 -0.3347  1.2258 -0.7275
   78SLPC  C310 7177   3.117  -0.673   7.792  0.1419 -0.1559  0.0995
   78SLPC  H10X 7178   3.194  -0.741   7.751  0.6033  0.3954  0.0513
   78SLPC  H10Y 7179   3.025  -0.734   7.808  0.4760 -0.6540  0.1526
   78SLPC  C311 7180   3.176  -0.622   7.925 -0.5292 -0.0842 -0.1509
   78SLPC  H11X 7181   3.099  -0.577   7.991 -0.1004 -0.1024  0.3722
   78SLPC  H11Y 7182   3.239  -0.532   7.905  0.6937 -1.2036 -1.3981
   78SLPC  C312 7183   3.254  -0.731   8.000 -0.5877  0.0128 -0.2017
   78SLPC  H12X 7184   3.342  -0.771   7.946  0.6376  2.0854  0.2315
   78SLPC  H12Y 7185   3.176  -0.808   8.023 -2.6649  1.9163 -0.6852
   78SLPC  C313 7186   3.308  -0.685   8.134 -0.9290  0.3163 -0.3902
   78SLPC  H13X 7187   3.231  -0.670   8.213  1.9733  1.0671  2.3765
   78SLPC  H13Y 7188   3.344  -0.584   8.105 -0.8966 -0.1999 -2.2177
   78SLPC  C314 7189   3.425  -0.771   8.195  0.4166 -0.6122  0.3105
   78SLPC  H14X 7190   3.505  -0.784   8.119  1.1463 -0.4785  1.0478
   78SLPC  H14Y 7191   3.395  -0.876   8.215 -0.5723 -0.3348  0.3177
   78SLPC  C315 7192   3.486  -0.707   8.314  0.4633 -0.4780  0.2067
   78SLPC  H15X 7193   3.404  -0.670   8.379 -0.2500  3.0011 -2.5158
   78SLPC  H15Y 7194   3.553  -0.621   8.294 -0.6629  0.9604  2.4479
   78SLPC  C316 7195   3.585  -0.804   8.383  0.2509 -0.0180 -0.0605
   78SLPC  H16X 7196   3.666  -0.827   8.311 -1.1246 -3.3515 -0.6429
   78SLPC  H16Y 7197   3.538  -0.904   8.400 -0.1736  0.2765  0.5038
   78SLPC  C317 7198   3.618  -0.761   8.531  0.3734 -0.5495 -0.1315
   78SLPC  H17X 7199   3.534  -0.723   8.592  0.4591  1.7420 -1.3884
   78SLPC  H17Y 7200   3.692  -0.681   8.512 -1.6586  1.0197 -1.6996
   78SLPC  C318 7201   3.684  -0.867   8.626  0.4742 -0.4910 -0.5890
   78SLPC  H18X 7202   3.728  -0.801   8.703  2.7868  0.1773 -2.4314
   78SLPC  H18Y 7203   3.765  -0.928   8.580  2.9109  1.4303  0.9937
   78SLPC  H18Z 7204   3.607  -0.938   8.664 -0.4056 -0.0540 -1.5212
   79SLPC     N 7205   0.415   1.803   5.968  0.3732 -0.3043 -0.2040
   79SLPC   C13 7206   0.270   1.785   5.943 -0.1669  0.3999 -0.4374
   79SLPC  H13A 7207   0.223   1.860   5.880  1.4494  1.3266 -0.5577
   79SLPC  H13B 7208   0.248   1.694   5.889  0.0954 -0.7435  1.3392
   79SLPC  H13C 7209   0.217   1.781   6.037  2.7402  0.9788  1.2625
   79SLPC   C14 7210   0.487   1.804   5.838 -0.1435 -0.2892 -0.5041
   79SLPC  H14A 7211   0.593   1.811   5.853  0.0231  0.0899 -1.7886
   79SLPC  H14B 7212   0.468   1.710   5.787 -0.4701 -1.1164  1.0876
   79SLPC  H14C 7213   0.457   1.882   5.770 -0.1977  0.9543  0.9275
   79SLPC   C15 7214   0.474   1.693   6.049 -0.4793 -0.2117 -0.1545
   79SLPC  H15A 7215   0.474   1.601   5.993 -2.5430 -0.0672 -0.4321
   79SLPC  H15B 7216   0.577   1.717   6.073 -0.8054  2.4703 -1.2608
   79SLPC  H15C 7217   0.407   1.664   6.128 -0.0778  0.3203  0.3839
   79SLPC   C12 7218   0.418   1.933   6.050  0.2652  0.3405  0.5973
   79SLPC  H12A 7219   0.398   2.015   5.983  3.9152  0.3305 -0.6302
   79SLPC  H12B 7220   0.513   1.958   6.095 -0.0557  0.5021  1.1996
   79SLPC   C11 7221   0.329   1.949   6.192  0.4201  0.3291 -0.1499
   79SLPC  H11A 7222   0.226   1.913   6.171  0.8264 -0.7811 -0.2542
   79SLPC  H11B 7223   0.312   2.054   6.227 -0.6588 -0.2755  1.2069
   79SLPC     P 7224   0.481   1.921   6.402 -0.3437 -0.7187 -0.5411
   79SLPC   O13 7225   0.570   1.805   6.448  0.3293 -0.8591 -0.1085
   79SLPC   O14 7226   0.547   2.043   6.351  0.1333 -0.6015 -0.3547
   79SLPC   O12 7227   0.389   1.864   6.292 -0.2031  0.3536 -0.5160
   79SLPC   O11 7228   0.371   1.961   6.510 -0.0403 -0.6633  0.1596
   79SLPC    C1 7229   0.274   1.857   6.545 -0.1490 -0.0789 -0.1714
   79SLPC    HA 7230   0.166   1.877   6.526 -0.6590 -2.8751 -0.4674
   79SLPC    HB 7231   0.297   1.754   6.512 -1.8788 -0.6310  0.2512
   79SLPC    C2 7232   0.270   1.835   6.701 -0.5115  0.6065  0.2129
   79SLPC    HS 7233   0.249   1.936   6.742  0.9780  1.2019 -0.4948
   79SLPC   O21 7234   0.385   1.763   6.743  0.0482 -0.2087  0.2327
   79SLPC   C21 7235   0.479   1.830   6.794  0.2511 -0.4750  0.0053
   79SLPC   O22 7236   0.482   1.946   6.828  0.2259  0.0108 -0.5416
   79SLPC   C22 7237   0.601   1.739   6.801  0.4980  0.2498 -0.3820
   79SLPC   H2R 7238   0.562   1.635   6.802  2.1422 -0.3862 -1.6678
   79SLPC   H2S 7239   0.663   1.756   6.711 -0.1380  3.2377 -0.3234
   79SLPC    C3 7240   0.163   1.733   6.745  0.5070  0.1292 -0.1216
   79SLPC    HX 7241   0.186   1.633   6.701  0.0825  1.0911 -2.5962
   79SLPC    HY 7242   0.072   1.775   6.698  0.3466  1.7722  1.6182
   79SLPC   O31 7243   0.152   1.731   6.888  0.0697 -0.0444 -0.0379
   79SLPC   C31 7244   0.166   1.617   6.953  0.1160 -0.0695  0.1137
   79SLPC   O32 7245   0.173   1.508   6.903  0.4741  0.8653  1.4511
   79SLPC   C32 7246   0.179   1.637   7.107 -0.0390 -0.3627  0.4522
   79SLPC   H2X 7247   0.192   1.745   7.127  0.5102 -0.2048 -0.7014
   79SLPC   H2Y 7248   0.263   1.577   7.147 -1.4316 -1.6880  1.4764
   79SLPC   C23 7249   0.697   1.754   6.920 -0.3423  0.0237 -0.5462
   79SLPC   H3R 7250   0.724   1.861   6.923 -1.0518  0.1679  1.3616
   79SLPC   H3S 7251   0.791   1.697   6.906 -1.5113 -2.2616  0.5975
   79SLPC   C24 7252   0.635   1.705   7.058  0.1841  0.4177 -0.1722
   79SLPC   H4R 7253   0.696   1.617   7.087 -2.5160 -1.5582 -0.2652
   79SLPC   H4S 7254   0.538   1.655   7.035  0.8287 -0.2435 -1.5045
   79SLPC   C25 7255   0.634   1.807   7.170  0.1282  0.6167 -0.3030
   79SLPC   H5R 7256   0.601   1.907   7.134  0.0507  0.9654  0.7142
   79SLPC   H5S 7257   0.739   1.818   7.204 -0.2369  2.8126  0.1748
   79SLPC   C26 7258   0.549   1.759   7.288  0.0347 -0.5303  0.0440
   79SLPC   H6R 7259   0.441   1.761   7.260 -0.4648 -0.7859  1.8680
   79SLPC   H6S 7260   0.566   1.821   7.379 -0.9248 -0.6684  0.3325
   79SLPC   C27 7261   0.563   1.610   7.338  1.0756 -0.2251  0.1898
   79SLPC   H7R 7262   0.524   1.539   7.262 -0.5035  2.6039 -1.7618
   79SLPC   H7S 7263   0.496   1.610   7.426  2.5395  3.1876  1.4145
   79SLPC   C28 7264   0.703   1.575   7.388 -0.0714 -0.1104 -0.0965
   79SLPC   H8R 7265   0.719   1.633   7.481  1.6402  0.6508 -0.8606
   79SLPC   H8S 7266   0.773   1.618   7.314  0.2509 -0.2693  0.1183
   79SLPC   C29 7267   0.708   1.429   7.424 -0.2095  0.4146  0.8139
   79SLPC   H9R 7268   0.722   1.358   7.341  0.7006 -2.0549  3.0092
   79SLPC  C210 7269   0.689   1.375   7.547 -0.3400  0.5031 -0.0238
   79SLPC  H10R 7270   0.671   1.267   7.554  0.3036  0.5707  3.8778
   79SLPC  C211 7271   0.661   1.454   7.671 -0.6958 -0.9198  0.7184
   79SLPC  H11R 7272   0.600   1.542   7.642 -0.7299 -0.8213  1.0873
   79SLPC  H11S 7273   0.758   1.501   7.698  0.6183 -2.7760 -0.6378
   79SLPC  C212 7274   0.601   1.378   7.782 -0.0509 -0.2170  0.3823
   79SLPC  H12R 7275   0.498   1.344   7.764 -0.1509  1.5034 -2.7472
   79SLPC  C213 7276   0.656   1.335   7.901  0.9360  0.8515  0.3381
   79SLPC  H13R 7277   0.587   1.291   7.974  1.0072 -2.8569 -1.7201
   79SLPC  C214 7278   0.804   1.363   7.928  0.4189 -0.4142 -0.2030
   79SLPC  H14R 7279   0.855   1.352   7.830 -3.0131 -1.3260 -1.9827
   79SLPC  H14S 7280   0.861   1.286   7.986  1.8915 -0.2642 -1.4388
   79SLPC  C215 7281   0.854   1.491   7.984  0.4783 -0.7122 -0.0427
   79SLPC  H15R 7282   0.843   1.585   7.926  0.1496 -0.1580  0.8996
   79SLPC  H15S 7283   0.963   1.479   8.000  0.2692 -0.7318  1.4207
   79SLPC  C216 7284   0.787   1.518   8.128  0.2363  0.3814 -0.2353
   79SLPC  H16R 7285   0.795   1.433   8.198 -0.4259 -0.0305 -0.6580
   79SLPC  H16S 7286   0.678   1.532   8.115  0.4862  1.8510 -0.9791
   79SLPC  C217 7287   0.840   1.638   8.207  0.5540 -0.7032  0.3398
   79SLPC  H17R 7288   0.785   1.733   8.187 -0.7254 -1.3163  0.8823
   79SLPC  H17S 7289   0.946   1.662   8.186 -0.3312  1.4955 -1.8023
   79SLPC  C218 7290   0.839   1.612   8.356  0.2265  0.3178 -0.1595
   79SLPC  H18R 7291   0.896   1.696   8.401 -1.2196  1.1949  0.0536
   79SLPC  H18S 7292   0.890   1.519   8.390  1.0184  1.0255  0.5915
   79SLPC  H18T 7293   0.735   1.614   8.395  0.6871 -0.9991  1.2007
   79SLPC   C33 7294   0.062   1.593   7.197  0.0154 -0.0239  0.0683
   79SLPC   H3X 7295   0.081   1.484   7.210 -2.8707 -0.4588  0.8899
   79SLPC   H3Y 7296  -0.032   1.616   7.143  0.3556 -0.6103 -0.7873
   79SLPC   C34 7297   0.061   1.658   7.336  0.1154 -0.7106  0.7196
   79SLPC   H4X 7298  -0.028   1.623   7.392  0.2576  0.7636  1.9064
   79SLPC   H4Y 7299   0.045   1.767   7.321 -1.4010 -1.1293 -1.0331
   79SLPC   C35 7300   0.185   1.640   7.424 -1.3044 -0.0067 -0.6209
   79SLPC   H5X 7301   0.242   1.735   7.429 -2.0432  0.3939  0.2226
   79SLPC   H5Y 7302   0.258   1.565   7.386 -0.9778 -0.9920  1.8534
   79SLPC   C36 7303   0.141   1.602   7.564  0.7231  0.5045  0.3711
   79SLPC   H6X 7304   0.109   1.495   7.558  1.6644  0.3188 -2.0063
   79SLPC   H6Y 7305   0.047   1.660   7.576  0.1820 -0.3820  0.5107
   79SLPC   C37 7306   0.234   1.633   7.674 -0.3064  0.7531 -0.4604
   79SLPC   H7X 7307   0.235   1.744   7.682 -0.6069  0.7533 -0.4100
   79SLPC   H7Y 7308   0.338   1.598   7.656 -1.3226 -2.5440 -0.2270
   79SLPC   C38 7309   0.189   1.581   7.815  0.7692 -0.3238 -0.0377
   79SLPC   H8X 7310   0.162   1.473   7.811 -1.9589  0.2837  0.8638
   79SLPC   H8Y 7311   0.096   1.633   7.846  1.5068 -0.0775  1.8186
   79SLPC   C39 7312   0.291   1.602   7.927 -0.1012  0.0152 -0.0703
   79SLPC   H9X 7313   0.330   1.706   7.929 -0.5181  0.1718  0.0615
   79SLPC   H9Y 7314   0.374   1.528   7.923  0.9565  1.0893  1.2446
   79SLPC  C310 7315   0.231   1.583   8.069  0.1014 -0.2547  0.5728
   79SLPC  H10X 7316   0.171   1.489   8.070  1.2706 -1.0217 -0.5393
   79SLPC  H10Y 7317   0.166   1.667   8.102  0.3925 -0.1310  0.8355
   79SLPC  C311 7318   0.341   1.598   8.171  0.0598  0.2538 -0.6533
   79SLPC  H11X 7319   0.402   1.690   8.163  1.9793 -1.0315 -1.2832
   79SLPC  H11Y 7320   0.413   1.517   8.143 -0.0064  0.3791 -1.1789
   79SLPC  C312 7321   0.282   1.579   8.307 -0.2950 -0.2749  0.1741
   79SLPC  H12X 7322   0.195   1.512   8.293  0.5012 -1.0597 -1.0788
   79SLPC  H12Y 7323   0.246   1.682   8.329  0.5409  0.3943 -1.4830
   79SLPC  C313 7324   0.381   1.530   8.419 -0.2794 -0.8115 -0.1465
   79SLPC  H13X 7325   0.320   1.515   8.510  0.0602 -0.5173  0.1313
   79SLPC  H13Y 7326   0.443   1.616   8.453 -3.1078  1.9558 -1.6185
   79SLPC  C314 7327   0.476   1.415   8.395  0.4248 -0.0846 -0.1163
   79SLPC  H14X 7328   0.532   1.439   8.302  0.7139 -0.7076 -0.1006
   79SLPC  H14Y 7329   0.420   1.321   8.376  0.8977 -0.6563  1.2812
   79SLPC  C315 7330   0.573   1.378   8.503  0.5853 -0.3135 -0.8135
   79SLPC  H15X 7331   0.631   1.472   8.518 -0.5244  0.2527 -0.0310
   79SLPC  H15Y 7332   0.639   1.296   8.467  1.1863 -1.1755  2.1761
   79SLPC  C316 7333   0.499   1.330   8.628  0.1102 -0.3095  0.0085
   79SLPC  H16X 7334   0.447   1.234   8.604 -2.1321  0.8553  0.0905
   79SLPC  H16Y 7335   0.422   1.403   8.659  0.4084  0.3938 -0.8822
   79SLPC  C317 7336   0.581   1.323   8.756 -0.5089  0.2940  0.1748
   79SLPC  H17X 7337   0.639   1.418   8.759 -1.7795  1.0808  0.2920
   79SLPC  H17Y 7338   0.653   1.242   8.737  0.6570  1.3596 -0.0112
   79SLPC  C318 7339   0.506   1.294   8.889 -0.2922  0.1147  0.8826
   79SLPC  H18X 7340   0.579   1.269   8.968  0.3183 -1.3411 -0.1196
   79SLPC  H18Y 7341   0.430   1.214   8.872  1.2118 -0.6082 -2.9166
   79SLPC  H18Z 7342   0.460   1.388   8.927 -1.4380  0.4004 -1.1010
   80SLPC     N 7343   1.802   5.971   5.934  0.0992  0.5178 -0.1089
   80SLPC   C13 7344   1.840   6.105   5.877  0.1848 -0.0118 -0.1217
   80SLPC  H13A 7345   1.893   6.162   5.951 -1.0031  1.1847 -0.1655
   80SLPC  H13B 7346   1.893   6.099   5.783 -1.4970 -0.8180 -1.0470
   80SLPC  H13C 7347   1.752   6.163   5.854 -0.0547  0.0278  0.8939
   80SLPC   C14 7348   1.934   5.901   5.956  0.4199  0.9479  0.4659
   80SLPC  H14A 7349   1.913   5.827   6.031 -1.3790  1.4328  0.4572
   80SLPC  H14B 7350   1.957   5.840   5.870 -0.3475  1.0009  0.2199
   80SLPC  H14C 7351   2.015   5.967   5.986  0.9878 -0.1519  1.3535
   80SLPC   C15 7352   1.722   5.888   5.840  0.1473 -0.8029 -0.0674
   80SLPC  H15A 7353   1.783   5.868   5.753 -0.0051  2.1258 -0.9095
   80SLPC  H15B 7354   1.702   5.789   5.876 -1.0785 -1.1849 -1.7180
   80SLPC  H15C 7355   1.629   5.935   5.812  1.0033  0.3562 -1.0180
   80SLPC   C12 7356   1.723   5.992   6.069  0.3981 -0.2382  0.3800
   80SLPC  H12A 7357   1.638   6.055   6.049 -0.8879 -2.0465  0.0423
   80SLPC  H12B 7358   1.791   6.051   6.129 -0.1655 -0.0372  0.8112
   80SLPC   C11 7359   1.687   5.871   6.156  0.1555 -0.2438 -0.2627
   80SLPC  H11A 7360   1.653   5.792   6.086 -0.7581 -0.3730  0.3078
   80SLPC  H11B 7361   1.604   5.886   6.229  0.9590 -2.2780  1.0916
   80SLPC     P 7362   1.833   5.722   6.333  0.0486  0.0228  0.4729
   80SLPC   O13 7363   1.819   5.589   6.274 -0.1964 -0.3689 -0.3967
   80SLPC   O14 7364   1.963   5.745   6.396  0.3421  0.2147 -0.4130
   80SLPC   O12 7365   1.810   5.830   6.217  0.0370 -0.1950  0.2558
   80SLPC   O11 7366   1.722   5.751   6.442  0.2744  0.0602 -0.1202
   80SLPC    C1 7367   1.694   5.878   6.502 -0.1099  0.6361 -0.1929
   80SLPC    HA 7368   1.789   5.935   6.512  0.7725 -1.0001  0.8929
   80SLPC    HB 7369   1.608   5.927   6.451 -0.5355  0.8674  0.7344
   80SLPC    C2 7370   1.654   5.847   6.653 -0.0394  0.3777  0.2008
   80SLPC    HS 7371   1.551   5.807   6.648  0.4172 -0.7918 -0.2302
   80SLPC   O21 7372   1.678   5.967   6.722  0.5034 -0.3213 -0.0915
   80SLPC   C21 7373   1.581   6.002   6.799 -0.0063 -0.1732  0.0137
   80SLPC   O22 7374   1.479   5.934   6.820  0.2971  0.0042 -0.4545
   80SLPC   C22 7375   1.613   6.145   6.860  0.7894  0.7189 -0.1585
   80SLPC   H2R 7376   1.673   6.210   6.792  2.2062 -0.8704 -0.4559
   80SLPC   H2S 7377   1.513   6.193   6.871 -0.3292 -1.8021  1.1515
   80SLPC    C3 7378   1.743   5.738   6.718 -0.2719  0.1906 -0.8421
   80SLPC    HX 7379   1.845   5.779   6.699 -0.0677 -0.2310 -0.6731
   80SLPC    HY 7380   1.744   5.643   6.659  0.7713  0.2778 -0.9739
   80SLPC   O31 7381   1.724   5.722   6.860  0.3541  0.2136  0.6021
   80SLPC   C31 7382   1.625   5.640   6.891  1.3071 -0.5694  0.3385
   80SLPC   O32 7383   1.561   5.571   6.812 -0.6981  0.0899 -0.5217
   80SLPC   C32 7384   1.605   5.641   7.045 -0.4204 -0.4893  0.3359
   80SLPC   H2X 7385   1.666   5.723   7.086 -0.4450 -0.3175  0.0289
   80SLPC   H2Y 7386   1.651   5.550   7.090  3.8169  1.5821  0.4113
   80SLPC   C23 7387   1.663   6.126   7.007 -0.4036 -0.2589 -0.4414
   80SLPC   H3R 7388   1.687   6.232   7.030 -3.5850  0.6358 -1.0317
   80SLPC   H3S 7389   1.761   6.075   6.995  0.2470  1.6151 -3.4143
   80SLPC   C24 7390   1.569   6.066   7.106 -0.5036 -0.5040 -0.1892
   80SLPC   H4R 7391   1.530   5.971   7.063  0.4734 -0.9190 -0.1752
   80SLPC   H4S 7392   1.483   6.134   7.125  0.8710  1.3277 -0.4369
   80SLPC   C25 7393   1.645   6.047   7.242 -0.0245  0.1766  0.1623
   80SLPC   H5R 7394   1.697   6.144   7.257 -2.7453  2.1268 -2.4100
   80SLPC   H5S 7395   1.720   5.967   7.228 -0.3637  0.3924 -3.1685
   80SLPC   C26 7396   1.547   6.020   7.354  0.0712  0.2357 -0.1681
   80SLPC   H6R 7397   1.483   5.934   7.324  0.0317  0.9538 -2.2194
   80SLPC   H6S 7398   1.487   6.111   7.371  0.6146  0.4675  0.5486
   80SLPC   C27 7399   1.624   5.973   7.480 -0.1474  0.0266  0.0768
   80SLPC   H7R 7400   1.680   5.880   7.458 -0.3883 -1.3133  4.6355
   80SLPC   H7S 7401   1.553   5.952   7.563 -0.7854  2.1797  0.1029
   80SLPC   C28 7402   1.729   6.075   7.535 -0.0969  0.3155 -0.2349
   80SLPC   H8R 7403   1.680   6.172   7.559 -1.3088 -0.7270  1.7166
   80SLPC   H8S 7404   1.805   6.096   7.457 -0.4311  0.8424 -0.4235
   80SLPC   C29 7405   1.802   6.030   7.660 -0.5009  0.2265 -0.5007
   80SLPC   H9R 7406   1.891   5.968   7.641 -1.3155 -0.7437 -1.1890
   80SLPC  C210 7407   1.754   6.036   7.784  0.0649  0.4959  0.4441
   80SLPC  H10R 7408   1.826   6.015   7.864  0.8410  0.2018 -0.3251
   80SLPC  C211 7409   1.623   6.107   7.826 -0.1838  0.2994 -0.1346
   80SLPC  H11R 7410   1.551   6.089   7.743  0.1466 -1.4722 -0.0581
   80SLPC  H11S 7411   1.648   6.216   7.824  0.5672  0.1198 -0.5516
   80SLPC  C212 7412   1.573   6.058   7.956  0.6790 -0.0262 -0.3530
   80SLPC  H12R 7413   1.477   6.005   7.961  0.8842 -0.4082 -0.4972
   80SLPC  C213 7414   1.639   6.059   8.076  0.8358  0.0725 -0.8349
   80SLPC  H13R 7415   1.593   6.015   8.165  1.1534 -1.3068 -1.3483
   80SLPC  C214 7416   1.773   6.125   8.101 -0.1438 -0.0460  0.4520
   80SLPC  H14R 7417   1.755   6.203   8.178  2.2542  0.0317  0.9499
   80SLPC  H14S 7418   1.805   6.184   8.012  0.4747 -1.0697 -0.0034
   80SLPC  C215 7419   1.885   6.026   8.133  0.8474  0.5011  0.9282
   80SLPC  H15R 7420   1.910   5.962   8.046 -0.6283  1.5181 -0.2667
   80SLPC  H15S 7421   1.847   5.968   8.219  1.0791 -1.9865 -0.5985
   80SLPC  C216 7422   2.008   6.103   8.182 -0.5464 -0.0556  0.3115
   80SLPC  H16R 7423   2.069   6.052   8.260 -3.7458 -0.9790  2.2984
   80SLPC  H16S 7424   1.974   6.200   8.223 -0.3702  0.0100  0.3045
   80SLPC  C217 7425   2.104   6.137   8.068  0.4520  0.8482  0.1529
   80SLPC  H17R 7426   2.044   6.199   7.998 -1.8901 -0.6361  0.7841
   80SLPC  H17S 7427   2.115   6.043   8.009  1.9011  1.1649 -0.0769
   80SLPC  C218 7428   2.234   6.208   8.098  0.4438  0.1600  0.5716
   80SLPC  H18R 7429   2.275   6.249   8.003  1.7514  0.6429  1.3362
   80SLPC  H18S 7430   2.302   6.153   8.166 -0.3208 -2.0482 -0.4114
   80SLPC  H18T 7431   2.216   6.303   8.154 -0.0537  0.1813  0.3820
   80SLPC   C33 7432   1.450   5.638   7.080  0.4421 -0.0791 -0.4519
   80SLPC   H3X 7433   1.394   5.589   6.998 -0.3511  0.2789 -0.1289
   80SLPC   H3Y 7434   1.415   5.743   7.087  2.1897  0.5465 -0.9114
   80SLPC   C34 7435   1.419   5.566   7.213 -0.0453 -0.0237 -0.0888
   80SLPC   H4X 7436   1.454   5.461   7.206  2.4650  0.7945 -0.0735
   80SLPC   H4Y 7437   1.308   5.573   7.225  0.1039  0.3325  1.1220
   80SLPC   C35 7438   1.483   5.626   7.344  0.6074 -0.5721 -0.0210
   80SLPC   H5X 7439   1.454   5.733   7.353  1.9206 -0.2417  0.4073
   80SLPC   H5Y 7440   1.590   5.613   7.315  0.2308 -3.5880 -0.1545
   80SLPC   C36 7441   1.476   5.541   7.471  0.0397  0.3078  0.3521
   80SLPC   H6X 7442   1.530   5.447   7.449  0.8146  1.2991 -2.1748
   80SLPC   H6Y 7443   1.367   5.528   7.487  0.1836  0.5646  1.5934
   80SLPC   C37 7444   1.558   5.614   7.583 -0.3247 -0.5972  0.1335
   80SLPC   H7X 7445   1.526   5.720   7.570 -1.6272 -0.9246  0.5783
   80SLPC   H7Y 7446   1.664   5.602   7.553 -0.5352 -1.7002 -0.1673
   80SLPC   C38 7447   1.537   5.567   7.733  0.2782 -0.4016  0.3170
   80SLPC   H8X 7448   1.557   5.458   7.738  1.2323 -0.1992  1.1758
   80SLPC   H8Y 7449   1.431   5.582   7.763 -0.0385 -3.9060  1.1684
   80SLPC   C39 7450   1.615   5.657   7.836 -0.0734 -0.4702  0.5751
   80SLPC   H9X 7451   1.574   5.759   7.849  0.6246  0.0113 -0.8683
   80SLPC   H9Y 7452   1.715   5.670   7.790  0.1738  0.5240  1.3815
   80SLPC  C310 7453   1.641   5.577   7.964 -0.3130 -0.0726  0.0983
   80SLPC  H10X 7454   1.553   5.512   7.987  0.1708 -1.1342 -0.9693
   80SLPC  H10Y 7455   1.667   5.654   8.040  1.4578 -0.7431  0.1958
   80SLPC  C311 7456   1.758   5.485   7.943  0.0083 -0.0872 -0.5914
   80SLPC  H11X 7457   1.835   5.532   7.878  0.8393 -1.6787 -0.7838
   80SLPC  H11Y 7458   1.727   5.392   7.890  0.8194 -2.1933  2.5077
   80SLPC  C312 7459   1.829   5.444   8.072 -0.1331  0.3454  0.9320
   80SLPC  H12X 7460   1.837   5.333   8.072 -0.0995  0.3478 -0.1455
   80SLPC  H12Y 7461   1.769   5.480   8.158 -0.9348  0.4831  0.3215
   80SLPC  C313 7462   1.971   5.502   8.077  1.0163  0.4190  0.1498
   80SLPC  H13X 7463   1.957   5.611   8.090  0.1033  0.3579 -0.2651
   80SLPC  H13Y 7464   2.035   5.481   7.989  1.1233 -1.8472  0.7441
   80SLPC  C314 7465   2.052   5.433   8.182 -0.3439 -0.0017 -0.1143
   80SLPC  H14X 7466   2.066   5.324   8.164 -1.6105 -0.0873 -0.6314
   80SLPC  H14Y 7467   2.000   5.439   8.280  2.2112  1.4846  1.1995
   80SLPC  C315 7468   2.192   5.488   8.201 -0.0824 -0.4992  0.2519
   80SLPC  H15X 7469   2.261   5.458   8.119  1.0580  2.5742 -0.0037
   80SLPC  H15Y 7470   2.245   5.445   8.289  1.0582 -0.8569 -0.5977
   80SLPC  C316 7471   2.191   5.638   8.218 -0.0808  0.3985  0.0952
   80SLPC  H16X 7472   2.119   5.664   8.299 -1.2539  0.7144 -1.0354
   80SLPC  H16Y 7473   2.147   5.669   8.121 -0.7612 -0.8726 -0.0224
   80SLPC  C317 7474   2.337   5.684   8.239  0.6009  1.0703 -1.0205
   80SLPC  H17X 7475   2.411   5.666   8.157  0.9765 -0.2616 -0.3965
   80SLPC  H17Y 7476   2.378   5.624   8.322  0.2942  0.2821 -1.4353
   80SLPC  C318 7477   2.343   5.829   8.279 -0.4307 -0.2299  0.1229
   80SLPC  H18X 7478   2.314   5.895   8.195 -2.2830 -3.7998 -2.1636
   80SLPC  H18Y 7479   2.445   5.852   8.317  0.2906  0.8384 -2.3854
   80SLPC  H18Z 7480   2.264   5.842   8.356 -1.6244  0.0525 -1.1343
   81SAPS     N 7481   2.259   1.608  11.362 -0.1083 -0.2483  0.1396
   81SAPS   HN1 7482   2.241   1.699  11.316 -0.6595  0.5821  1.9830
   81SAPS   HN2 7483   2.257   1.621  11.465 -1.6827 -0.4123  0.1345
   81SAPS   HN3 7484   2.355   1.573  11.340  0.7631  2.5635 -0.7005
   81SAPS   C12 7485   2.164   1.503  11.306  0.9220  0.1912 -0.1029
   81SAPS  H12A 7486   2.195   1.412  11.356 -1.0708 -0.8029 -0.6318
   81SAPS   C13 7487   2.018   1.540  11.326 -0.0173 -0.7239  0.3958
   81SAPS  O13A 7488   1.994   1.665  11.349 -0.4198 -0.2681 -0.6605
   81SAPS  O13B 7489   1.930   1.464  11.280  0.3214 -0.3763  0.5627
   81SAPS   C11 7490   2.190   1.478  11.145  0.3313 -0.6260 -0.4609
   81SAPS  H11A 7491   2.158   1.573  11.097  0.0701 -0.3727  0.2109
   81SAPS  H11B 7492   2.128   1.395  11.105  1.0819 -0.6063 -1.7041
   81SAPS     P 7493   2.403   1.365  11.039  0.1958 -0.0939 -0.6514
   81SAPS   O13 7494   2.533   1.429  11.005 -0.1041 -0.0942 -0.0596
   81SAPS   O14 7495   2.402   1.234  11.103 -0.0221  0.3671 -0.2008
   81SAPS   O12 7496   2.328   1.462  11.134  0.3745 -0.0998 -0.9541
   81SAPS   O11 7497   2.316   1.368  10.901  0.0874  0.2325  0.2453
   81SAPS    C1 7498   2.302   1.482  10.815  0.2283  0.0889 -0.4617
   81SAPS    HA 7499   2.208   1.541  10.817  0.1319  0.0106 -2.1021
   81SAPS    HB 7500   2.386   1.553  10.834  1.2858 -1.0631 -0.7881
   81SAPS    C2 7501   2.325   1.443  10.665  0.6330  0.7908 -0.0891
   81SAPS    HS 7502   2.236   1.380  10.642  1.3797  0.2643 -1.6379
   81SAPS   O21 7503   2.445   1.370  10.633  0.4167  0.5587 -0.5563
   81SAPS   C21 7504   2.425   1.237  10.621  0.1107 -0.5895  0.2417
   81SAPS   O22 7505   2.321   1.173  10.625  0.1235 -0.2569 -0.2685
   81SAPS   C22 7506   2.561   1.175  10.605 -0.3272  0.5132  0.1722
   81SAPS   H2R 7507   2.625   1.228  10.678 -1.4420  1.3033  0.5981
   81SAPS   H2S 7508   2.566   1.067  10.633 -0.9777  0.3733 -0.2220
   81SAPS    C3 7509   2.315   1.565  10.583 -0.8733 -0.1348 -0.1244
   81SAPS    HX 7510   2.391   1.634  10.624 -1.4606 -0.7138  1.9801
   81SAPS    HY 7511   2.217   1.615  10.591 -0.5375  1.0944 -2.8789
   81SAPS   O31 7512   2.353   1.534  10.441  0.1920 -0.7469  0.0479
   81SAPS   C31 7513   2.251   1.510  10.361  0.2695 -0.5331  0.5518
   81SAPS   O32 7514   2.133   1.518  10.392  0.2869 -0.2492  0.1784
   81SAPS   C32 7515   2.312   1.472  10.220 -0.1291  0.1447 -0.2407
   81SAPS   H2X 7516   2.397   1.401  10.229  0.0568  0.6209  2.1368
   81SAPS   H2Y 7517   2.360   1.563  10.176 -0.5108 -0.1637 -1.3253
   81SAPS   C23 7518   2.604   1.194  10.455 -0.4166  0.2741  0.3594
   81SAPS   H3R 7519   2.707   1.157  10.435 -1.4365 -2.1705 -0.4591
   81SAPS   H3S 7520   2.599   1.304  10.442  0.1728  0.4027  1.1389
   81SAPS   C24 7521   2.510   1.132  10.345 -0.4163  0.3900  0.3566
   81SAPS   H4R 7522   2.566   1.161  10.253 -1.2811  0.8436 -0.0333
   81SAPS   H4S 7523   2.418   1.194  10.354  0.3842  1.7502 -0.6521
   81SAPS   C25 7524   2.483   0.983  10.371 -0.6175 -0.3381 -0.6721
   81SAPS   H5R 7525   2.477   0.958  10.478 -1.1068 -0.6155 -0.7610
   81SAPS   C26 7526   2.490   0.878  10.281 -0.2709 -0.3798 -0.3699
   81SAPS   H6R 7527   2.469   0.778  10.322 -0.0774  0.3170  1.5021
   81SAPS   C27 7528   2.516   0.895  10.131 -0.6245 -0.4967 -0.2036
   81SAPS   H7R 7529   2.521   0.795  10.084 -1.0813 -0.6522  0.0808
   81SAPS   H7S 7530   2.613   0.947  10.113  0.5767 -2.4450  0.5062
   81SAPS   C28 7531   2.396   0.962  10.069  0.1656  0.2601 -0.1065
   81SAPS   H8R 7532   2.322   1.006  10.138  2.1778  1.9261  1.0345
   81SAPS   C29 7533   2.371   0.987   9.940  0.0969  0.1950 -0.2888
   81SAPS   H9R 7534   2.276   1.036   9.916  0.0848 -1.2107 -3.2921
   81SAPS  C210 7535   2.467   0.956   9.831 -0.4966 -0.9044  0.2419
   81SAPS  H10R 7536   2.569   0.930   9.865 -0.2920 -0.4512 -0.0153
   81SAPS  H10S 7537   2.491   1.041   9.764  1.7066 -1.0798  0.7676
   81SAPS  C211 7538   2.424   0.849   9.743  0.1685 -0.0658 -0.3310
   81SAPS  H11R 7539   2.416   0.753   9.796  2.5983 -0.7790 -1.1837
   81SAPS  C212 7540   2.400   0.845   9.608 -1.1623 -0.0495 -0.2287
   81SAPS  H12R 7541   2.368   0.752   9.559  0.1077 -0.9693  0.6575
   81SAPS  C213 7542   2.414   0.960   9.513 -0.8845  0.1033  0.1168
   81SAPS  H13R 7543   2.469   1.045   9.559  2.7690 -1.4538 -1.1744
   81SAPS  H13S 7544   2.315   1.000   9.480 -0.3907 -0.5612 -2.2547
   81SAPS  C214 7545   2.467   0.922   9.380 -0.4548  0.2190 -0.2078
   81SAPS  H14R 7546   2.553   0.853   9.379 -0.8912 -0.3564  0.9806
   81SAPS  C215 7547   2.435   0.967   9.261  0.4114 -0.1995  0.6311
   81SAPS  H15R 7548   2.482   0.929   9.170 -2.7968  0.5210 -1.4214
   81SAPS  C216 7549   2.329   1.079   9.237 -0.2897 -0.6044 -0.3028
   81SAPS  H16R 7550   2.375   1.181   9.233 -0.8221 -0.4410 -3.3578
   81SAPS  H16S 7551   2.256   1.090   9.320 -1.0417 -1.6003 -0.8199
   81SAPS  C217 7552   2.247   1.056   9.104 -0.3345  0.1044  0.4420
   81SAPS  H17R 7553   2.177   1.141   9.089 -0.5948  0.3753  2.8864
   81SAPS  H17S 7554   2.181   0.969   9.125  0.0794 -0.1838  0.5725
   81SAPS  C218 7555   2.330   1.041   8.980  0.6481  0.3726 -1.0415
   81SAPS  H18R 7556   2.384   0.944   8.983  1.2711  0.7254 -0.7083
   81SAPS  H18S 7557   2.402   1.126   8.984  1.0366 -0.0384  1.5666
   81SAPS  C219 7558   2.253   1.068   8.859  0.4509  0.5912  0.1259
   81SAPS  H19R 7559   2.145   1.045   8.877  0.8928 -1.1652  0.6549
   81SAPS  H19S 7560   2.268   0.994   8.778 -2.7732  0.7475 -0.7056
   81SAPS  C220 7561   2.261   1.198   8.798 -0.8239 -0.3250  0.3746
   81SAPS  H20R 7562   2.246   1.275   8.877 -2.8526 -1.2771  0.9348
   81SAPS  H20S 7563   2.176   1.221   8.731 -0.0641 -3.5405 -1.8048
   81SAPS  H20T 7564   2.354   1.220   8.740 -0.6361 -1.4424  0.2432
   81SAPS   C33 7565   2.194   1.443  10.125  0.3880 -0.6439  0.3952
   81SAPS   H3X 7566   2.131   1.533  10.107 -0.3607 -1.4775 -1.2732
   81SAPS   H3Y 7567   2.143   1.350  10.160  1.9251 -0.9258  1.9495
   81SAPS   C34 7568   2.248   1.410   9.986  0.0616 -0.1586 -1.0534
   81SAPS   H4X 7569   2.304   1.315   9.994  5.0078  2.6275 -0.5757
   81SAPS   H4Y 7570   2.319   1.490   9.957  1.8716 -1.5990 -0.6501
   81SAPS   C35 7571   2.138   1.404   9.881 -0.6539 -0.6461 -0.5099
   81SAPS   H5X 7572   2.086   1.502   9.873 -1.0457 -0.8100 -0.0170
   81SAPS   H5Y 7573   2.054   1.344   9.922 -0.8011  0.7492  1.3125
   81SAPS   C36 7574   2.190   1.352   9.748 -0.5258 -0.5152 -0.2353
   81SAPS   H6X 7575   2.200   1.242   9.753  0.0059 -0.3422  4.1177
   81SAPS   H6Y 7576   2.294   1.387   9.725 -1.0306  1.9860  1.0774
   81SAPS   C37 7577   2.100   1.386   9.627  0.5349  0.6909 -0.2036
   81SAPS   H7X 7578   2.072   1.493   9.623  0.3617  0.7243  1.3585
   81SAPS   H7Y 7579   2.002   1.336   9.647  0.2346  1.7714  1.1041
   81SAPS   C38 7580   2.167   1.342   9.491  0.9561 -0.7992 -0.1867
   81SAPS   H8X 7581   2.170   1.231   9.499  1.3654 -0.7310  0.6098
   81SAPS   H8Y 7582   2.271   1.380   9.500  0.2141  0.0803  6.6086
   81SAPS   C39 7583   2.109   1.386   9.358  1.3902 -0.4111  0.3835
   81SAPS   H9X 7584   2.172   1.344   9.277 -0.6715 -1.2474 -0.8417
   81SAPS   H9Y 7585   2.121   1.495   9.337 -2.0467 -0.4166 -1.9330
   81SAPS  C310 7586   1.963   1.351   9.358 -0.3376  0.7167  0.6744
   81SAPS  H10X 7587   1.909   1.418   9.429  0.4096  0.6286  1.3339
   81SAPS  H10Y 7588   1.938   1.253   9.403  1.7919 -0.1158  0.0815
   81SAPS  C311 7589   1.903   1.354   9.217  0.6410 -0.3099  0.2758
   81SAPS  H11X 7590   1.798   1.340   9.249  0.4671  0.3819  0.0047
   81SAPS  H11Y 7591   1.931   1.270   9.150 -1.0960 -3.1277  2.9298
   81SAPS  C312 7592   1.920   1.480   9.127  0.3159 -0.2501 -1.0240
   81SAPS  H12X 7593   2.026   1.508   9.108  0.3086 -0.0742 -0.8092
   81SAPS  H12Y 7594   1.882   1.570   9.181  1.1544 -0.6558  0.2863
   81SAPS  C313 7595   1.845   1.466   8.996 -0.4340 -0.4300 -0.0436
   81SAPS  H13X 7596   1.816   1.566   8.960  1.1792  1.0516  2.6097
   81SAPS  H13Y 7597   1.753   1.408   9.022 -0.1635 -1.0262 -0.3945
   81SAPS  C314 7598   1.929   1.383   8.905 -0.1356  0.5614  0.0618
   81SAPS  H14X 7599   1.926   1.277   8.939 -0.6305  0.2502 -0.9196
   81SAPS  H14Y 7600   2.033   1.421   8.907 -0.1096  0.5605 -1.1586
   81SAPS  C315 7601   1.899   1.375   8.755 -0.5662 -0.6779  0.1572
   81SAPS  H15X 7602   1.796   1.334   8.743 -0.6309 -0.6699  0.6849
   81SAPS  H15Y 7603   1.976   1.306   8.715  0.4672  0.2894  0.4659
   81SAPS  C316 7604   1.912   1.511   8.679 -0.0523  0.0070 -0.0820
   81SAPS  H16X 7605   2.020   1.536   8.672 -0.3335  0.6473 -3.1232
   81SAPS  H16Y 7606   1.870   1.596   8.736 -1.5035 -0.9689  0.3430
   81SAPS  C317 7607   1.857   1.512   8.535  0.4173 -0.2941  0.1169
   81SAPS  H17X 7608   1.749   1.492   8.524  0.5037 -0.6152 -0.1714
   81SAPS  H17Y 7609   1.923   1.451   8.470 -1.6593 -3.1298  0.6050
   81SAPS  C318 7610   1.853   1.654   8.485 -0.2375 -0.2498 -0.3658
   81SAPS  H18X 7611   1.955   1.697   8.477  0.1207 -0.7311  1.2860
   81SAPS  H18Y 7612   1.806   1.724   8.558 -0.0577  0.4795 -0.9509
   81SAPS  H18Z 7613   1.811   1.646   8.383 -0.4702  1.5769 -0.4320
   82SAPS     N 7614   0.679   0.257  11.307  0.0898  0.0751  0.3842
   82SAPS   HN1 7615   0.628   0.280  11.394 -0.2372 -3.2121  1.1074
   82SAPS   HN2 7616   0.674   0.155  11.292  0.3753  0.1616 -0.3364
   82SAPS   HN3 7617   0.777   0.293  11.309 -0.4910  1.8909 -1.2518
   82SAPS   C12 7618   0.614   0.323  11.195  0.1583  0.1318  0.5573
   82SAPS  H12A 7619   0.529   0.261  11.171 -0.1820  0.8185 -0.0294
   82SAPS   C13 7620   0.558   0.471  11.229 -0.5598 -0.5001  0.2748
   82SAPS  O13A 7621   0.561   0.516  11.346  0.1255 -0.0810  0.2191
   82SAPS  O13B 7622   0.511   0.531  11.132 -0.0329  0.0925 -0.1016
   82SAPS   C11 7623   0.707   0.310  11.073  0.1871 -0.6373  0.0319
   82SAPS  H11A 7624   0.803   0.359  11.097  0.1900 -1.4415  1.7489
   82SAPS  H11B 7625   0.676   0.364  10.982  3.4795 -1.5400 -1.7001
   82SAPS     P 7626   0.674   0.099  10.921  0.0755 -0.2702 -0.0758
   82SAPS   O13 7627   0.720  -0.039  10.922  0.0650 -0.0386  0.2049
   82SAPS   O14 7628   0.525   0.112  10.911  0.0563 -0.3714  0.3145
   82SAPS   O12 7629   0.731   0.171  11.048  0.6816  0.4851  0.5680
   82SAPS   O11 7630   0.739   0.181  10.805 -0.3533 -0.4217  0.2632
   82SAPS    C1 7631   0.879   0.155  10.778  0.0375 -0.0117  0.0246
   82SAPS    HA 7632   0.941   0.137  10.868 -0.0783  0.1086  0.1283
   82SAPS    HB 7633   0.884   0.060  10.721  0.7069  0.7822 -1.2669
   82SAPS    C2 7634   0.933   0.275  10.695  0.6841 -0.3456  0.1115
   82SAPS    HS 7635   0.920   0.365  10.759 -0.2412 -0.5554  0.2192
   82SAPS   O21 7636   0.847   0.291  10.583 -0.0290  0.1327  0.2196
   82SAPS   C21 7637   0.770   0.402  10.576  0.0196 -0.4706 -0.1033
   82SAPS   O22 7638   0.776   0.499  10.654 -0.1349  0.3098  0.5291
   82SAPS   C22 7639   0.662   0.380  10.472  0.5424  0.3398  0.5096
   82SAPS   H2R 7640   0.635   0.273  10.462  2.6009 -0.2899  1.2883
   82SAPS   H2S 7641   0.578   0.448  10.500 -0.4824 -1.0786  0.9062
   82SAPS    C3 7642   1.076   0.256  10.635  0.0345 -0.9184 -0.3349
   82SAPS    HX 7643   1.071   0.153  10.593  1.0148 -1.0285 -0.1740
   82SAPS    HY 7644   1.150   0.257  10.717  0.2989 -1.2692 -0.5681
   82SAPS   O31 7645   1.112   0.352  10.535  0.2403  0.4293  0.4001
   82SAPS   C31 7646   1.189   0.297  10.431 -0.7400  0.0075  0.3360
   82SAPS   O32 7647   1.238   0.184  10.436 -0.1870 -0.5787  0.6726
   82SAPS   C32 7648   1.180   0.392  10.320 -0.9014 -0.4018  0.4006
   82SAPS   H2X 7649   1.254   0.473  10.338  0.3672 -1.4635  0.0247
   82SAPS   H2Y 7650   1.079   0.438  10.313 -0.9440 -0.3042  1.4984
   82SAPS   C23 7651   0.707   0.429  10.329  0.8765  0.2420 -0.0565
   82SAPS   H3R 7652   0.793   0.378  10.281  1.1907  1.1362 -0.4363
   82SAPS   H3S 7653   0.746   0.533  10.328  0.6509  0.3370  0.4815
   82SAPS   C24 7654   0.590   0.431  10.228  0.1234 -0.0698  0.0043
   82SAPS   H4R 7655   0.602   0.519  10.161 -1.2178  0.5437  0.5538
   82SAPS   H4S 7656   0.496   0.444  10.285 -0.3070 -0.1978 -0.6723
   82SAPS   C25 7657   0.588   0.300  10.152 -0.2196  0.3099  0.0829
   82SAPS   H5R 7658   0.584   0.210  10.214  0.4522 -0.2239 -0.6402
   82SAPS   C26 7659   0.621   0.286  10.023  0.1777  0.0427 -0.5900
   82SAPS   H6R 7660   0.606   0.185   9.982 -2.3679 -0.3322  1.1737
   82SAPS   C27 7661   0.660   0.392   9.917  0.4430  0.2135 -0.3475
   82SAPS   H7R 7662   0.737   0.346   9.852 -2.1423 -1.2174 -2.4992
   82SAPS   H7S 7663   0.692   0.480   9.976 -3.1405  0.1971  1.7486
   82SAPS   C28 7664   0.553   0.439   9.820  0.1857  0.0732 -0.0020
   82SAPS   H8R 7665   0.479   0.514   9.852 -1.5622 -0.4650 -2.6896
   82SAPS   C29 7666   0.518   0.384   9.702 -0.0006  0.8734 -1.1570
   82SAPS   H9R 7667   0.432   0.434   9.654 -0.8431  1.9285  1.3611
   82SAPS  C210 7668   0.573   0.266   9.625 -0.4365 -0.7311 -0.1331
   82SAPS  H10R 7669   0.482   0.221   9.581 -0.0297 -2.1595  0.4467
   82SAPS  H10S 7670   0.625   0.190   9.688  0.0984  0.3266  0.7101
   82SAPS  C211 7671   0.683   0.308   9.527  0.0695  0.5951  0.6785
   82SAPS  H11R 7672   0.749   0.387   9.565  1.1768 -0.5519  1.2081
   82SAPS  C212 7673   0.686   0.288   9.393 -0.2475  0.1864 -0.6902
   82SAPS  H12R 7674   0.763   0.328   9.325  1.1767  2.2463  2.0336
   82SAPS  C213 7675   0.582   0.196   9.326  0.5539 -1.0394  0.1338
   82SAPS  H13R 7676   0.523   0.152   9.409  1.8768 -0.7801  1.2141
   82SAPS  H13S 7677   0.628   0.109   9.275  0.7513 -1.0704  0.3630
   82SAPS  C214 7678   0.485   0.276   9.240  0.0602  0.5600 -0.6487
   82SAPS  H14R 7679   0.435   0.359   9.291  1.7415  0.3685  1.3381
   82SAPS  C215 7680   0.459   0.260   9.113  0.6058  0.2434  0.0874
   82SAPS  H15R 7681   0.404   0.341   9.063 -0.1653  1.4447  2.7778
   82SAPS  C216 7682   0.510   0.155   9.022  0.0910  0.1674  1.0661
   82SAPS  H16R 7683   0.495   0.054   9.065 -0.1732  0.4101  1.5529
   82SAPS  H16S 7684   0.618   0.178   9.008 -0.0068  0.6352  1.0468
   82SAPS  C217 7685   0.439   0.172   8.891  0.1621 -0.2932  0.0275
   82SAPS  H17R 7686   0.501   0.119   8.816  1.1226  0.0979  0.5502
   82SAPS  H17S 7687   0.431   0.279   8.860  0.5805 -0.6942 -1.5489
   82SAPS  C218 7688   0.300   0.107   8.885 -0.5549 -0.1104  0.4004
   82SAPS  H18R 7689   0.240   0.179   8.945  0.4654  1.2491 -0.1719
   82SAPS  H18S 7690   0.305   0.007   8.932  2.8695  0.2843  1.0110
   82SAPS  C219 7691   0.251   0.079   8.743  0.0161  0.1818 -0.1556
   82SAPS  H19R 7692   0.144   0.050   8.756 -0.2859  0.9692 -0.8148
   82SAPS  H19S 7693   0.307  -0.008   8.704 -1.2663  0.2560 -2.2692
   82SAPS  C220 7694   0.263   0.193   8.639 -0.8856  0.2603 -0.1489
   82SAPS  H20R 7695   0.370   0.208   8.614 -0.9684  0.9222 -0.1042
   82SAPS  H20S 7696   0.220   0.286   8.680 -0.2652 -0.5822  2.5123
   82SAPS  H20T 7697   0.220   0.156   8.543 -1.8900  0.2159  0.3147
   82SAPS   C33 7698   1.232   0.324  10.189  0.1755 -0.2473 -0.2550
   82SAPS   H3X 7699   1.195   0.219  10.189  0.4866 -0.3583 -0.6075
   82SAPS   H3Y 7700   1.342   0.314  10.185  0.2312 -0.8223  2.2422
   82SAPS   C34 7701   1.173   0.396  10.063  0.0036  0.4956 -0.5393
   82SAPS   H4X 7702   1.190   0.505  10.070  2.1073  0.0740  1.9472
   82SAPS   H4Y 7703   1.064   0.376  10.065 -0.0959  1.0790  0.0647
   82SAPS   C35 7704   1.223   0.329   9.941 -0.2533 -0.3768 -0.1039
   82SAPS   H5X 7705   1.207   0.220   9.947  0.3884 -0.5023 -0.5818
   82SAPS   H5Y 7706   1.328   0.363   9.923 -0.4783 -0.5200 -1.7642
   82SAPS   C36 7707   1.146   0.385   9.821  0.3970 -0.4728 -0.7486
   82SAPS   H6X 7708   1.153   0.494   9.841  0.7647 -0.1120 -2.6585
   82SAPS   H6Y 7709   1.040   0.354   9.832  0.2595  0.3439  0.2280
   82SAPS   C37 7710   1.200   0.348   9.684  0.1322  0.0525 -0.5818
   82SAPS   H7X 7711   1.183   0.239   9.679  0.5616 -0.1497  1.8555
   82SAPS   H7Y 7712   1.310   0.367   9.683 -0.3280  3.0850 -1.8567
   82SAPS   C38 7713   1.124   0.410   9.562  0.4142  0.5964  0.5023
   82SAPS   H8X 7714   1.137   0.520   9.553 -0.3899  0.7364  0.9936
   82SAPS   H8Y 7715   1.015   0.397   9.583  0.3363  0.1348 -0.1898
   82SAPS   C39 7716   1.167   0.345   9.433 -0.1922  0.1698 -0.0787
   82SAPS   H9X 7717   1.160   0.236   9.454  3.3273  0.2039  1.6332
   82SAPS   H9Y 7718   1.273   0.372   9.416  0.0991 -0.4413  0.7439
   82SAPS  C310 7719   1.091   0.382   9.303  0.0919  0.4104 -0.1430
   82SAPS  H10X 7720   1.132   0.478   9.265 -0.5560  1.0181  0.6588
   82SAPS  H10Y 7721   0.987   0.393   9.341 -0.6753  0.3287 -2.1366
   82SAPS  C311 7722   1.082   0.276   9.191 -0.0039  0.0518  0.0864
   82SAPS  H11X 7723   1.176   0.219   9.178  0.6206  1.3852 -1.3823
   82SAPS  H11Y 7724   1.069   0.335   9.097 -2.5624 -1.6945 -0.7125
   82SAPS  C312 7725   0.982   0.162   9.209  0.0192  0.6174  0.9228
   82SAPS  H12X 7726   0.879   0.202   9.227 -0.9756 -1.5616  0.2631
   82SAPS  H12Y 7727   1.005   0.094   9.294 -0.8778 -0.7830  0.0662
   82SAPS  C313 7728   0.968   0.061   9.091  0.0383 -0.0478 -0.2453
   82SAPS  H13X 7729   1.072   0.037   9.061  0.2541  0.2173  0.2917
   82SAPS  H13Y 7730   0.923   0.121   9.009 -1.4791  0.6279  1.0527
   82SAPS  C314 7731   0.883  -0.063   9.112 -1.0714  0.5544 -0.1643
   82SAPS  H14X 7732   0.782  -0.023   9.135 -0.3409  1.8237  0.9365
   82SAPS  H14Y 7733   0.918  -0.114   9.204 -0.2955  0.3181 -0.5807
   82SAPS  C315 7734   0.882  -0.152   8.987 -0.0784 -0.8594 -0.2973
   82SAPS  H15X 7735   0.988  -0.183   8.974 -0.3914 -1.4867 -1.4222
   82SAPS  H15Y 7736   0.867  -0.081   8.903 -0.8917  1.8269  2.0466
   82SAPS  C316 7737   0.787  -0.275   8.985  0.2185  0.0930 -0.1732
   82SAPS  H16X 7738   0.677  -0.257   8.993  0.0975 -0.4413 -0.5246
   82SAPS  H16Y 7739   0.807  -0.337   9.075 -0.5689  1.1269  0.7289
   82SAPS  C317 7740   0.805  -0.357   8.860 -0.1034  0.0434  0.2658
   82SAPS  H17X 7741   0.797  -0.280   8.779 -1.7268  0.1769  0.5536
   82SAPS  H17Y 7742   0.725  -0.431   8.842  1.4087 -1.6031  0.1352
   82SAPS  C318 7743   0.937  -0.431   8.845  0.4650 -0.1585  0.0684
   82SAPS  H18X 7744   1.021  -0.372   8.802 -0.0241  1.0703  0.7877
   82SAPS  H18Y 7745   0.921  -0.525   8.788  0.1233 -0.9870  1.5104
   82SAPS  H18Z 7746   0.973  -0.453   8.948 -0.1395  0.1098  0.3359
   83SAPS     N 7747   2.629   1.688  11.036  0.2331 -0.2415 -0.8932
   83SAPS   HN1 7748   2.608   1.587  11.020 -0.5289  0.1480 -2.4780
   83SAPS   HN2 7749   2.559   1.744  10.983  0.1799 -0.7073 -1.3234
   83SAPS   HN3 7750   2.725   1.705  11.001 -0.1691  0.2403 -1.7696
   83SAPS   C12 7751   2.633   1.732  11.182 -0.4317  0.0562  0.5998
   83SAPS  H12A 7752   2.532   1.730  11.218  0.2644 -0.9790  2.5877
   83SAPS   C13 7753   2.714   1.632  11.262 -0.1243 -0.2412 -0.4354
   83SAPS  O13A 7754   2.793   1.556  11.199 -0.5709 -0.2275  0.0082
   83SAPS  O13B 7755   2.734   1.659  11.385 -0.1420 -0.0788  0.7063
   83SAPS   C11 7756   2.695   1.868  11.175  0.3854  0.2428  0.1223
   83SAPS  H11A 7757   2.791   1.868  11.120 -1.4420  0.9177 -3.2077
   83SAPS  H11B 7758   2.705   1.917  11.275  1.4638  0.9844 -0.3412
   83SAPS     P 7759   2.541   2.083  11.151 -0.3956  0.0008  0.6104
   83SAPS   O13 7760   2.428   2.044  11.227  0.2041  0.1393  0.5456
   83SAPS   O14 7761   2.633   2.182  11.209  0.3004 -0.3938 -0.2773
   83SAPS   O12 7762   2.623   1.960  11.096 -0.1527  0.4457  0.2229
   83SAPS   O11 7763   2.467   2.137  11.020  0.2887  0.2829 -0.3150
   83SAPS    C1 7764   2.529   2.235  10.941 -0.3790  0.5100  0.7526
   83SAPS    HA 7765   2.455   2.308  10.902 -2.2273 -2.6505 -1.8822
   83SAPS    HB 7766   2.606   2.296  10.993  1.4163  0.7000 -2.0297
   83SAPS    C2 7767   2.590   2.179  10.802 -0.4113  0.0202  0.1491
   83SAPS    HS 7768   2.607   2.270  10.740 -0.7920  0.1440  0.2238
   83SAPS   O21 7769   2.503   2.084  10.732 -0.6732  0.0469  0.4871
   83SAPS   C21 7770   2.394   2.134  10.677 -0.3936  0.4878  0.0474
   83SAPS   O22 7771   2.360   2.250  10.667 -0.3904 -0.5071  0.5635
   83SAPS   C22 7772   2.313   2.020  10.608 -0.0529 -0.2625  0.0933
   83SAPS   H2R 7773   2.375   1.928  10.598  0.2770  0.0361 -0.6839
   83SAPS   H2S 7774   2.230   2.001  10.678 -0.5008 -0.4404 -0.4855
   83SAPS    C3 7775   2.732   2.114  10.821 -0.0337 -0.0756 -0.3282
   83SAPS    HX 7776   2.723   2.041  10.904 -3.0294  2.0848  1.3630
   83SAPS    HY 7777   2.798   2.194  10.862 -3.0193  2.8440 -0.9843
   83SAPS   O31 7778   2.785   2.082  10.696  0.1001  0.6839 -0.1275
   83SAPS   C31 7779   2.835   2.175  10.617 -0.5699 -0.6660 -0.4165
   83SAPS   O32 7780   2.844   2.294  10.639 -0.3549 -0.2640 -0.8031
   83SAPS   C32 7781   2.872   2.114  10.481  0.2586  0.5351  0.1520
   83SAPS   H2X 7782   2.878   2.003  10.490 -1.4560  0.3996 -0.1292
   83SAPS   H2Y 7783   2.971   2.160  10.458  1.1396 -1.3394  0.1091
   83SAPS   C23 7784   2.273   2.057  10.466 -0.5355 -0.6489 -0.2558
   83SAPS   H3R 7785   2.206   2.146  10.469 -0.4565 -0.6033  0.4376
   83SAPS   H3S 7786   2.220   1.972  10.417  1.7296 -2.9524  1.1248
   83SAPS   C24 7787   2.402   2.076  10.381 -0.1358 -0.1698 -0.7700
   83SAPS   H4R 7788   2.456   1.979  10.370  0.8540  0.3465 -0.4435
   83SAPS   H4S 7789   2.461   2.159  10.424 -1.4603 -0.5972  2.0265
   83SAPS   C25 7790   2.347   2.126  10.246 -0.7521  1.0082 -0.7206
   83SAPS   H5R 7791   2.332   2.234  10.255 -0.2032  1.0415 -0.2270
   83SAPS   C26 7792   2.320   2.057  10.141 -0.3382  0.3106 -0.0112
   83SAPS   H6R 7793   2.278   2.107  10.052 -1.1198 -2.5115 -1.2687
   83SAPS   C27 7794   2.328   1.914  10.107  0.5486  0.4404  0.6126
   83SAPS   H7R 7795   2.382   1.865  10.191 -0.6343  0.2300  1.2752
   83SAPS   H7S 7796   2.391   1.903  10.017 -0.8321  0.1923 -0.3365
   83SAPS   C28 7797   2.190   1.856  10.095  0.4954  0.4801 -0.2033
   83SAPS   H8R 7798   2.137   1.834  10.189 -0.3913 -1.1935 -1.0673
   83SAPS   C29 7799   2.138   1.812   9.972 -0.4926 -0.1473 -0.0256
   83SAPS   H9R 7800   2.038   1.767   9.969 -1.2076  1.2323  2.0209
   83SAPS  C210 7801   2.196   1.823   9.832  0.6328 -0.0378  0.0736
   83SAPS  H10R 7802   2.276   1.747   9.819  1.4743  0.6157  1.2998
   83SAPS  H10S 7803   2.253   1.918   9.824  1.0419 -0.2386  0.5599
   83SAPS  C211 7804   2.109   1.825   9.708 -0.9667  0.8634 -0.1260
   83SAPS  H11R 7805   2.006   1.862   9.710 -0.1911  3.0389  1.3027
   83SAPS  C212 7806   2.150   1.765   9.596 -0.5058 -0.0619 -0.4155
   83SAPS  H12R 7807   2.068   1.763   9.522 -1.5676  1.9846  0.6546
   83SAPS  C213 7808   2.275   1.697   9.563 -0.6430  0.0229  0.2540
   83SAPS  H13R 7809   2.260   1.593   9.527  1.0362 -0.3451  0.5625
   83SAPS  H13S 7810   2.347   1.684   9.647  0.5811 -0.6002 -0.8711
   83SAPS  C214 7811   2.338   1.783   9.454 -0.2211  0.2330  0.1882
   83SAPS  H14R 7812   2.276   1.785   9.364 -0.1163 -0.5940  0.0926
   83SAPS  C215 7813   2.448   1.862   9.478  0.0116 -0.3516 -0.0221
   83SAPS  H15R 7814   2.487   1.921   9.395 -2.2006  3.3912  1.4926
   83SAPS  C216 7815   2.543   1.874   9.599  0.6015  0.3962  0.0254
   83SAPS  H16R 7816   2.629   1.804   9.590  0.0449 -0.4188  0.9528
   83SAPS  H16S 7817   2.489   1.852   9.693  2.0487  0.3018  0.8451
   83SAPS  C217 7818   2.606   2.016   9.626 -1.1941  0.6098  0.2210
   83SAPS  H17R 7819   2.662   2.042   9.533 -0.1129 -1.9585  0.0872
   83SAPS  H17S 7820   2.682   2.000   9.705 -1.8385  0.5083  0.8231
   83SAPS  C218 7821   2.507   2.128   9.649 -0.4928 -0.0903  0.0055
   83SAPS  H18R 7822   2.464   2.098   9.748 -1.3310 -0.7482 -0.5550
   83SAPS  H18S 7823   2.429   2.133   9.571 -0.0967  0.5356 -0.3531
   83SAPS  C219 7824   2.556   2.269   9.669  0.4514  0.4033 -0.1719
   83SAPS  H19R 7825   2.619   2.282   9.759  3.8966 -0.4648 -2.3403
   83SAPS  H19S 7826   2.464   2.326   9.692  1.2885  0.9769  1.8748
   83SAPS  C220 7827   2.624   2.321   9.540 -0.4131  0.9425 -0.1366
   83SAPS  H20R 7828   2.550   2.350   9.464  0.4220  0.0188 -1.3215
   83SAPS  H20S 7829   2.700   2.253   9.496  3.0708  2.9681  2.4798
   83SAPS  H20T 7830   2.682   2.414   9.558 -0.8948  1.3184 -0.5212
   83SAPS   C33 7831   2.778   2.157  10.366  1.0186 -0.0219 -0.4265
   83SAPS   H3X 7832   2.763   2.267  10.371  0.8417 -0.0076 -1.2879
   83SAPS   H3Y 7833   2.682   2.110  10.399  1.0132 -0.2639 -0.7845
   83SAPS   C34 7834   2.820   2.115  10.227  0.4760 -0.2884  1.0115
   83SAPS   H4X 7835   2.832   2.005  10.230 -0.5068 -0.3521  3.2245
   83SAPS   H4Y 7836   2.915   2.165  10.201 -0.5680  3.3296  3.7633
   83SAPS   C35 7837   2.719   2.129  10.113 -0.3386 -0.5156 -0.5703
   83SAPS   H5X 7838   2.697   2.237  10.097 -0.4996 -0.3538  0.6592
   83SAPS   H5Y 7839   2.627   2.074  10.143  0.3787 -1.5387 -0.1963
   83SAPS   C36 7840   2.770   2.089   9.976 -0.6096  0.4674  0.0523
   83SAPS   H6X 7841   2.693   2.111   9.899  0.2341  0.9101 -0.6690
   83SAPS   H6Y 7842   2.789   1.980   9.978 -0.4099  0.5206  1.4062
   83SAPS   C37 7843   2.907   2.159   9.941  1.2238 -0.1644  0.7725
   83SAPS   H7X 7844   2.991   2.127  10.006  0.5586 -1.3587  1.0573
   83SAPS   H7Y 7845   2.880   2.266   9.933 -0.4343 -0.6444 -0.4007
   83SAPS   C38 7846   2.961   2.133   9.798  0.0447  0.0937 -0.8984
   83SAPS   H8X 7847   3.061   2.183   9.796  0.8878 -1.5749 -1.0933
   83SAPS   H8Y 7848   2.899   2.182   9.719 -1.4901 -0.5770 -0.1285
   83SAPS   C39 7849   2.982   1.991   9.765 -0.0997  0.0389 -0.8778
   83SAPS   H9X 7850   2.889   1.932   9.753  0.8242 -1.5816 -0.3118
   83SAPS   H9Y 7851   3.044   1.936   9.839  0.5721 -0.6806 -1.9614
   83SAPS  C310 7852   3.064   1.972   9.632 -0.0038  0.4349 -0.2616
   83SAPS  H10X 7853   3.091   1.866   9.613 -0.6201  0.5861 -2.0881
   83SAPS  H10Y 7854   3.155   2.035   9.643  0.0730  0.7022 -2.2465
   83SAPS  C311 7855   2.981   2.034   9.514  0.1439 -0.5692  0.0706
   83SAPS  H11X 7856   2.969   2.144   9.516  2.1583 -0.3421  1.4849
   83SAPS  H11Y 7857   2.881   1.989   9.528 -0.3837  0.5635 -0.0691
   83SAPS  C312 7858   3.035   2.008   9.369 -0.0636  0.0829  0.0347
   83SAPS  H12X 7859   3.074   1.905   9.386  0.3670  0.6247  2.6254
   83SAPS  H12Y 7860   3.118   2.079   9.348 -0.7998  2.0477  3.5166
   83SAPS  C313 7861   2.921   2.011   9.269  0.0151 -0.0491 -0.6573
   83SAPS  H13X 7862   2.845   2.084   9.304 -0.1491 -1.5688  2.2542
   83SAPS  H13Y 7863   2.865   1.916   9.270 -3.1432  1.7480 -1.2476
   83SAPS  C314 7864   2.977   2.023   9.124  0.1030 -0.1920  0.0313
   83SAPS  H14X 7865   3.072   1.969   9.103  1.5297  2.6787 -1.0623
   83SAPS  H14Y 7866   3.019   2.125   9.115  0.3977 -0.2924  0.2535
   83SAPS  C315 7867   2.865   1.995   9.023  0.4615  0.1045  0.1641
   83SAPS  H15X 7868   2.768   2.037   9.058  0.3647 -0.3493  0.4422
   83SAPS  H15Y 7869   2.850   1.885   9.022 -1.3982  0.3389 -0.9061
   83SAPS  C316 7870   2.903   2.042   8.887 -0.1778  0.2588 -0.4577
   83SAPS  H16X 7871   2.944   1.968   8.816 -1.2438  1.3845 -2.2993
   83SAPS  H16Y 7872   2.991   2.109   8.899  0.2229 -0.4464  0.5350
   83SAPS  C317 7873   2.790   2.131   8.825 -0.2871 -0.0305  0.2671
   83SAPS  H17X 7874   2.834   2.172   8.731  0.6394 -0.0627  0.6780
   83SAPS  H17Y 7875   2.778   2.219   8.893 -0.6584 -0.6045  0.9474
   83SAPS  C318 7876   2.654   2.070   8.797  0.5249  0.0717 -0.0563
   83SAPS  H18X 7877   2.591   2.144   8.742  2.5125  0.1226 -2.3896
   83SAPS  H18Y 7878   2.610   2.040   8.894  2.1856  0.0925  0.7088
   83SAPS  H18Z 7879   2.665   1.980   8.733 -0.2735  1.0786 -1.6430
   84SAPS     N 7880   4.675   1.997  11.456 -0.6139 -0.1487  0.5654
   84SAPS   HN1 7881   4.631   2.087  11.485  0.4261 -0.6948  4.0437
   84SAPS   HN2 7882   4.633   1.901  11.457 -0.5889 -0.1669  0.1463
   84SAPS   HN3 7883   4.765   1.987  11.507 -0.0316  3.7754  0.4437
   84SAPS   C12 7884   4.711   2.022  11.309 -0.7082 -0.4747  0.6372
   84SAPS  H12A 7885   4.633   2.079  11.260 -0.2059 -1.4481 -1.3319
   84SAPS   C13 7886   4.840   2.107  11.287  0.0994 -0.0121 -1.0023
   84SAPS  O13A 7887   4.933   2.114  11.375  0.3105  0.2673  0.4472
   84SAPS  O13B 7888   4.842   2.180  11.184  0.4486  0.2731  0.1614
   84SAPS   C11 7889   4.729   1.892  11.229 -0.0110  0.2416 -0.2283
   84SAPS  H11A 7890   4.826   1.847  11.258 -0.1147  0.3225  0.2429
   84SAPS  H11B 7891   4.732   1.902  11.118 -2.0907  0.2105 -0.3165
   84SAPS     P 7892   4.516   1.731  11.178  0.3508  0.3083 -0.1972
   84SAPS   O13 7893   4.424   1.652  11.265 -0.4354  0.4704  0.5825
   84SAPS   O14 7894   4.459   1.840  11.096  0.0905 -0.1783  0.3231
   84SAPS   O12 7895   4.631   1.795  11.263  0.7354 -0.3082  0.2974
   84SAPS   O11 7896   4.600   1.633  11.080  0.0460  0.1956  0.2177
   84SAPS    C1 7897   4.593   1.493  11.096  0.5925  1.2730 -0.3601
   84SAPS    HA 7898   4.671   1.456  11.165  2.0374  1.2569 -1.9896
   84SAPS    HB 7899   4.493   1.463  11.135  1.5923 -3.7047 -1.3642
   84SAPS    C2 7900   4.609   1.414  10.960  0.2362  0.0358 -0.2716
   84SAPS    HS 7901   4.719   1.413  10.945  0.5060 -2.2361  1.4396
   84SAPS   O21 7902   4.534   1.483  10.852  0.1534  0.1604  0.0639
   84SAPS   C21 7903   4.596   1.500  10.745  0.5798  0.4751 -0.2320
   84SAPS   O22 7904   4.704   1.453  10.711  0.3920 -1.0886  0.4147
   84SAPS   C22 7905   4.518   1.600  10.658 -0.1981 -0.1876  0.0276
   84SAPS   H2R 7906   4.415   1.560  10.645  0.2474 -1.4884  0.4607
   84SAPS   H2S 7907   4.520   1.697  10.713  0.1561  1.4011 -2.6849
   84SAPS    C3 7908   4.563   1.266  10.986 -0.3296 -0.4921  0.2153
   84SAPS    HX 7909   4.453   1.271  10.994 -0.3573  0.4766 -0.5969
   84SAPS    HY 7910   4.607   1.238  11.084 -1.2579 -2.8289 -0.0047
   84SAPS   O31 7911   4.609   1.172  10.890  0.0822  0.2575 -0.1665
   84SAPS   C31 7912   4.543   1.171  10.769  0.5635  0.3111 -0.0659
   84SAPS   O32 7913   4.440   1.229  10.755  0.4960 -0.0935 -0.2315
   84SAPS   C32 7914   4.618   1.094  10.664  0.1953 -0.5282 -0.2228
   84SAPS   H2X 7915   4.632   0.993  10.709  1.3511  0.9202  2.8616
   84SAPS   H2Y 7916   4.715   1.147  10.655  0.0590 -0.2327 -0.0015
   84SAPS   C23 7917   4.567   1.620  10.514 -0.3015  0.2101  0.2692
   84SAPS   H3R 7918   4.565   1.520  10.465 -0.0152  1.2772 -1.9611
   84SAPS   H3S 7919   4.674   1.647  10.503  0.0680 -1.0529  0.6436
   84SAPS   C24 7920   4.478   1.713  10.426  0.8141  0.0340 -0.2965
   84SAPS   H4R 7921   4.465   1.811  10.476 -0.1775 -1.5007  2.5906
   84SAPS   H4S 7922   4.377   1.682  10.389  0.9764  1.1311 -1.7370
   84SAPS   C25 7923   4.548   1.753  10.300  0.1097  0.3489 -0.0917
   84SAPS   H5R 7924   4.607   1.845  10.310 -0.4685  0.9451 -1.9213
   84SAPS   C26 7925   4.539   1.689  10.186  0.2916 -0.3537  0.2418
   84SAPS   H6R 7926   4.592   1.726  10.097 -0.2460  1.9113  0.8186
   84SAPS   C27 7927   4.456   1.566  10.146  0.0182 -0.3421 -0.1155
   84SAPS   H7R 7928   4.354   1.602  10.120  0.4604  1.7805  0.9409
   84SAPS   H7S 7929   4.444   1.500  10.235 -1.7238 -0.2040 -0.2138
   84SAPS   C28 7930   4.510   1.485  10.028  0.5825 -0.3973  0.2835
   84SAPS   H8R 7931   4.584   1.411  10.062  0.0356 -1.7387 -1.4303
   84SAPS   C29 7932   4.477   1.472   9.903 -0.0726  0.6337  0.6933
   84SAPS   H9R 7933   4.537   1.405   9.840  0.6885 -0.2778  2.3741
   84SAPS  C210 7934   4.363   1.543   9.835  0.1870  0.4942  0.0690
   84SAPS  H10R 7935   4.327   1.618   9.908  0.0205 -1.7366  2.3375
   84SAPS  H10S 7936   4.294   1.465   9.795 -0.0872  1.7028 -1.8693
   84SAPS  C211 7937   4.405   1.639   9.723  0.3810 -0.1106  0.0047
   84SAPS  H11R 7938   4.473   1.719   9.754  2.5020 -0.8714 -2.4724
   84SAPS  C212 7939   4.364   1.634   9.591  0.0180 -0.7303  0.0086
   84SAPS  H12R 7940   4.398   1.719   9.530  1.1096 -2.4068 -1.7700
   84SAPS  C213 7941   4.278   1.537   9.518  0.6603 -0.4222 -0.2700
   84SAPS  H13R 7942   4.189   1.592   9.480  1.1117  0.3096 -0.2651
   84SAPS  H13S 7943   4.235   1.462   9.588 -0.0043  0.9696  0.8485
   84SAPS  C214 7944   4.361   1.464   9.413 -0.5592  0.6743  0.6980
   84SAPS  H14R 7945   4.429   1.399   9.469 -0.0757 -0.1107 -0.7737
   84SAPS  C215 7946   4.363   1.485   9.278 -0.6145  0.2337  0.5410
   84SAPS  H15R 7947   4.436   1.432   9.215 -0.3106 -0.4895  1.4978
   84SAPS  C216 7948   4.266   1.579   9.214  0.3740 -0.3360  0.8348
   84SAPS  H16R 7949   4.272   1.681   9.257  0.2653  0.3773 -0.8060
   84SAPS  H16S 7950   4.162   1.543   9.228 -0.5247  1.9845  0.3180
   84SAPS  C217 7951   4.285   1.614   9.067 -0.4173  0.1361 -0.1117
   84SAPS  H17R 7952   4.273   1.524   9.003 -2.4090 -0.3515  0.9086
   84SAPS  H17S 7953   4.387   1.659   9.076 -1.3085  2.2411 -0.3260
   84SAPS  C218 7954   4.175   1.715   9.037 -0.1279  0.6376 -0.2151
   84SAPS  H18R 7955   4.167   1.799   9.108 -2.4223 -2.8199  3.8106
   84SAPS  H18S 7956   4.079   1.669   9.007  0.7990 -0.7016 -1.2113
   84SAPS  C219 7957   4.197   1.786   8.895 -0.5588  0.0839  0.1380
   84SAPS  H19R 7958   4.113   1.859   8.884  0.1169  0.9702  0.8226
   84SAPS  H19S 7959   4.193   1.715   8.810 -0.9180 -0.7737  0.8751
   84SAPS  C220 7960   4.332   1.857   8.894  0.4242 -0.7870  0.7651
   84SAPS  H20R 7961   4.354   1.921   8.806  1.7722 -2.0811  0.1244
   84SAPS  H20S 7962   4.412   1.780   8.889  0.5458 -0.5035 -2.2872
   84SAPS  H20T 7963   4.343   1.926   8.981 -1.6456  0.8806 -0.2695
   84SAPS   C33 7964   4.529   1.086  10.534  0.3200  0.2124 -0.2058
   84SAPS   H3X 7965   4.422   1.073  10.557  0.5337 -2.9946 -0.7362
   84SAPS   H3Y 7966   4.569   0.987  10.501  2.5684  0.9653  0.1576
   84SAPS   C34 7967   4.569   1.185  10.428  0.0457  1.0602  0.3634
   84SAPS   H4X 7968   4.673   1.166  10.394 -0.6898  0.4318 -1.6412
   84SAPS   H4Y 7969   4.573   1.287  10.471 -1.0754  0.5627  1.6850
   84SAPS   C35 7970   4.475   1.198  10.304 -0.7546  0.3208 -0.4756
   84SAPS   H5X 7971   4.517   1.273  10.234 -0.9378 -0.0290 -0.9695
   84SAPS   H5Y 7972   4.379   1.240  10.341 -1.4831 -1.2835 -0.4942
   84SAPS   C36 7973   4.458   1.069  10.221  0.0961 -0.6516 -0.5477
   84SAPS   H6X 7974   4.423   0.983  10.281  2.9425  0.6039  3.1431
   84SAPS   H6Y 7975   4.559   1.054  10.176  0.8159  0.2800  0.7413
   84SAPS   C37 7976   4.362   1.092  10.103 -0.2863 -0.0564 -0.2987
   84SAPS   H7X 7977   4.404   1.163  10.028  2.1933  0.9243  1.9039
   84SAPS   H7Y 7978   4.269   1.130  10.151 -0.9385  0.3068 -1.8259
   84SAPS   C38 7979   4.335   0.956  10.037 -0.3995  0.2379  0.4456
   84SAPS   H8X 7980   4.270   0.903  10.110 -0.5624  0.2976  0.3452
   84SAPS   H8Y 7981   4.429   0.896  10.030 -1.2864 -1.1726  0.3137
   84SAPS   C39 7982   4.255   0.962   9.900  0.0212  0.7479 -0.4788
   84SAPS   H9X 7983   4.177   1.040   9.901  0.4576  1.1999  1.7977
   84SAPS   H9Y 7984   4.214   0.865   9.865  0.1296  0.8188 -0.8014
   84SAPS  C310 7985   4.356   1.007   9.793 -0.4824 -0.3914 -0.0236
   84SAPS  H10X 7986   4.435   0.931   9.772 -1.7849 -1.1227 -2.4594
   84SAPS  H10Y 7987   4.413   1.099   9.818  1.2190 -1.4520  0.0961
   84SAPS  C311 7988   4.275   1.033   9.663  0.3270  0.4116  0.0257
   84SAPS  H11X 7989   4.204   1.113   9.692  0.3615  0.9884 -1.4520
   84SAPS  H11Y 7990   4.216   0.941   9.643 -2.3306  1.5451  2.3696
   84SAPS  C312 7991   4.360   1.059   9.544  0.8701  0.1359 -0.4170
   84SAPS  H12X 7992   4.404   0.961   9.515 -1.9416 -1.8828  1.7977
   84SAPS  H12Y 7993   4.437   1.137   9.560 -0.9802  1.4886  2.2782
   84SAPS  C313 7994   4.286   1.098   9.415  0.2010  0.3374  0.8272
   84SAPS  H13X 7995   4.255   1.204   9.431 -0.9437  0.0798  0.3653
   84SAPS  H13Y 7996   4.192   1.039   9.418  0.9546 -1.0476 -1.6955
   84SAPS  C314 7997   4.374   1.087   9.293  0.1234  0.4630  0.4563
   84SAPS  H14X 7998   4.407   0.981   9.294 -1.5455 -0.0641 -0.1181
   84SAPS  H14Y 7999   4.468   1.147   9.290  0.1838  0.3102 -4.2997
   84SAPS  C315 8000   4.301   1.130   9.164 -0.1822 -0.4913  0.0861
   84SAPS  H15X 8001   4.370   1.168   9.086 -1.9568  1.6818 -0.4906
   84SAPS  H15Y 8002   4.209   1.188   9.190 -0.8468 -1.4654 -0.0656
   84SAPS  C316 8003   4.243   1.004   9.106 -0.1856 -0.1264 -0.5880
   84SAPS  H16X 8004   4.164   0.960   9.171 -2.2085  1.5387 -1.8579
   84SAPS  H16Y 8005   4.323   0.926   9.101  1.0695  1.1972 -1.5684
   84SAPS  C317 8006   4.180   1.009   8.966 -0.1976 -0.0957 -0.2079
   84SAPS  H17X 8007   4.245   0.970   8.885 -1.8320 -0.7209 -1.2529
   84SAPS  H17Y 8008   4.151   1.113   8.940  0.0736 -0.0267 -0.2295
   84SAPS  C318 8009   4.056   0.923   8.963  0.0085  0.4566  0.0077
   84SAPS  H18X 8010   4.078   0.819   8.996  1.2206  1.5101  2.7626
   84SAPS  H18Y 8011   4.008   0.930   8.863  0.1458  0.5678 -0.0494
   84SAPS  H18Z 8012   3.974   0.971   9.022 -1.6579 -1.0765 -1.0122
   85SAPS     N 8013   1.560   2.900  11.113 -0.7275  0.0062 -0.3172
   85SAPS   HN1 8014   1.619   2.816  11.126 -0.7549 -0.1848 -1.4209
   85SAPS   HN2 8015   1.570   2.924  11.013 -1.8540 -0.8148 -0.6413
   85SAPS   HN3 8016   1.592   2.974  11.180 -0.6125 -1.1589  0.9397
   85SAPS   C12 8017   1.426   2.857  11.147 -0.5597  0.1498 -0.2461
   85SAPS  H12A 8018   1.412   2.780  11.073  0.9386 -1.6504  1.2924
   85SAPS   C13 8019   1.398   2.802  11.293 -0.6627 -0.0312  0.2848
   85SAPS  O13A 8020   1.500   2.805  11.373  0.0150 -0.5179  0.3403
   85SAPS  O13B 8021   1.301   2.724  11.307  0.0258  0.3211 -0.3974
   85SAPS   C11 8022   1.328   2.981  11.123 -0.1990  0.6713 -0.8572
   85SAPS  H11A 8023   1.371   3.064  11.184 -0.3055 -0.8290  1.3156
   85SAPS  H11B 8024   1.231   2.959  11.173  1.2030 -2.2242  0.7018
   85SAPS     P 8025   1.289   3.166  10.938  0.1399  0.2344  0.0146
   85SAPS   O13 8026   1.150   3.210  10.973 -0.1026  0.4055  0.0121
   85SAPS   O14 8027   1.404   3.253  10.968  0.0833  0.3827 -1.0028
   85SAPS   O12 8028   1.311   3.022  10.991  0.2189 -0.0436  0.3277
   85SAPS   O11 8029   1.282   3.143  10.781  0.2317 -0.8908 -0.8762
   85SAPS    C1 8030   1.370   3.050  10.716  0.1127  0.0507  0.1106
   85SAPS    HA 8031   1.472   3.062  10.761  0.6974 -2.0572 -0.5776
   85SAPS    HB 8032   1.334   2.945  10.721 -0.4167  0.2574  0.7735
   85SAPS    C2 8033   1.385   3.080  10.564  0.0941 -0.2297  0.1147
   85SAPS    HS 8034   1.435   3.179  10.557  0.6218 -0.3639  1.7361
   85SAPS   O21 8035   1.253   3.087  10.515  0.4731 -0.7782 -0.5085
   85SAPS   C21 8036   1.233   3.189  10.425  0.4441  0.0406  0.0827
   85SAPS   O22 8037   1.315   3.276  10.398  0.5879 -0.9806 -0.0331
   85SAPS   C22 8038   1.101   3.169  10.362 -0.2037 -0.4376  0.1330
   85SAPS   H2R 8039   1.089   3.066  10.322  2.0826 -0.2007 -1.2658
   85SAPS   H2S 8040   1.016   3.199  10.426  0.2059 -2.4693  1.6695
   85SAPS    C3 8041   1.466   2.961  10.501 -0.5906 -0.0771  0.4509
   85SAPS    HX 8042   1.412   2.865  10.512 -0.3928 -0.1615  0.6855
   85SAPS    HY 8043   1.557   2.948  10.563  0.2433 -1.4898 -1.0333
   85SAPS   O31 8044   1.495   2.985  10.361  0.1303  0.3698  0.0935
   85SAPS   C31 8045   1.404   2.933  10.269 -0.8732 -0.1110  0.2647
   85SAPS   O32 8046   1.294   2.890  10.292  0.4514  0.1702  0.0066
   85SAPS   C32 8047   1.452   2.947  10.126  0.2578 -0.0620  0.3107
   85SAPS   H2X 8048   1.405   2.864  10.070  0.8115 -0.4429  0.4084
   85SAPS   H2Y 8049   1.562   2.942  10.115  0.4003  1.3336  1.0347
   85SAPS   C23 8050   1.095   3.265  10.234  0.1998  0.1767 -0.6573
   85SAPS   H3R 8051   1.187   3.259  10.174  0.9751 -0.5295  0.5658
   85SAPS   H3S 8052   1.096   3.369  10.272  3.5018 -0.7492  2.0465
   85SAPS   C24 8053   0.968   3.232  10.163  0.4150  0.3894 -0.1545
   85SAPS   H4R 8054   0.875   3.215  10.222 -0.3181 -0.8060 -1.5897
   85SAPS   H4S 8055   0.989   3.128  10.128 -0.9995 -0.0355  0.2225
   85SAPS   C25 8056   0.923   3.316  10.044  0.5567  0.6945 -0.4274
   85SAPS   H5R 8057   0.830   3.369  10.069  0.0674  0.0930 -0.9880
   85SAPS   C26 8058   0.972   3.333   9.922  0.4116  0.4576 -0.6564
   85SAPS   H6R 8059   0.909   3.393   9.855 -2.1842  0.4821  1.7411
   85SAPS   C27 8060   1.098   3.266   9.870  0.0277 -0.4537 -0.1199
   85SAPS   H7R 8061   1.148   3.218   9.957  2.9675  1.3526 -0.7447
   85SAPS   H7S 8062   1.173   3.345   9.849  1.2833 -1.4356  0.6274
   85SAPS   C28 8063   1.096   3.163   9.756  0.2587 -0.2542 -0.7978
   85SAPS   H8R 8064   1.121   3.062   9.792  0.1703  1.1709  3.5618
   85SAPS   C29 8065   1.081   3.191   9.623  0.7018  0.2186  0.1994
   85SAPS   H9R 8066   1.086   3.109   9.550  0.8856  1.9727 -1.7695
   85SAPS  C210 8067   1.054   3.325   9.552  0.4006 -0.7955 -0.6843
   85SAPS  H10R 8068   1.021   3.404   9.623  1.1551 -2.2181  1.2966
   85SAPS  H10S 8069   0.971   3.316   9.479 -1.1925 -2.4985  1.2719
   85SAPS  C211 8070   1.187   3.356   9.483 -0.4353  0.3897 -0.7024
   85SAPS  H11R 8071   1.275   3.322   9.540 -0.0108 -1.7853 -2.5973
   85SAPS  C212 8072   1.212   3.410   9.364  0.8149  0.7221  0.6395
   85SAPS  H12R 8073   1.314   3.410   9.324  1.2014 -0.7739  1.5990
   85SAPS  C213 8074   1.115   3.460   9.263 -0.3254 -0.5621  0.3259
   85SAPS  H13R 8075   1.057   3.539   9.315 -1.0637 -0.2321 -0.9839
   85SAPS  H13S 8076   1.049   3.381   9.222 -0.3436 -0.3189 -0.1212
   85SAPS  C214 8077   1.187   3.538   9.158 -0.5325  0.5763  0.3113
   85SAPS  H14R 8078   1.246   3.625   9.190 -0.0126  0.9041 -1.4729
   85SAPS  C215 8079   1.207   3.496   9.031  0.6939  0.2181  0.2293
   85SAPS  H15R 8080   1.253   3.568   8.961  1.4964  0.0988  0.6246
   85SAPS  C216 8081   1.147   3.380   8.958  0.4348 -0.1328 -0.0606
   85SAPS  H16R 8082   1.057   3.351   9.016  0.4604 -0.1303 -0.0210
   85SAPS  H16S 8083   1.219   3.296   8.950  0.2904 -0.3177  0.5395
   85SAPS  C217 8084   1.111   3.414   8.811 -0.6041  0.3578 -1.2304
   85SAPS  H17R 8085   1.078   3.316   8.770 -0.6817 -1.3552  2.6850
   85SAPS  H17S 8086   1.202   3.444   8.755 -0.9433  1.3500 -1.2722
   85SAPS  C218 8087   1.000   3.519   8.801  0.2606  0.3398 -0.2764
   85SAPS  H18R 8088   1.057   3.613   8.813  1.9058 -0.4916 -1.3731
   85SAPS  H18S 8089   0.927   3.500   8.882  0.5227  1.7910  0.3062
   85SAPS  C219 8090   0.926   3.535   8.665 -0.0663 -0.7045 -0.7349
   85SAPS  H19R 8091   0.877   3.437   8.647 -0.4492 -0.7743  0.6912
   85SAPS  H19S 8092   0.996   3.566   8.584  0.0119  0.9300 -0.0671
   85SAPS  C220 8093   0.822   3.643   8.680  0.2736  0.1244 -0.0648
   85SAPS  H20R 8094   0.761   3.650   8.587 -1.3655 -1.6397  0.8364
   85SAPS  H20S 8095   0.873   3.738   8.706 -1.4206  1.3192 -1.0392
   85SAPS  H20T 8096   0.751   3.621   8.763 -0.5773  0.8628 -0.5937
   85SAPS   C33 8097   1.410   3.081  10.045 -0.1664  0.4597 -0.4552
   85SAPS   H3X 8098   1.443   3.174  10.096 -3.8671  2.1588 -1.0740
   85SAPS   H3Y 8099   1.300   3.083  10.034 -0.2200 -1.0433 -0.4193
   85SAPS   C34 8100   1.469   3.092   9.906 -0.0379  0.0380 -0.5405
   85SAPS   H4X 8101   1.578   3.089   9.928 -0.6270 -1.7560  2.4197
   85SAPS   H4Y 8102   1.439   3.189   9.861 -0.1669  0.0378 -0.4569
   85SAPS   C35 8103   1.441   2.972   9.813  0.2064  0.6905 -0.6223
   85SAPS   H5X 8104   1.333   2.950   9.801 -0.4861  2.2870  2.2171
   85SAPS   H5Y 8105   1.485   2.887   9.869 -0.3987 -0.1037 -1.3584
   85SAPS   C36 8106   1.527   2.979   9.681  0.4227 -0.4893 -0.1546
   85SAPS   H6X 8107   1.538   2.874   9.648  0.5215 -0.3143 -0.6969
   85SAPS   H6Y 8108   1.631   3.017   9.690  0.3312 -0.2012 -0.2873
   85SAPS   C37 8109   1.449   3.058   9.573  0.5766 -0.4404  0.1564
   85SAPS   H7X 8110   1.447   3.168   9.590  0.0515 -0.4918  0.4298
   85SAPS   H7Y 8111   1.345   3.021   9.583  0.6951 -0.2010  2.5832
   85SAPS   C38 8112   1.516   3.020   9.440  0.1788 -0.5431  0.1863
   85SAPS   H8X 8113   1.494   2.912   9.434  0.0576 -0.4886 -0.4201
   85SAPS   H8Y 8114   1.624   3.044   9.451  0.3474 -0.8914 -0.6412
   85SAPS   C39 8115   1.459   3.084   9.311  0.1443  0.0224  0.2082
   85SAPS   H9X 8116   1.485   3.192   9.311  3.6525 -0.7695 -1.1656
   85SAPS   H9Y 8117   1.350   3.063   9.303  0.5084 -1.5233 -1.0503
   85SAPS  C310 8118   1.512   3.011   9.185  0.5803  0.0500 -0.3368
   85SAPS  H10X 8119   1.469   2.908   9.179  0.5061  0.0922 -0.5253
   85SAPS  H10Y 8120   1.623   3.009   9.188  0.6482  1.5173 -1.7947
   85SAPS  C311 8121   1.472   3.073   9.054  0.0090 -0.8696  0.1874
   85SAPS  H11X 8122   1.523   3.166   9.020  1.1984 -1.8097 -0.6349
   85SAPS  H11Y 8123   1.367   3.104   9.075  1.2923  0.9051  4.6563
   85SAPS  C312 8124   1.481   2.978   8.934  0.3868  0.8571  0.3675
   85SAPS  H12X 8125   1.428   2.885   8.962  0.0344  0.5323 -1.2977
   85SAPS  H12Y 8126   1.590   2.959   8.922 -0.1593 -1.2958 -1.4948
   85SAPS  C313 8127   1.410   3.037   8.810  0.6044  0.0139  0.6073
   85SAPS  H13X 8128   1.308   3.073   8.837  1.0347  0.3923  1.7455
   85SAPS  H13Y 8129   1.406   2.954   8.737 -0.6181  0.4548  0.1596
   85SAPS  C314 8130   1.504   3.148   8.759 -0.0643  0.0110  0.0237
   85SAPS  H14X 8131   1.605   3.102   8.759 -0.7037 -1.5232  2.4084
   85SAPS  H14Y 8132   1.488   3.238   8.822  0.9936  1.9627 -2.4185
   85SAPS  C315 8133   1.469   3.194   8.615 -0.1932  0.8177  0.6113
   85SAPS  H15X 8134   1.371   3.245   8.628 -1.0923 -0.6337 -0.3670
   85SAPS  H15Y 8135   1.451   3.112   8.543 -0.7900  0.5323  1.0774
   85SAPS  C316 8136   1.556   3.309   8.553  0.2567  0.1747  0.3081
   85SAPS  H16X 8137   1.662   3.295   8.581  0.8210  1.7401 -0.9594
   85SAPS  H16Y 8138   1.529   3.406   8.601  1.7153  0.9535 -0.4225
   85SAPS  C317 8139   1.533   3.322   8.404  0.2843 -0.7109  0.5140
   85SAPS  H17X 8140   1.425   3.334   8.384  0.4579 -0.5728 -0.3626
   85SAPS  H17Y 8141   1.563   3.226   8.355 -1.3921 -1.0218  0.0598
   85SAPS  C318 8142   1.611   3.443   8.332  0.5094 -0.3325 -0.4789
   85SAPS  H18X 8143   1.590   3.442   8.224 -0.5092 -3.2272 -0.2811
   85SAPS  H18Y 8144   1.719   3.426   8.355  0.5549 -0.1707 -0.5707
   85SAPS  H18Z 8145   1.576   3.540   8.373  0.7715 -0.2478 -0.4526
   86SAPS     N 8146   3.242   3.549  11.119  0.1833  0.1182 -0.6199
   86SAPS   HN1 8147   3.230   3.618  11.196  0.0188 -0.7226  0.1166
   86SAPS   HN2 8148   3.318   3.571  11.051  1.6523  1.0512  1.2637
   86SAPS   HN3 8149   3.156   3.555  11.060  1.2137  1.2781 -2.0605
   86SAPS   C12 8150   3.247   3.415  11.183  0.1288  0.1046 -0.0293
   86SAPS  H12A 8151   3.322   3.412  11.260  1.5448  0.0733 -1.3771
   86SAPS   C13 8152   3.117   3.372  11.254 -0.6685  0.3717 -0.5923
   86SAPS  O13A 8153   3.029   3.454  11.286  0.0249  0.1259 -0.4771
   86SAPS  O13B 8154   3.111   3.254  11.299  0.0544  0.0630  0.7197
   86SAPS   C11 8155   3.284   3.306  11.078 -0.5604 -0.1181 -0.8127
   86SAPS  H11A 8156   3.210   3.307  10.996 -3.5648 -0.0651  1.7978
   86SAPS  H11B 8157   3.268   3.205  11.122 -1.5418  0.0780 -0.7173
   86SAPS     P 8158   3.444   3.375  10.882 -0.3218 -0.0416  0.1043
   86SAPS   O13 8159   3.386   3.513  10.879  0.3684  0.4272 -0.5281
   86SAPS   O14 8160   3.593   3.363  10.859  0.2496 -0.1536  0.2074
   86SAPS   O12 8161   3.415   3.303  11.021  0.6732  0.2236  0.0101
   86SAPS   O11 8162   3.357   3.290  10.777 -0.1757 -0.3584 -0.4703
   86SAPS    C1 8163   3.412   3.165  10.718 -0.6001 -0.0027  0.1203
   86SAPS    HA 8164   3.482   3.121  10.792 -1.7701 -3.3254 -0.6563
   86SAPS    HB 8165   3.332   3.091  10.699 -1.6823  0.8851  1.1009
   86SAPS    C2 8166   3.492   3.214  10.585  0.9216  0.5192  0.0168
   86SAPS    HS 8167   3.576   3.278  10.618  1.4705 -0.2325  0.0782
   86SAPS   O21 8168   3.410   3.285  10.497  0.1054  0.1859 -0.3149
   86SAPS   C21 8169   3.411   3.412  10.492  0.0494 -0.3337 -0.3324
   86SAPS   O22 8170   3.489   3.485  10.549 -0.1640 -0.1641 -0.4898
   86SAPS   C22 8171   3.317   3.463  10.383 -0.5145  0.7111  0.2309
   86SAPS   H2R 8172   3.329   3.573  10.372  0.1658  0.4966 -1.3027
   86SAPS   H2S 8173   3.341   3.418  10.284 -0.0684 -0.1149  0.7127
   86SAPS    C3 8174   3.557   3.102  10.506 -0.0587  0.1288  0.6203
   86SAPS    HX 8175   3.479   3.023  10.503 -0.7214  0.7794  0.5827
   86SAPS    HY 8176   3.640   3.064  10.570  0.5372  1.0575  0.4068
   86SAPS   O31 8177   3.596   3.143  10.373  0.0878 -1.0393  0.2349
   86SAPS   C31 8178   3.725   3.151  10.355  0.2401 -0.4883  0.6418
   86SAPS   O32 8179   3.817   3.108  10.422  0.0322  0.3114  0.1643
   86SAPS   C32 8180   3.748   3.231  10.234  0.3740 -0.2117  0.2751
   86SAPS   H2X 8181   3.799   3.323  10.271  2.7047 -1.0387 -0.7921
   86SAPS   H2Y 8182   3.656   3.255  10.176 -0.4017 -0.1473  1.5137
   86SAPS   C23 8183   3.175   3.426  10.419  0.5242 -0.5502  0.2361
   86SAPS   H3R 8184   3.135   3.454  10.518 -2.1640 -1.7555 -0.4613
   86SAPS   H3S 8185   3.168   3.316  10.410  1.2022 -0.8789  3.2451
   86SAPS   C24 8186   3.072   3.489  10.314 -0.1145  0.1121 -0.0474
   86SAPS   H4R 8187   3.101   3.478  10.207  0.9235 -0.3499  0.2805
   86SAPS   H4S 8188   3.087   3.597  10.335 -2.2490  0.2692  0.7459
   86SAPS   C25 8189   2.927   3.441  10.322  0.4083 -0.4342 -0.0310
   86SAPS   H5R 8190   2.920   3.343  10.371  1.0503 -0.6318 -0.3283
   86SAPS   C26 8191   2.824   3.492  10.250  0.2231  0.5593  0.2065
   86SAPS   H6R 8192   2.718   3.464  10.264  0.2964 -0.5843 -1.3620
   86SAPS   C27 8193   2.833   3.617  10.160 -0.7650  0.1216 -0.6697
   86SAPS   H7R 8194   2.896   3.591  10.072  2.2660  2.0478  0.8336
   86SAPS   H7S 8195   2.893   3.699  10.204 -1.5277  0.6521 -0.6271
   86SAPS   C28 8196   2.704   3.690  10.137 -0.6962  0.2113 -0.3376
   86SAPS   H8R 8197   2.651   3.708  10.231 -2.4269 -0.0788 -1.2279
   86SAPS   C29 8198   2.662   3.757  10.024 -0.1173 -0.2809  0.3513
   86SAPS   H9R 8199   2.560   3.799  10.019 -0.3078 -0.9852 -2.4893
   86SAPS  C210 8200   2.732   3.759   9.891  0.2198 -0.1639  1.3932
   86SAPS  H10R 8201   2.791   3.665   9.879  0.6676  0.3997 -1.1202
   86SAPS  H10S 8202   2.817   3.831   9.885 -0.8173  0.9347 -0.2807
   86SAPS  C211 8203   2.638   3.788   9.773 -0.6565 -0.6932 -0.5861
   86SAPS  H11R 8204   2.533   3.811   9.800 -0.4883  0.9874 -1.2933
   86SAPS  C212 8205   2.666   3.784   9.642  0.2888 -0.1631 -0.7149
   86SAPS  H12R 8206   2.595   3.813   9.563  1.2000  1.6455 -0.8860
   86SAPS  C213 8207   2.806   3.748   9.586  0.6408 -0.6429 -1.4006
   86SAPS  H13R 8208   2.782   3.692   9.492  1.9632 -0.7387 -1.6873
   86SAPS  H13S 8209   2.863   3.681   9.654  1.1019  2.0259  0.9285
   86SAPS  C214 8210   2.882   3.879   9.563 -0.9589  0.2003 -0.1759
   86SAPS  H14R 8211   2.908   3.929   9.658 -1.1961 -1.4626  0.7838
   86SAPS  C215 8212   2.934   3.913   9.445  1.0274 -0.8188 -0.0682
   86SAPS  H15R 8213   2.972   4.016   9.447 -1.1859  0.0720 -1.3660
   86SAPS  C216 8214   2.921   3.841   9.318 -0.3050  0.7397  0.3863
   86SAPS  H16R 8215   2.912   3.731   9.330  1.6465  0.3601 -1.3227
   86SAPS  H16S 8216   3.022   3.858   9.273 -0.3020 -0.8476 -0.2261
   86SAPS  C217 8217   2.802   3.885   9.224  0.1431  0.4793 -0.5079
   86SAPS  H17R 8218   2.810   3.987   9.180 -0.8100  1.5434  1.7163
   86SAPS  H17S 8219   2.714   3.870   9.291  1.2482  1.6167  1.2292
   86SAPS  C218 8220   2.780   3.784   9.109  0.3245  1.0027  0.0424
   86SAPS  H18R 8221   2.793   3.676   9.136 -0.8614  0.0967 -2.8049
   86SAPS  H18S 8222   2.855   3.801   9.029  1.6127  0.9560  1.2139
   86SAPS  C219 8223   2.637   3.787   9.044 -0.5161 -0.0461  0.1395
   86SAPS  H19R 8224   2.625   3.889   9.002 -0.7879 -1.3210 -3.0600
   86SAPS  H19S 8225   2.560   3.782   9.124 -0.8105  1.7363 -0.0224
   86SAPS  C220 8226   2.617   3.696   8.923 -0.1533 -0.1548 -0.3849
   86SAPS  H20R 8227   2.634   3.590   8.952 -1.9433 -0.6270 -0.9971
   86SAPS  H20S 8228   2.687   3.714   8.840 -3.0075  1.2025 -2.5880
   86SAPS  H20T 8229   2.515   3.716   8.884 -0.0041  1.5976  0.0997
   86SAPS   C33 8230   3.846   3.157  10.135  0.9412 -0.6328  0.3254
   86SAPS   H3X 8231   3.943   3.129  10.181  0.1914 -1.9501  1.1241
   86SAPS   H3Y 8232   3.856   3.219  10.043  0.8218 -1.7921 -0.4763
   86SAPS   C34 8233   3.773   3.033  10.082  0.0413 -0.0282  0.0203
   86SAPS   H4X 8234   3.664   3.045  10.065  0.2751 -0.1303 -1.6066
   86SAPS   H4Y 8235   3.791   2.948  10.152  2.2570  0.4530  0.0739
   86SAPS   C35 8236   3.841   2.988   9.954  0.4891  0.3994 -0.4028
   86SAPS   H5X 8237   3.952   2.985   9.958  0.5081 -0.3942 -1.2103
   86SAPS   H5Y 8238   3.832   3.062   9.871  0.0799 -0.9476 -1.5778
   86SAPS   C36 8239   3.801   2.845   9.929  0.5436 -0.0197 -0.1387
   86SAPS   H6X 8240   3.819   2.775  10.014 -0.5764 -0.2112 -0.0497
   86SAPS   H6Y 8241   3.860   2.820   9.838 -1.1440 -3.2444 -0.4253
   86SAPS   C37 8242   3.653   2.824   9.887 -0.7856  0.1916 -0.0058
   86SAPS   H7X 8243   3.586   2.852   9.971 -1.4596 -2.2641  0.3285
   86SAPS   H7Y 8244   3.634   2.717   9.862 -0.5664  0.0889  0.2642
   86SAPS   C38 8245   3.603   2.911   9.772 -0.4868  0.3335  0.5428
   86SAPS   H8X 8246   3.647   2.871   9.678 -0.7845 -0.5088  0.7597
   86SAPS   H8Y 8247   3.633   3.018   9.782  0.7805  0.0136  0.3190
   86SAPS   C39 8248   3.450   2.903   9.758 -0.2510  0.3873  0.5879
   86SAPS   H9X 8249   3.385   2.944   9.838 -2.0061  0.9643 -1.0735
   86SAPS   H9Y 8250   3.427   2.794   9.754  1.7282  0.0112 -2.4599
   86SAPS  C310 8251   3.405   2.964   9.633  0.8578  0.3892  0.5650
   86SAPS  H10X 8252   3.449   2.910   9.547 -0.6970  0.1419 -0.1008
   86SAPS  H10Y 8253   3.444   3.068   9.637  0.4308  0.5950 -0.4346
   86SAPS  C311 8254   3.254   2.978   9.620 -0.1553 -0.3345  0.3101
   86SAPS  H11X 8255   3.214   3.019   9.715  1.4073  0.9948  0.4119
   86SAPS  H11Y 8256   3.201   2.883   9.596 -0.3553 -0.3186  0.6836
   86SAPS  C312 8257   3.194   3.081   9.523  0.0039  0.1131  0.1092
   86SAPS  H12X 8258   3.239   3.182   9.537  2.1592 -0.7634 -0.3281
   86SAPS  H12Y 8259   3.084   3.086   9.537  0.2105 -1.8838  2.8281
   86SAPS  C313 8260   3.226   3.044   9.379 -0.1148 -0.5140  0.1475
   86SAPS  H13X 8261   3.165   2.953   9.362  0.1850 -0.8804  0.9867
   86SAPS  H13Y 8262   3.336   3.028   9.374 -0.2826 -1.9136  0.6132
   86SAPS  C314 8263   3.200   3.153   9.281 -0.3427 -0.3321  0.0994
   86SAPS  H14X 8264   3.257   3.132   9.188  0.0018 -0.6228  0.3715
   86SAPS  H14Y 8265   3.232   3.251   9.322  1.7406 -1.2942  0.8289
   86SAPS  C315 8266   3.050   3.161   9.260  0.5042  0.1108  0.3765
   86SAPS  H15X 8267   2.989   3.167   9.353  0.8326 -1.6691  0.7187
   86SAPS  H15Y 8268   3.022   3.065   9.213 -1.7318  0.9628 -0.1231
   86SAPS  C316 8269   3.008   3.266   9.157  0.1851  0.0787 -0.2985
   86SAPS  H16X 8270   3.086   3.275   9.078  0.3643  0.4949 -0.0752
   86SAPS  H16Y 8271   2.998   3.371   9.190  1.2683 -0.7049  2.6849
   86SAPS  C317 8272   2.870   3.242   9.091 -0.4941  0.4761  0.4631
   86SAPS  H17X 8273   2.792   3.208   9.162 -0.8220 -0.7593 -0.4670
   86SAPS  H17Y 8274   2.868   3.156   9.020  1.8101  0.3156  0.5699
   86SAPS  C318 8275   2.814   3.369   9.016  0.0314  0.6168  0.1568
   86SAPS  H18X 8276   2.837   3.461   9.074 -1.2119  2.0831 -1.6046
   86SAPS  H18Y 8277   2.707   3.371   8.988  0.0849 -0.6262 -0.1760
   86SAPS  H18Z 8278   2.874   3.383   8.923 -2.0922 -0.0868 -1.3741
   87SAPS     N 8279   3.556   4.495  10.921 -0.1743 -0.1236 -0.2860
   87SAPS   HN1 8280   3.582   4.502  10.821  0.0565 -0.1164 -0.2254
   87SAPS   HN2 8281   3.455   4.468  10.921  0.0250 -0.9105 -1.2105
   87SAPS   HN3 8282   3.569   4.591  10.957  3.0672 -0.0967 -1.4532
   87SAPS   C12 8283   3.643   4.395  10.998  0.5960 -0.5391  0.4054
   87SAPS  H12A 8284   3.745   4.427  10.982 -0.7158  2.5275 -2.3526
   87SAPS   C13 8285   3.621   4.379  11.147 -0.2951  0.2316  0.4074
   87SAPS  O13A 8286   3.530   4.449  11.205  0.7151 -0.2425  0.5242
   87SAPS  O13B 8287   3.721   4.334  11.211 -0.7647 -0.0184 -0.1615
   87SAPS   C11 8288   3.625   4.256  10.925 -0.7662 -0.4354  0.7892
   87SAPS  H11A 8289   3.672   4.175  10.983  0.6355 -0.4267 -0.3043
   87SAPS  H11B 8290   3.669   4.264  10.823  1.3801 -0.9559  1.6600
   87SAPS     P 8291   3.453   4.085  10.834  0.0663  0.4660 -0.0265
   87SAPS   O13 8292   3.486   3.964  10.911  0.1094  0.0522 -0.6514
   87SAPS   O14 8293   3.310   4.101  10.784  0.5917 -0.3910 -0.0599
   87SAPS   O12 8294   3.494   4.223  10.914 -0.0621 -0.0381 -1.1269
   87SAPS   O11 8295   3.544   4.083  10.709 -0.5603  0.1103 -0.0127
   87SAPS    C1 8296   3.514   4.149  10.586  0.6427 -0.1144  0.1672
   87SAPS    HA 8297   3.420   4.209  10.586  1.2155  0.7931  0.4226
   87SAPS    HB 8298   3.596   4.218  10.556  0.2350 -0.7283 -2.5106
   87SAPS    C2 8299   3.481   4.051  10.464  0.0581 -0.3732 -0.2367
   87SAPS    HS 8300   3.381   4.007  10.484 -1.1965  0.6716 -3.8069
   87SAPS   O21 8301   3.580   3.942  10.459 -0.4989 -0.4867 -0.1024
   87SAPS   C21 8302   3.531   3.839  10.397  0.1990  0.6306  0.6629
   87SAPS   O22 8303   3.425   3.822  10.338 -0.1827  0.8177  0.1952
   87SAPS   C22 8304   3.640   3.740  10.365 -0.0549 -0.4091  0.2629
   87SAPS   H2R 8305   3.740   3.787  10.369  0.2490 -0.9922 -0.3269
   87SAPS   H2S 8306   3.637   3.650  10.429  1.8809 -0.3157  0.5140
   87SAPS    C3 8307   3.486   4.125  10.324  0.5229 -0.7340 -0.5362
   87SAPS    HX 8308   3.457   4.058  10.240 -0.4936 -0.7027 -0.2069
   87SAPS    HY 8309   3.593   4.149  10.305  0.9768  0.1794  2.9252
   87SAPS   O31 8310   3.400   4.243  10.336  0.1064 -0.2076 -0.0158
   87SAPS   C31 8311   3.277   4.213  10.302 -0.2137 -0.5821  0.2214
   87SAPS   O32 8312   3.221   4.109  10.281  0.5054 -0.1361 -0.5078
   87SAPS   C32 8313   3.201   4.344  10.287 -0.8367  0.1354  0.1911
   87SAPS   H2X 8314   3.212   4.411  10.375  0.1319  0.7330 -0.3731
   87SAPS   H2Y 8315   3.092   4.323  10.275 -0.7705  0.1654 -0.4711
   87SAPS   C23 8316   3.632   3.686  10.221  0.7494  0.3511  0.3666
   87SAPS   H3R 8317   3.528   3.661  10.189  0.7075  2.9322 -1.6572
   87SAPS   H3S 8318   3.702   3.603  10.199  0.0990 -0.1806  0.3000
   87SAPS   C24 8319   3.667   3.803  10.116 -0.2710  1.0200  0.5569
   87SAPS   H4R 8320   3.602   3.892  10.126  1.2210  2.3324 -1.0972
   87SAPS   H4S 8321   3.645   3.759  10.017 -1.8568  3.9329 -0.4341
   87SAPS   C25 8322   3.812   3.847  10.119  0.5089 -0.3289 -0.9120
   87SAPS   H5R 8323   3.841   3.896  10.213 -0.3796 -1.2235 -0.1450
   87SAPS   C26 8324   3.908   3.839  10.027 -0.5165 -0.2396  0.8207
   87SAPS   H6R 8325   4.011   3.857  10.061 -0.1201 -2.7678  1.0984
   87SAPS   C27 8326   3.908   3.776   9.886 -0.5172 -0.8136  0.5992
   87SAPS   H7R 8327   3.808   3.742   9.852  0.2560 -0.7975 -1.7938
   87SAPS   H7S 8328   3.952   3.674   9.893 -2.9254 -2.0224 -1.1470
   87SAPS   C28 8329   3.981   3.860   9.782  0.7819 -0.2247  0.5156
   87SAPS   H8R 8330   4.034   3.946   9.827  0.7920  0.0709 -0.0532
   87SAPS   C29 8331   3.977   3.842   9.644  0.2358  0.0803 -0.5478
   87SAPS   H9R 8332   4.019   3.919   9.578 -0.3120 -1.0231 -2.2171
   87SAPS  C210 8333   3.902   3.725   9.574 -0.1950 -0.4426  0.1001
   87SAPS  H10R 8334   3.837   3.671   9.646 -0.0649  2.8000  2.7342
   87SAPS  H10S 8335   3.980   3.654   9.539 -0.5615 -1.5909  1.5664
   87SAPS  C211 8336   3.815   3.761   9.456  0.2157  0.2437 -0.4982
   87SAPS  H11R 8337   3.865   3.746   9.359 -0.8365  0.2923 -1.0528
   87SAPS  C212 8338   3.676   3.784   9.464  0.1521  0.6972  0.5458
   87SAPS  H12R 8339   3.614   3.812   9.378  1.0540  1.2718  0.0848
   87SAPS  C213 8340   3.591   3.774   9.588 -0.0290 -0.0604  0.3547
   87SAPS  H13R 8341   3.633   3.703   9.663 -1.8899 -2.7897 -1.0935
   87SAPS  H13S 8342   3.491   3.734   9.560 -0.7135  1.0912  1.1150
   87SAPS  C214 8343   3.585   3.914   9.647  0.8275  0.7190 -0.4503
   87SAPS  H14R 8344   3.682   3.946   9.689  1.1398 -0.0234 -0.5956
   87SAPS  C215 8345   3.484   3.996   9.650  0.1473 -0.8390 -0.6908
   87SAPS  H15R 8346   3.492   4.084   9.716 -1.5320 -1.4802  0.4066
   87SAPS  C216 8347   3.347   3.954   9.598 -0.0012 -0.7762  0.3982
   87SAPS  H16R 8348   3.347   3.855   9.547 -0.9949 -1.9012  2.5378
   87SAPS  H16S 8349   3.304   4.032   9.531  1.6270 -0.0193  0.2004
   87SAPS  C217 8350   3.251   3.940   9.717 -0.6102  0.2065 -0.0130
   87SAPS  H17R 8351   3.148   3.921   9.681 -0.2757 -1.3602 -0.2196
   87SAPS  H17S 8352   3.238   4.029   9.781 -3.9677  0.0896 -0.4333
   87SAPS  C218 8353   3.277   3.824   9.816 -0.3203 -0.5810 -0.5069
   87SAPS  H18R 8354   3.361   3.845   9.885  0.0960  0.6381 -1.3739
   87SAPS  H18S 8355   3.291   3.725   9.767 -0.1590 -0.9954  0.3607
   87SAPS  C219 8356   3.152   3.802   9.911  0.3700 -0.1862 -0.8479
   87SAPS  H19R 8357   3.056   3.771   9.865 -0.1791 -1.5534  1.1249
   87SAPS  H19S 8358   3.121   3.900   9.953 -0.2320 -0.3927 -0.7948
   87SAPS  C220 8359   3.182   3.712  10.033 -0.1806  0.1525  0.7695
   87SAPS  H20R 8360   3.123   3.753  10.118 -0.4147  0.5490  0.4169
   87SAPS  H20S 8361   3.290   3.714  10.061 -0.3888  1.7765  1.5618
   87SAPS  H20T 8362   3.156   3.606  10.013  2.6679 -0.6365  1.0170
   87SAPS   C33 8363   3.252   4.434  10.169  0.5772  0.6840  0.7425
   87SAPS   H3X 8364   3.352   4.480  10.181  0.6236  0.7007  0.3036
   87SAPS   H3Y 8365   3.195   4.529  10.164 -2.0541 -0.8541  0.3442
   87SAPS   C34 8366   3.256   4.362  10.036  0.1458  0.5204 -0.4735
   87SAPS   H4X 8367   3.166   4.299  10.017  1.7721 -1.6617 -1.0973
   87SAPS   H4Y 8368   3.340   4.290  10.041  0.0552  0.4714  0.5003
   87SAPS   C35 8369   3.271   4.456   9.912  0.2047 -0.7162  0.0360
   87SAPS   H5X 8370   3.372   4.502   9.918  0.5087 -1.3964  0.1927
   87SAPS   H5Y 8371   3.189   4.531   9.908 -0.8650 -1.8463  0.4650
   87SAPS   C36 8372   3.271   4.374   9.781 -1.0576  0.0512 -0.2988
   87SAPS   H6X 8373   3.165   4.352   9.757 -1.6966  2.7153 -0.0805
   87SAPS   H6Y 8374   3.317   4.276   9.805 -2.0101 -0.1673  0.6541
   87SAPS   C37 8375   3.358   4.446   9.669 -0.0515 -0.7478 -0.1387
   87SAPS   H7X 8376   3.466   4.447   9.695  0.0638 -0.4946 -0.6204
   87SAPS   H7Y 8377   3.323   4.552   9.673  2.3637  0.2034 -2.6329
   87SAPS   C38 8378   3.348   4.391   9.533  0.5192 -0.3934 -0.1610
   87SAPS   H8X 8379   3.240   4.395   9.506  0.7273  0.6248 -0.8385
   87SAPS   H8Y 8380   3.365   4.281   9.526  2.2114 -0.2366  1.0921
   87SAPS   C39 8381   3.432   4.473   9.428  0.6505 -0.2457  0.3377
   87SAPS   H9X 8382   3.540   4.480   9.454  0.7405 -2.9055  0.8634
   87SAPS   H9Y 8383   3.380   4.571   9.427 -0.6744 -0.9391 -0.6573
   87SAPS  C310 8384   3.415   4.419   9.289 -0.3312  0.0191 -0.0368
   87SAPS  H10X 8385   3.304   4.413   9.286 -0.4224  0.8265  1.3794
   87SAPS  H10Y 8386   3.458   4.316   9.290 -1.5291 -0.4922  2.2765
   87SAPS  C311 8387   3.468   4.504   9.176 -1.0260 -0.3596 -0.5062
   87SAPS  H11X 8388   3.579   4.511   9.177 -1.0010 -0.7418 -0.5944
   87SAPS  H11Y 8389   3.424   4.606   9.179  1.9540  0.9358  2.9517
   87SAPS  C312 8390   3.442   4.451   9.029 -0.7164  0.6430  0.3653
   87SAPS  H12X 8391   3.342   4.403   9.019  0.6869 -1.9550 -2.0454
   87SAPS  H12Y 8392   3.514   4.375   8.989  0.5832  1.8872  0.3102
   87SAPS  C313 8393   3.462   4.566   8.935 -0.2597 -0.9615  0.6224
   87SAPS  H13X 8394   3.565   4.599   8.960  1.0210 -2.5524 -2.3726
   87SAPS  H13Y 8395   3.395   4.653   8.954 -0.4037 -1.0153  0.3616
   87SAPS  C314 8396   3.464   4.515   8.789 -0.1924 -0.5059  0.2545
   87SAPS  H14X 8397   3.501   4.412   8.773  3.6556  0.5808  1.7401
   87SAPS  H14Y 8398   3.536   4.584   8.740 -0.6131 -0.2401  0.0015
   87SAPS  C315 8399   3.329   4.527   8.720 -0.0134 -0.1663  0.3825
   87SAPS  H15X 8400   3.286   4.628   8.737  0.0231 -0.1553  0.4121
   87SAPS  H15Y 8401   3.252   4.456   8.759  0.1694 -1.4828 -1.5894
   87SAPS  C316 8402   3.333   4.489   8.568  0.0108 -0.4190  0.0654
   87SAPS  H16X 8403   3.360   4.570   8.497  1.0094 -0.7069  0.1128
   87SAPS  H16Y 8404   3.227   4.487   8.533  1.1643  0.8863 -3.7538
   87SAPS  C317 8405   3.389   4.348   8.534  0.1690 -0.6568 -0.1266
   87SAPS  H17X 8406   3.344   4.266   8.593  0.0024 -0.2064  0.3716
   87SAPS  H17Y 8407   3.495   4.355   8.566  0.2051 -1.6243 -0.0329
   87SAPS  C318 8408   3.370   4.317   8.386  0.2471  0.2429 -0.0150
   87SAPS  H18X 8409   3.447   4.244   8.354  1.7784  1.5390  0.6107
   87SAPS  H18Y 8410   3.399   4.405   8.323  2.2491  0.3200  0.9743
   87SAPS  H18Z 8411   3.271   4.285   8.348  0.0385 -0.3258  1.0083
   88SAPS     N 8412   5.964   1.998  10.957  0.2839 -0.5280 -0.4102
   88SAPS   HN1 8413   5.973   1.963  10.860  0.8193  1.3268 -1.0480
   88SAPS   HN2 8414   6.003   1.921  11.016  2.3919  0.4589 -0.4439
   88SAPS   HN3 8415   5.865   2.016  10.982  0.4682  0.0675 -0.0856
   88SAPS   C12 8416   6.033   2.118  10.993 -0.9892 -0.2674 -0.0836
   88SAPS  H12A 8417   5.990   2.192  10.928 -0.0843 -1.7044 -2.3688
   88SAPS   C13 8418   6.007   2.172  11.135 -0.0516 -0.1230  0.3845
   88SAPS  O13A 8419   5.958   2.087  11.217  0.0090  0.3455 -0.3756
   88SAPS  O13B 8420   6.049   2.289  11.168 -0.2996  0.6272 -0.1093
   88SAPS   C11 8421   6.194   2.095  10.978  0.9827 -0.6678 -0.0605
   88SAPS  H11A 8422   6.233   2.025  11.055  1.7820 -0.1938 -0.0281
   88SAPS  H11B 8423   6.243   2.194  10.985  0.1286 -0.3429  1.3473
   88SAPS     P 8424   6.377   2.020  10.818  0.3976  0.3813 -0.4558
   88SAPS   O13 8425   6.458   2.050  10.941 -0.2471 -0.5517 -0.2195
   88SAPS   O14 8426   6.391   1.880  10.770 -0.1372  0.2524 -0.0162
   88SAPS   O12 8427   6.218   2.045  10.849 -0.4460  0.3372 -0.1207
   88SAPS   O11 8428   6.426   2.114  10.709  0.2114  0.0423 -0.0957
   88SAPS    C1 8429   6.348   2.174  10.611  0.3971  0.1107  0.0532
   88SAPS    HA 8430   6.245   2.133  10.601 -0.5011  2.0149  1.1501
   88SAPS    HB 8431   6.347   2.284  10.628  0.0447 -0.1703  1.9457
   88SAPS    C2 8432   6.412   2.145  10.468  0.4321  0.2089 -0.2321
   88SAPS    HS 8433   6.513   2.192  10.465  0.7538 -0.3762  0.8508
   88SAPS   O21 8434   6.321   2.179  10.360  0.1405  0.3837 -0.3813
   88SAPS   C21 8435   6.282   2.308  10.355  0.2304  0.9863  0.0003
   88SAPS   O22 8436   6.316   2.398  10.426 -0.4044  0.2161  0.3157
   88SAPS   C22 8437   6.168   2.319  10.257  0.2366 -0.3605  0.5202
   88SAPS   H2R 8438   6.160   2.420  10.213 -3.8441 -0.4541  0.8015
   88SAPS   H2S 8439   6.166   2.241  10.178 -0.5665 -0.6523  0.8186
   88SAPS    C3 8440   6.438   1.997  10.454  0.4123  0.1187  0.4137
   88SAPS    HX 8441   6.355   1.933  10.492 -0.0040 -0.0362 -0.7109
   88SAPS    HY 8442   6.522   1.975  10.523  0.2892 -1.9334 -0.0380
   88SAPS   O31 8443   6.488   1.961  10.322 -0.1068  0.2981  0.3920
   88SAPS   C31 8444   6.408   1.896  10.241  0.5505 -0.7696  0.2451
   88SAPS   O32 8445   6.315   1.830  10.285 -0.0590 -0.2897  0.6835
   88SAPS   C32 8446   6.431   1.912  10.089 -0.0001  0.5036  0.3970
   88SAPS   H2X 8447   6.483   1.821  10.051 -1.4192  0.0089 -0.3666
   88SAPS   H2Y 8448   6.499   1.999  10.076  0.4955 -0.0955 -1.0558
   88SAPS   C23 8449   6.034   2.310  10.337 -0.2087  0.3682 -0.0074
   88SAPS   H3R 8450   6.030   2.367  10.433  3.2045  0.0633  0.3516
   88SAPS   H3S 8451   6.022   2.206  10.377 -2.2894  1.2540  1.8139
   88SAPS   C24 8452   5.903   2.337  10.261 -0.2857  0.0557 -0.0901
   88SAPS   H4R 8453   5.824   2.339  10.339  1.3652  0.0823  1.6430
   88SAPS   H4S 8454   5.882   2.255  10.189 -1.7172  1.4652 -1.2917
   88SAPS   C25 8455   5.913   2.473  10.201 -0.1824  0.2250  0.0382
   88SAPS   H5R 8456   5.921   2.553  10.276 -2.1551  0.8462 -0.3927
   88SAPS   C26 8457   5.917   2.506  10.068  0.8995 -0.8944  1.1621
   88SAPS   H6R 8458   5.916   2.614  10.046 -2.5965 -0.9570  0.6659
   88SAPS   C27 8459   5.909   2.419   9.945 -0.2374 -0.6067  0.1301
   88SAPS   H7R 8460   5.827   2.461   9.881 -0.5996 -1.8445 -0.2319
   88SAPS   H7S 8461   5.873   2.320   9.978  0.1498  0.0966  2.7298
   88SAPS   C28 8462   6.045   2.411   9.870  0.1603 -0.1312  0.1852
   88SAPS   H8R 8463   6.125   2.409   9.946  0.6477  0.2187 -0.3133
   88SAPS   C29 8464   6.066   2.387   9.736 -0.8695 -0.1632  0.1461
   88SAPS   H9R 8465   6.171   2.387   9.703 -0.6548  1.7355  0.7490
   88SAPS  C210 8466   5.957   2.362   9.631 -0.2351 -0.4939  0.1906
   88SAPS  H10R 8467   5.866   2.321   9.680  0.5840  0.0492  2.2208
   88SAPS  H10S 8468   5.982   2.279   9.562  1.3755  1.2928 -1.4114
   88SAPS  C211 8469   5.924   2.487   9.554  0.4837  0.5507 -0.9636
   88SAPS  H11R 8470   5.849   2.553   9.600  0.1949  0.4444 -1.2848
   88SAPS  C212 8471   5.960   2.518   9.432 -0.1570 -0.4312 -0.1383
   88SAPS  H12R 8472   5.932   2.614   9.386  0.8614 -1.2029 -2.4364
   88SAPS  C213 8473   6.044   2.430   9.344  0.0067 -0.7361  0.2545
   88SAPS  H13R 8474   5.984   2.340   9.316 -1.7422 -0.3530  2.5825
   88SAPS  H13S 8475   6.121   2.372   9.399  0.8624 -1.2957 -1.4934
   88SAPS  C214 8476   6.090   2.501   9.226 -0.2089  0.4216  0.0595
   88SAPS  H14R 8477   6.192   2.539   9.241 -0.6588  1.0959  1.4875
   88SAPS  C215 8478   6.021   2.525   9.111 -0.1455 -0.3849 -0.1515
   88SAPS  H15R 8479   6.081   2.578   9.037  2.8501 -1.5240  1.3690
   88SAPS  C216 8480   5.879   2.491   9.074  0.5901  0.5729 -0.3113
   88SAPS  H16R 8481   5.829   2.571   9.016  1.2977  0.6872 -0.7604
   88SAPS  H16S 8482   5.815   2.474   9.164  2.7451  0.3468  1.2398
   88SAPS  C217 8483   5.863   2.361   8.999 -1.1417  0.0567  1.4014
   88SAPS  H17R 8484   5.906   2.276   9.057  1.9677  1.5360  1.3787
   88SAPS  H17S 8485   5.920   2.384   8.906 -0.7138 -0.9315  1.4123
   88SAPS  C218 8486   5.718   2.342   8.955 -0.3389  0.3981 -0.2370
   88SAPS  H18R 8487   5.663   2.399   9.032 -0.5910 -2.0255  1.4337
   88SAPS  H18S 8488   5.696   2.233   8.960  0.6943  0.2204  0.5754
   88SAPS  C219 8489   5.690   2.380   8.813 -0.0975 -1.4457  0.4019
   88SAPS  H19R 8490   5.771   2.358   8.739  0.1494 -1.9632  0.8246
   88SAPS  H19S 8491   5.680   2.490   8.803  1.5273 -1.4114 -1.2864
   88SAPS  C220 8492   5.557   2.313   8.765 -0.6552 -0.7093  0.0644
   88SAPS  H20R 8493   5.547   2.203   8.759 -3.5720 -0.4351 -0.3708
   88SAPS  H20S 8494   5.536   2.353   8.663 -0.0954 -2.2793 -0.6747
   88SAPS  H20T 8495   5.469   2.351   8.821  1.1494  0.7216  2.0171
   88SAPS   C33 8496   6.301   1.929  10.006 -0.1748  0.2666  0.3166
   88SAPS   H3X 8497   6.250   2.020  10.044  0.9702  0.6613  0.9312
   88SAPS   H3Y 8498   6.231   1.842  10.007 -0.7735  0.6868 -1.8572
   88SAPS   C34 8499   6.330   1.957   9.861  0.4511 -0.1686 -0.3066
   88SAPS   H4X 8500   6.400   1.884   9.817 -0.7862 -0.3072 -2.0934
   88SAPS   H4Y 8501   6.371   2.060   9.853 -0.7563  0.1398 -3.0201
   88SAPS   C35 8502   6.208   1.958   9.768  0.8041  0.8335  1.0754
   88SAPS   H5X 8503   6.122   2.004   9.821 -1.2964  0.4386 -1.8232
   88SAPS   H5Y 8504   6.187   1.852   9.743 -0.4471  1.4230 -0.4809
   88SAPS   C36 8505   6.234   2.022   9.628 -0.5364  0.1384  0.4023
   88SAPS   H6X 8506   6.246   2.132   9.629 -4.8572  0.7032  2.1075
   88SAPS   H6Y 8507   6.146   2.009   9.561 -0.6193  0.7874  0.3819
   88SAPS   C37 8508   6.360   1.959   9.562  0.5509 -0.5636 -0.3572
   88SAPS   H7X 8509   6.351   1.850   9.579  0.8719 -0.6079 -0.4820
   88SAPS   H7Y 8510   6.451   1.993   9.615 -0.5877  0.1815  1.1553
   88SAPS   C38 8511   6.354   1.993   9.409  0.2748  0.0656  0.6095
   88SAPS   H8X 8512   6.257   1.974   9.359  0.6030  3.3731 -1.4517
   88SAPS   H8Y 8513   6.428   1.927   9.357  3.4954  1.9951  2.5633
   88SAPS   C39 8514   6.371   2.140   9.373  0.7949 -0.0704 -0.8819
   88SAPS   H9X 8515   6.473   2.174   9.403 -0.2422  1.6484  0.7842
   88SAPS   H9Y 8516   6.298   2.202   9.428 -0.1351 -1.7524 -0.1660
   88SAPS  C310 8517   6.364   2.171   9.223 -0.3694  0.0131  0.3751
   88SAPS  H10X 8518   6.442   2.113   9.170 -0.6343  0.0904 -0.1016
   88SAPS  H10Y 8519   6.395   2.278   9.216  0.7948 -0.2400  1.4501
   88SAPS  C311 8520   6.232   2.144   9.155 -0.6409  0.1941 -0.4936
   88SAPS  H11X 8521   6.147   2.161   9.225  0.2262 -0.2859  0.6828
   88SAPS  H11Y 8522   6.219   2.034   9.155  1.2833 -0.0460 -0.7022
   88SAPS  C312 8523   6.194   2.210   9.028  0.5410  0.1510  0.6392
   88SAPS  H12X 8524   6.186   2.319   9.049  0.1759  0.3345 -0.4442
   88SAPS  H12Y 8525   6.096   2.171   8.995 -0.6869  2.5084  1.4043
   88SAPS  C313 8526   6.294   2.187   8.904 -0.1753 -0.5304 -0.6115
   88SAPS  H13X 8527   6.295   2.077   8.885 -0.3210 -0.9645  1.7419
   88SAPS  H13Y 8528   6.393   2.235   8.919 -0.2732 -1.1836  2.6195
   88SAPS  C314 8529   6.233   2.257   8.776 -0.5702 -0.7294 -0.3221
   88SAPS  H14X 8530   6.226   2.363   8.809  2.5797  0.0486 -1.9289
   88SAPS  H14Y 8531   6.134   2.220   8.743  1.1331 -2.2555 -3.9595
   88SAPS  C315 8532   6.330   2.239   8.657  0.4257  0.0042  0.4105
   88SAPS  H15X 8533   6.423   2.291   8.687  0.1215  0.6093  0.3163
   88SAPS  H15Y 8534   6.287   2.296   8.572  0.7853  0.8386  0.7841
   88SAPS  C316 8535   6.375   2.092   8.621 -0.4446 -0.1926  0.0657
   88SAPS  H16X 8536   6.430   2.034   8.699 -1.3345  0.0736  0.8960
   88SAPS  H16Y 8537   6.441   2.084   8.532  0.8030  0.9228  0.8759
   88SAPS  C317 8538   6.253   2.011   8.580 -0.0543  1.2861 -0.8338
   88SAPS  H17X 8539   6.194   2.074   8.510  0.2520  0.8252 -1.5138
   88SAPS  H17Y 8540   6.182   2.001   8.665  1.7082 -3.7129  0.2219
   88SAPS  C318 8541   6.289   1.874   8.522  0.0780  0.2392 -0.0068
   88SAPS  H18X 8542   6.351   1.880   8.430  0.5899 -1.7336  0.1813
   88SAPS  H18Y 8543   6.203   1.807   8.502  0.0413  0.7647 -1.6614
   88SAPS  H18Z 8544   6.355   1.816   8.590 -0.7823 -0.4990  0.2077
   89SAPS     N 8545   4.932   5.548  10.883 -0.2060  0.7200 -0.0667
   89SAPS   HN1 8546   4.903   5.645  10.904  1.0163  0.9561  0.5736
   89SAPS   HN2 8547   5.001   5.517  10.955  0.0609  2.8671  0.6286
   89SAPS   HN3 8548   4.977   5.550  10.788  1.1985  0.2140  0.5678
   89SAPS   C12 8549   4.822   5.451  10.880 -0.2260 -0.1250 -0.0283
   89SAPS  H12A 8550   4.812   5.404  10.977  2.8095  1.8342  1.3130
   89SAPS   C13 8551   4.685   5.501  10.829 -0.3728 -0.9236  0.0163
   89SAPS  O13A 8552   4.655   5.625  10.834  0.5593 -0.1887 -0.1480
   89SAPS  O13B 8553   4.597   5.420  10.811 -0.2422  0.2822  0.1065
   89SAPS   C11 8554   4.871   5.335  10.789 -0.4233  0.9794 -0.2797
   89SAPS  H11A 8555   4.861   5.368  10.683  0.5973  0.0025 -0.6945
   89SAPS  H11B 8556   4.810   5.242  10.793  0.2216  0.5549 -0.3125
   89SAPS     P 8557   5.077   5.158  10.759 -0.4960  0.2533  0.0196
   89SAPS   O13 8558   5.199   5.189  10.687 -0.6259  0.0984  0.3463
   89SAPS   O14 8559   5.084   5.062  10.869 -0.2261  0.2275  0.4046
   89SAPS   O12 8560   5.008   5.295  10.813 -0.2579  0.5577  0.8849
   89SAPS   O11 8561   4.978   5.099  10.655  0.2186  0.0154  0.1071
   89SAPS    C1 8562   5.011   5.057  10.522  0.2256 -0.1923  0.1728
   89SAPS    HA 8563   5.081   5.130  10.474  0.6422 -2.3266 -2.5804
   89SAPS    HB 8564   5.062   4.959  10.525  1.2143  0.2441 -1.4582
   89SAPS    C2 8565   4.882   5.034  10.445 -0.6036  0.2390 -0.4616
   89SAPS    HS 8566   4.813   4.980  10.513  0.3005 -1.7374 -1.0549
   89SAPS   O21 8567   4.906   4.951  10.328  0.6979 -0.8256 -0.3620
   89SAPS   C21 8568   4.797   4.891  10.272  0.8284 -0.0901  0.3766
   89SAPS   O22 8569   4.679   4.914  10.306  0.4990 -0.0287 -0.5040
   89SAPS   C22 8570   4.844   4.810  10.150  0.2017  0.3702  0.8556
   89SAPS   H2R 8571   4.911   4.731  10.190  0.6339 -0.1391 -0.8030
   89SAPS   H2S 8572   4.761   4.754  10.102  1.4484 -0.7810 -0.0116
   89SAPS    C3 8573   4.829   5.178  10.407 -0.1822 -0.3574  0.2433
   89SAPS    HX 8574   4.806   5.227  10.504 -0.4380  1.5290 -0.7515
   89SAPS    HY 8575   4.731   5.166  10.355  0.9164  0.4960 -2.0797
   89SAPS   O31 8576   4.928   5.244  10.328 -0.1666 -0.8221 -0.4142
   89SAPS   C31 8577   4.910   5.381  10.326 -0.1990 -0.4413  0.6765
   89SAPS   O32 8578   4.832   5.446  10.393  0.4243  0.1316  0.1014
   89SAPS   C32 8579   5.009   5.436  10.230  0.3904 -0.0907  0.1894
   89SAPS   H2X 8580   5.112   5.429  10.270  1.8433 -2.6085 -3.6971
   89SAPS   H2Y 8581   4.986   5.542  10.206  1.4958  0.1287  0.0746
   89SAPS   C23 8582   4.932   4.898  10.053 -0.0562 -0.6949  0.2837
   89SAPS   H3R 8583   5.012   4.834  10.010  0.8765  0.8314 -0.2886
   89SAPS   H3S 8584   4.988   4.978  10.107  0.6634 -1.9232  1.3653
   89SAPS   C24 8585   4.857   4.972   9.936 -0.0336 -0.4367  0.0212
   89SAPS   H4R 8586   4.930   5.027   9.873  1.0680 -1.0852  0.6997
   89SAPS   H4S 8587   4.796   5.047   9.991  0.0097 -1.5777  1.6866
   89SAPS   C25 8588   4.784   4.873   9.855  0.1475  0.3662 -0.5364
   89SAPS   H5R 8589   4.707   4.824   9.917  0.4440  0.4188 -0.1217
   89SAPS   C26 8590   4.809   4.825   9.732 -0.5363 -0.0144  0.6545
   89SAPS   H6R 8591   4.735   4.754   9.693  0.7862 -0.4050 -1.2247
   89SAPS   C27 8592   4.927   4.859   9.644  0.3104 -0.2026  0.1462
   89SAPS   H7R 8593   4.951   4.771   9.581 -1.2911 -0.8849  0.4710
   89SAPS   H7S 8594   5.010   4.884   9.713  1.2594  0.7441 -1.3050
   89SAPS   C28 8595   4.899   4.990   9.559 -0.0855  0.4052 -0.6442
   89SAPS   H8R 8596   4.851   5.071   9.615  0.7199 -0.3792  1.2291
   89SAPS   C29 8597   4.934   5.005   9.426 -0.6438 -0.5837  0.2199
   89SAPS   H9R 8598   4.894   5.090   9.369 -0.1259 -0.3781  0.1627
   89SAPS  C210 8599   4.997   4.905   9.332  0.2190  0.1813  0.2233
   89SAPS  H10R 8600   4.917   4.849   9.279 -0.2922  2.2621 -1.2205
   89SAPS  H10S 8601   5.046   4.825   9.393  0.3435  1.6106  2.0540
   89SAPS  C211 8602   5.091   4.968   9.241  0.6752  0.1107  0.0726
   89SAPS  H11R 8603   5.183   5.008   9.286  0.3216 -0.4524  1.3170
   89SAPS  C212 8604   5.073   4.988   9.106  0.0947  0.6032 -0.6519
   89SAPS  H12R 8605   5.153   5.041   9.052  2.4637 -3.1666 -1.0357
   89SAPS  C213 8606   4.954   4.947   9.025  0.2682 -0.3266  1.5685
   89SAPS  H13R 8607   4.871   4.954   9.098 -1.3067  0.9187 -0.2608
   89SAPS  H13S 8608   4.961   4.839   8.997  0.9174 -0.2703  1.5104
   89SAPS  C214 8609   4.936   5.043   8.909  0.0555 -0.3747 -0.9232
   89SAPS  H14R 8610   4.899   5.141   8.942  0.2779 -0.6430  0.1502
   89SAPS  C215 8611   4.968   5.021   8.777 -0.4119  0.3342  0.8752
   89SAPS  H15R 8612   4.943   5.104   8.709 -1.2636 -0.0042  0.7721
   89SAPS  C216 8613   5.024   4.890   8.719 -0.1007 -0.5029 -0.2107
   89SAPS  H16R 8614   4.945   4.834   8.665  0.3092  0.1753 -1.5253
   89SAPS  H16S 8615   5.056   4.814   8.794 -0.1679 -2.0940 -1.7580
   89SAPS  C217 8616   5.133   4.906   8.611 -0.3291 -0.1860  0.4815
   89SAPS  H17R 8617   5.223   4.967   8.632  0.1528 -1.1073  1.1218
   89SAPS  H17S 8618   5.082   4.958   8.527 -0.7847 -1.4468 -0.0429
   89SAPS  C218 8619   5.188   4.770   8.559 -0.3766  1.1908  0.4158
   89SAPS  H18R 8620   5.120   4.683   8.545  0.0211  0.3379  3.4361
   89SAPS  H18S 8621   5.264   4.737   8.633 -2.4028 -0.4382  1.8311
   89SAPS  C219 8622   5.263   4.799   8.432 -0.4011  0.0531  0.9718
   89SAPS  H19R 8623   5.327   4.710   8.410  0.5188  0.8760  0.2841
   89SAPS  H19S 8624   5.325   4.891   8.438  0.3383 -0.3488 -0.2955
   89SAPS  C220 8625   5.174   4.804   8.313  0.2858  0.0448 -0.4646
   89SAPS  H20R 8626   5.242   4.807   8.225 -0.3492  0.7858 -0.9407
   89SAPS  H20S 8627   5.134   4.908   8.310  1.4823  0.5095 -0.3292
   89SAPS  H20T 8628   5.092   4.730   8.298  1.3919 -2.0128  3.2040
   89SAPS   C33 8629   5.000   5.362  10.087 -0.1249 -0.5300 -0.8106
   89SAPS   H3X 8630   4.906   5.306  10.071 -0.4665  0.0059 -0.6823
   89SAPS   H3Y 8631   5.090   5.299  10.073  0.0586 -0.1615 -1.3137
   89SAPS   C34 8632   5.024   5.463   9.970  0.3788  0.1428 -0.7782
   89SAPS   H4X 8633   5.119   5.519   9.982  1.0469 -1.3343  1.1322
   89SAPS   H4Y 8634   4.939   5.535   9.969 -0.0249 -0.3117  0.2400
   89SAPS   C35 8635   5.033   5.398   9.833  0.2273  0.3157 -0.3608
   89SAPS   H5X 8636   4.931   5.367   9.801 -0.3694  1.0057  0.8468
   89SAPS   H5Y 8637   5.110   5.317   9.832 -0.2383 -0.1359 -0.3483
   89SAPS   C36 8638   5.080   5.507   9.731 -0.1139  0.1461 -0.2217
   89SAPS   H6X 8639   5.159   5.578   9.763  0.0866 -0.2763  0.2344
   89SAPS   H6Y 8640   4.995   5.571   9.701 -0.1973  0.7947  1.3667
   89SAPS   C37 8641   5.121   5.434   9.597  0.3150 -0.2721  0.7878
   89SAPS   H7X 8642   5.055   5.352   9.561  1.8795 -1.4943  0.6191
   89SAPS   H7Y 8643   5.216   5.376   9.606 -0.3477 -1.6533 -0.6994
   89SAPS   C38 8644   5.133   5.530   9.473 -0.2263  0.4420  0.4815
   89SAPS   H8X 8645   5.207   5.609   9.497  2.2945 -1.8297  0.4430
   89SAPS   H8Y 8646   5.038   5.586   9.457 -0.9409 -0.4396  1.5453
   89SAPS   C39 8647   5.196   5.475   9.342  1.1254 -0.1185  0.9824
   89SAPS   H9X 8648   5.234   5.552   9.272 -0.0142 -2.2951 -2.1511
   89SAPS   H9Y 8649   5.118   5.420   9.286  3.1589 -0.9002 -1.1822
   89SAPS  C310 8650   5.306   5.378   9.353  0.1830 -0.2759 -0.7020
   89SAPS  H10X 8651   5.290   5.311   9.440  1.8149  0.3469  0.1143
   89SAPS  H10Y 8652   5.395   5.438   9.382 -0.1139  0.5324 -1.4258
   89SAPS  C311 8653   5.346   5.303   9.219  0.7650  0.2154  0.8333
   89SAPS  H11X 8654   5.257   5.250   9.180  1.3425  1.2441 -2.0407
   89SAPS  H11Y 8655   5.438   5.247   9.246  0.3333 -0.9106  0.0093
   89SAPS  C312 8656   5.394   5.406   9.108  0.0533 -0.1062  0.8033
   89SAPS  H12X 8657   5.466   5.474   9.159 -0.5182  1.0751  0.0716
   89SAPS  H12Y 8658   5.309   5.470   9.075 -1.8894 -1.7013  2.6237
   89SAPS  C313 8659   5.466   5.344   8.987  0.5885 -0.2005  0.4825
   89SAPS  H13X 8660   5.482   5.236   9.007  0.6195 -0.0832  1.1018
   89SAPS  H13Y 8661   5.571   5.380   8.981  0.2735  0.7808  0.8333
   89SAPS  C314 8662   5.387   5.376   8.862 -0.2264  0.3309  0.5419
   89SAPS  H14X 8663   5.386   5.485   8.841 -1.6603 -0.1699 -2.3030
   89SAPS  H14Y 8664   5.284   5.336   8.874  0.5851 -1.4852  1.6854
   89SAPS  C315 8665   5.437   5.292   8.744  0.5732 -0.7888 -0.6012
   89SAPS  H15X 8666   5.442   5.185   8.776 -1.4292 -0.8994 -0.5834
   89SAPS  H15Y 8667   5.541   5.323   8.721 -0.0655  0.0136 -2.4824
   89SAPS  C316 8668   5.360   5.307   8.613 -0.5135  0.7482 -0.1474
   89SAPS  H16X 8669   5.269   5.244   8.614 -0.6040  0.8362 -1.7983
   89SAPS  H16Y 8670   5.427   5.264   8.536 -0.1073  1.2075 -0.0600
   89SAPS  C317 8671   5.318   5.453   8.579 -0.4481 -0.0695 -0.6856
   89SAPS  H17X 8672   5.399   5.527   8.593 -0.6549 -0.3135  2.1450
   89SAPS  H17Y 8673   5.238   5.475   8.653 -0.8273  1.5352 -1.5416
   89SAPS  C318 8674   5.256   5.469   8.438  0.1086 -0.8304 -0.3156
   89SAPS  H18X 8675   5.300   5.407   8.357 -2.1657 -1.8566 -0.7998
   89SAPS  H18Y 8676   5.280   5.572   8.402  1.3607 -1.1046 -0.2854
   89SAPS  H18Z 8677   5.147   5.446   8.438  0.2851 -1.6593  0.0643
   90SAPS     N 8678   0.735   4.896  10.715  0.4729  0.0048  0.3803
   90SAPS   HN1 8679   0.752   4.989  10.757 -1.2729  0.4590  0.1194
   90SAPS   HN2 8680   0.798   4.826  10.760  0.8839 -0.0481 -0.2852
   90SAPS   HN3 8681   0.766   4.899  10.616 -1.0276  1.1974 -0.0733
   90SAPS   C12 8682   0.591   4.841  10.733  0.1322 -0.1681 -0.3181
   90SAPS  H12A 8683   0.598   4.737  10.705  0.4833 -0.6521  1.5053
   90SAPS   C13 8684   0.542   4.834  10.880 -0.5720 -0.0254  0.6051
   90SAPS  O13A 8685   0.633   4.836  10.965  0.7389  0.2284  0.5415
   90SAPS  O13B 8686   0.419   4.812  10.905  0.2610 -0.2895  0.2880
   90SAPS   C11 8687   0.497   4.920  10.642 -0.1632  0.1875 -0.5471
   90SAPS  H11A 8688   0.403   4.866  10.666 -0.5591  0.5239 -1.3134
   90SAPS  H11B 8689   0.519   4.905  10.534  0.3007 -0.1591 -0.4060
   90SAPS     P 8690   0.352   5.126  10.672  0.1558 -0.0315  0.0336
   90SAPS   O13 8691   0.277   5.070  10.787  0.9583 -0.7262 -0.4121
   90SAPS   O14 8692   0.369   5.275  10.669  0.1175 -0.1469  0.5589
   90SAPS   O12 8693   0.487   5.056  10.670  0.3332 -0.0971  0.2457
   90SAPS   O11 8694   0.293   5.074  10.538  0.3483  0.3096 -0.8651
   90SAPS    C1 8695   0.149   5.080  10.522 -0.1121 -0.6165 -0.2265
   90SAPS    HA 8696   0.095   5.059  10.617 -1.3808 -0.1047 -0.8288
   90SAPS    HB 8697   0.120   5.186  10.510 -0.0601 -0.6147 -0.3337
   90SAPS    C2 8698   0.090   4.994  10.414  0.6843  0.2191  0.1020
   90SAPS    HS 8699   0.067   4.890  10.447 -1.2152  0.1655 -1.3053
   90SAPS   O21 8700   0.173   5.001  10.300 -0.5698 -0.2486 -0.2092
   90SAPS   C21 8701   0.206   4.886  10.243 -0.0036  0.4843  0.0008
   90SAPS   O22 8702   0.164   4.776  10.277 -0.1977  0.6514 -0.3683
   90SAPS   C22 8703   0.297   4.912  10.120 -0.1731 -0.6694  0.0470
   90SAPS   H2R 8704   0.259   4.993  10.054 -1.2098 -0.2297  1.1531
   90SAPS   H2S 8705   0.400   4.929  10.157 -0.4745 -0.6236  0.8954
   90SAPS    C3 8706  -0.059   5.033  10.380  0.6579 -0.3739 -0.0967
   90SAPS    HX 8707  -0.070   5.143  10.371  0.1444 -0.4341 -0.2165
   90SAPS    HY 8708  -0.120   5.007  10.469  1.2174 -1.5328 -0.0294
   90SAPS   O31 8709  -0.118   4.969  10.266  0.0628  0.0161 -0.2699
   90SAPS   C31 8710  -0.092   5.012  10.144 -0.1856  0.3849  0.0868
   90SAPS   O32 8711  -0.014   5.099  10.113 -0.1899 -0.0081  0.0516
   90SAPS   C32 8712  -0.177   4.931  10.048  0.1432  0.1238  0.8483
   90SAPS   H2X 8713  -0.277   4.978  10.060 -0.2996 -0.2257 -1.3326
   90SAPS   H2Y 8714  -0.186   4.824  10.077 -0.3841  0.4429  1.8836
   90SAPS   C23 8715   0.298   4.779  10.036  0.2757  0.1368  0.6278
   90SAPS   H3R 8716   0.194   4.744  10.024 -0.4201  2.4693 -0.4347
   90SAPS   H3S 8717   0.344   4.696  10.093  1.1308 -0.1449 -0.4476
   90SAPS   C24 8718   0.367   4.805   9.901 -0.2446  0.7513 -0.4148
   90SAPS   H4R 8719   0.423   4.717   9.862 -0.5622  0.5934 -0.5130
   90SAPS   H4S 8720   0.434   4.894   9.910 -0.6236  0.7869  2.3945
   90SAPS   C25 8721   0.274   4.859   9.789  0.0909 -0.1196 -0.2302
   90SAPS   H5R 8722   0.225   4.955   9.811 -2.3320 -0.9019 -1.9934
   90SAPS   C26 8723   0.230   4.796   9.679 -0.2229 -0.2040 -0.0355
   90SAPS   H6R 8724   0.164   4.846   9.607 -1.0396 -0.2391  0.6705
   90SAPS   C27 8725   0.268   4.659   9.630 -0.1795 -0.2153 -0.0064
   90SAPS   H7R 8726   0.182   4.612   9.579  0.2714 -0.3177 -0.6884
   90SAPS   H7S 8727   0.281   4.595   9.719 -0.8056  0.3550  0.4980
   90SAPS   C28 8728   0.392   4.634   9.551 -0.5114 -0.8021 -0.1668
   90SAPS   H8R 8729   0.467   4.563   9.588  0.4973 -0.4186 -1.4342
   90SAPS   C29 8730   0.414   4.684   9.429  0.4000  0.6468  0.1488
   90SAPS   H9R 8731   0.500   4.644   9.374  0.4427 -1.7404  1.8994
   90SAPS  C210 8732   0.323   4.775   9.350  0.4384  0.0988  0.5579
   90SAPS  H10R 8733   0.366   4.817   9.257 -0.4113  0.0088  0.1155
   90SAPS  H10S 8734   0.298   4.870   9.403 -0.7453 -0.2539  0.6540
   90SAPS  C211 8735   0.192   4.711   9.318 -0.4595 -0.2321  0.2522
   90SAPS  H11R 8736   0.177   4.609   9.357 -0.8955  0.1685  1.1411
   90SAPS  C212 8737   0.087   4.775   9.256 -0.1461  0.4056 -0.3241
   90SAPS  H12R 8738  -0.012   4.727   9.253 -0.1805  0.3934  0.7940
   90SAPS  C213 8739   0.091   4.924   9.205 -0.6088  0.3148 -0.0544
   90SAPS  H13R 8740   0.161   4.981   9.269 -2.9422  1.1269  1.8423
   90SAPS  H13S 8741  -0.007   4.974   9.217  0.0105  1.3527  0.7473
   90SAPS  C214 8742   0.141   4.929   9.066  0.0257 -0.6160  0.4207
   90SAPS  H14R 8743   0.207   4.846   9.036 -0.1582 -0.2781 -0.9753
   90SAPS  C215 8744   0.107   5.008   8.965 -0.0319  0.0032  0.0845
   90SAPS  H15R 8745   0.159   4.987   8.870  3.4012  0.9899  1.6770
   90SAPS  C216 8746   0.011   5.126   8.964 -0.0199 -0.4538  0.4751
   90SAPS  H16R 8747   0.063   5.216   9.005 -1.7538  1.4531 -1.3615
   90SAPS  H16S 8748  -0.078   5.101   9.026 -0.1037 -0.0872  0.5084
   90SAPS  C217 8749  -0.036   5.169   8.821  0.1942  0.3987 -0.7653
   90SAPS  H17R 8750  -0.118   5.239   8.847 -0.4502 -0.2323 -1.1070
   90SAPS  H17S 8751  -0.073   5.084   8.761  1.1000 -1.1896  0.8656
   90SAPS  C218 8752   0.071   5.249   8.751 -0.7532 -0.1484  0.4622
   90SAPS  H18R 8753   0.166   5.192   8.738 -0.2522  0.3249  1.9634
   90SAPS  H18S 8754   0.084   5.339   8.814  0.7955  0.1507 -0.2569
   90SAPS  C219 8755   0.039   5.289   8.606 -0.2404  0.4036 -0.3992
   90SAPS  H19R 8756  -0.051   5.353   8.608  0.0206  0.7658  1.8756
   90SAPS  H19S 8757   0.025   5.193   8.552  0.7592 -1.4064  2.4238
   90SAPS  C220 8758   0.155   5.367   8.538  0.0724 -0.3915 -0.1879
   90SAPS  H20R 8759   0.184   5.462   8.588 -1.0896 -0.3848  0.4785
   90SAPS  H20S 8760   0.132   5.383   8.430  0.6110 -0.7445 -0.3562
   90SAPS  H20T 8761   0.246   5.304   8.535  0.8356  0.7407 -2.1382
   90SAPS   C33 8762  -0.133   4.930   9.900  0.1376  0.3819 -0.2776
   90SAPS   H3X 8763  -0.037   4.874   9.896 -0.5845 -0.9479  0.7407
   90SAPS   H3Y 8764  -0.109   5.031   9.861  1.3817 -0.4267 -1.6574
   90SAPS   C34 8765  -0.250   4.873   9.819  0.3947 -0.3548  0.9075
   90SAPS   H4X 8766  -0.341   4.937   9.816  1.0819  0.5703 -1.1821
   90SAPS   H4Y 8767  -0.277   4.772   9.856  0.6197 -1.6142 -2.1496
   90SAPS   C35 8768  -0.207   4.853   9.677  0.9534  0.1796  0.3442
   90SAPS   H5X 8769  -0.108   4.802   9.676  2.1777  2.4664 -1.8246
   90SAPS   H5Y 8770  -0.194   4.947   9.620 -0.8334  0.2078 -0.0416
   90SAPS   C36 8771  -0.292   4.761   9.588  0.3241 -0.3055 -0.2972
   90SAPS   H6X 8772  -0.395   4.801   9.592  0.6282  0.4523  0.0842
   90SAPS   H6Y 8773  -0.313   4.665   9.639  0.7075  2.1721  4.7954
   90SAPS   C37 8774  -0.259   4.744   9.436  0.1245  0.6613  0.4321
   90SAPS   H7X 8775  -0.153   4.761   9.410  0.6525 -1.3880  1.1735
   90SAPS   H7Y 8776  -0.311   4.827   9.382  1.8200  2.3338  1.3031
   90SAPS   C38 8777  -0.288   4.604   9.378 -0.4532 -0.0331  0.4011
   90SAPS   H8X 8778  -0.396   4.592   9.397 -0.3985 -0.2301  0.5922
   90SAPS   H8Y 8779  -0.241   4.523   9.438 -0.3276  0.2342  0.6578
   90SAPS   C39 8780  -0.256   4.585   9.227 -0.0801  0.0592 -0.2403
   90SAPS   H9X 8781  -0.287   4.483   9.197 -0.0259 -0.1873  0.5447
   90SAPS   H9Y 8782  -0.145   4.586   9.229 -0.0930  0.4047  1.2643
   90SAPS  C310 8783  -0.311   4.692   9.131  0.6120 -0.6884 -0.6040
   90SAPS  H10X 8784  -0.271   4.793   9.154  0.3138 -0.4632 -1.0589
   90SAPS  H10Y 8785  -0.422   4.692   9.133  0.6069  1.3992  1.5417
   90SAPS  C311 8786  -0.256   4.664   8.986 -0.6612 -0.1467 -1.2703
   90SAPS  H11X 8787  -0.166   4.598   8.985 -1.5361 -1.3561 -1.8642
   90SAPS  H11Y 8788  -0.223   4.760   8.941 -0.3883  0.3952  0.0542
   90SAPS  C312 8789  -0.359   4.600   8.897 -0.1451  0.3895 -0.3865
   90SAPS  H12X 8790  -0.448   4.665   8.885  0.3694  1.1907  0.1145
   90SAPS  H12Y 8791  -0.385   4.510   8.957 -0.8759  1.5962  1.1063
   90SAPS  C313 8792  -0.300   4.562   8.757  0.0029  0.0418  0.1069
   90SAPS  H13X 8793  -0.200   4.514   8.757 -1.0691 -2.2332  0.0321
   90SAPS  H13Y 8794  -0.296   4.660   8.705  1.2163  1.0387  2.0233
   90SAPS  C314 8795  -0.394   4.468   8.682 -0.2760  0.1075  0.0309
   90SAPS  H14X 8796  -0.488   4.527   8.675 -0.5521 -0.3858 -0.4180
   90SAPS  H14Y 8797  -0.409   4.374   8.738 -0.3018 -0.8821 -1.6121
   90SAPS  C315 8798  -0.339   4.437   8.545  0.0779 -0.9546 -0.5605
   90SAPS  H15X 8799  -0.233   4.404   8.541  0.6616  0.7647  0.5092
   90SAPS  H15Y 8800  -0.341   4.534   8.491  2.8898 -1.5355 -1.8469
   90SAPS  C316 8801  -0.422   4.331   8.467 -0.7160  0.0911  0.0163
   90SAPS  H16X 8802  -0.514   4.379   8.427 -1.0597 -0.0555  0.6344
   90SAPS  H16Y 8803  -0.458   4.256   8.540 -0.4107  0.3060  0.3909
   90SAPS  C317 8804  -0.341   4.269   8.351 -0.3972 -0.4897 -0.1838
   90SAPS  H17X 8805  -0.248   4.225   8.393  0.9167  0.4539 -2.0506
   90SAPS  H17Y 8806  -0.304   4.347   8.282 -0.0391 -1.0683 -0.6536
   90SAPS  C318 8807  -0.407   4.160   8.265  0.1193 -0.5803 -0.8650
   90SAPS  H18X 8808  -0.448   4.077   8.326 -0.4957  1.4547  1.5590
   90SAPS  H18Y 8809  -0.331   4.135   8.188  0.2660  2.8607 -1.9403
   90SAPS  H18Z 8810  -0.492   4.201   8.206  0.4153  0.6612 -0.4315
   91SAPS     N 8811   5.069   3.018   6.066 -0.4652 -0.3625  0.5658
   91SAPS   HN1 8812   4.989   3.034   6.002  0.6409 -1.5926 -1.1698
   91SAPS   HN2 8813   5.038   3.022   6.166 -0.2353  2.7702  0.5594
   91SAPS   HN3 8814   5.124   3.105   6.057 -0.6228 -0.2907  0.3164
   91SAPS   C12 8815   5.155   2.891   6.049 -0.6214  0.4888 -0.3375
   91SAPS  H12A 8816   5.086   2.808   6.054 -1.2119  0.9798 -0.1966
   91SAPS   C13 8817   5.222   2.881   5.908 -0.5109  0.6243  0.5168
   91SAPS  O13A 8818   5.196   2.970   5.819  0.4280 -0.3129  0.2433
   91SAPS  O13B 8819   5.275   2.773   5.871 -0.3616 -0.2044 -0.4619
   91SAPS   C11 8820   5.253   2.870   6.166  0.5160  0.1251  0.4688
   91SAPS  H11A 8821   5.313   2.785   6.126 -0.5448 -1.5486  2.3558
   91SAPS  H11B 8822   5.216   2.820   6.258  0.2930 -1.1949 -0.3371
   91SAPS     P 8823   5.477   2.984   6.229 -0.3425  0.0226  0.0007
   91SAPS   O13 8824   5.536   2.900   6.124  0.0843  0.3090 -0.1374
   91SAPS   O14 8825   5.525   3.126   6.246  0.1351 -0.4182  0.3063
   91SAPS   O12 8826   5.318   2.995   6.200  0.5705  0.2361  0.4395
   91SAPS   O11 8827   5.481   2.918   6.368  0.0956 -0.0121  0.5115
   91SAPS    C1 8828   5.531   2.782   6.389 -0.5763 -0.4353  0.2022
   91SAPS    HA 8829   5.484   2.711   6.317  2.8685 -1.6412 -0.9420
   91SAPS    HB 8830   5.636   2.774   6.354 -1.6258 -1.2902 -2.9425
   91SAPS    C2 8831   5.511   2.739   6.531 -0.2102  0.0880  0.3133
   91SAPS    HS 8832   5.540   2.633   6.542 -1.1173 -0.1189  0.8252
   91SAPS   O21 8833   5.377   2.777   6.577  0.2698 -0.2086 -0.0014
   91SAPS   C21 8834   5.284   2.696   6.529  0.4500  0.9179  0.3734
   91SAPS   O22 8835   5.297   2.598   6.454  0.2806  0.1704  0.3993
   91SAPS   C22 8836   5.149   2.769   6.553  0.6475 -0.4987 -0.2873
   91SAPS   H2R 8837   5.164   2.867   6.603 -0.4333  0.1206 -1.1284
   91SAPS   H2S 8838   5.119   2.779   6.446  2.0050 -0.4054 -0.6655
   91SAPS    C3 8839   5.615   2.818   6.625  0.8660  0.4352 -0.5923
   91SAPS    HX 8840   5.607   2.925   6.597  1.8297  1.1810  1.8897
   91SAPS    HY 8841   5.722   2.796   6.604  1.3602 -0.2476  2.4619
   91SAPS   O31 8842   5.595   2.793   6.766  0.1778 -0.0633 -0.1548
   91SAPS   C31 8843   5.614   2.671   6.811 -0.0998 -0.0472  0.3352
   91SAPS   O32 8844   5.636   2.574   6.741 -0.8450  0.5541  0.4292
   91SAPS   C32 8845   5.615   2.667   6.964  0.3028 -0.0770  0.2190
   91SAPS   H2X 8846   5.522   2.707   7.011  0.9185 -2.3806  3.4701
   91SAPS   H2Y 8847   5.700   2.720   7.011  0.1130 -1.5771  2.3072
   91SAPS   C23 8848   5.043   2.678   6.621  1.0153  0.1831  0.0334
   91SAPS   H3R 8849   5.030   2.582   6.566 -3.3052  0.4736  0.3765
   91SAPS   H3S 8850   4.939   2.719   6.616  1.3571  0.8545 -2.6870
   91SAPS   C24 8851   5.069   2.656   6.772 -0.4228  0.2827 -0.0322
   91SAPS   H4R 8852   5.071   2.755   6.824  1.7850  1.0279 -1.4563
   91SAPS   H4S 8853   5.179   2.646   6.779 -0.4396  1.0376  1.7535
   91SAPS   C25 8854   4.991   2.542   6.838 -0.3479 -0.2245 -1.1919
   91SAPS   H5R 8855   5.002   2.448   6.782 -0.7511 -0.7367 -0.4148
   91SAPS   C26 8856   4.904   2.541   6.945 -0.1416 -0.2035  0.4632
   91SAPS   H6R 8857   4.844   2.452   6.972  0.7482 -0.7506  0.6458
   91SAPS   C27 8858   4.870   2.679   6.999 -0.3753 -0.5320  0.2401
   91SAPS   H7R 8859   4.764   2.684   7.034 -0.6475  2.4964 -0.8184
   91SAPS   H7S 8860   4.861   2.758   6.922  1.8222  1.1773  1.6861
   91SAPS   C28 8861   4.969   2.730   7.092 -0.3590  0.6011  0.6759
   91SAPS   H8R 8862   5.069   2.684   7.092 -0.2815  0.7487  1.9398
   91SAPS   C29 8863   4.936   2.815   7.194 -0.0875 -0.0720  0.7056
   91SAPS   H9R 8864   5.011   2.856   7.264 -0.6542 -0.0122  1.2842
   91SAPS  C210 8865   4.806   2.883   7.218 -0.0273 -0.8079 -0.6160
   91SAPS  H10R 8866   4.800   2.920   7.323 -1.0769 -0.7792 -0.6801
   91SAPS  H10S 8867   4.723   2.810   7.206 -1.1907  0.5674 -1.1728
   91SAPS  C211 8868   4.781   3.005   7.123 -0.2186  0.6664  0.4349
   91SAPS  H11R 8869   4.865   3.064   7.085 -0.5758  2.4671  2.3509
   91SAPS  C212 8870   4.668   3.030   7.059 -0.2935  0.0964  0.1564
   91SAPS  H12R 8871   4.670   3.118   6.992 -0.1731  1.1517  1.5131
   91SAPS  C213 8872   4.538   2.966   7.078 -0.0593 -0.4822 -0.4532
   91SAPS  H13R 8873   4.453   3.036   7.097  1.5255  1.8555 -1.6553
   91SAPS  H13S 8874   4.544   2.894   7.163  1.5142 -0.7460 -0.7715
   91SAPS  C214 8875   4.511   2.875   6.961 -0.0832  0.9890  0.0088
   91SAPS  H14R 8876   4.599   2.830   6.912  1.3069  2.9593  0.6257
   91SAPS  C215 8877   4.392   2.857   6.894 -0.3037  0.2120  0.7088
   91SAPS  H15R 8878   4.383   2.779   6.817  1.9461  1.1631 -0.5858
   91SAPS  C216 8879   4.257   2.932   6.928 -0.1287  0.3168 -0.1577
   91SAPS  H16R 8880   4.230   3.009   6.852 -1.2203  0.7269  0.6344
   91SAPS  H16S 8881   4.259   2.981   7.028  1.3305  2.1349 -1.0473
   91SAPS  C217 8882   4.140   2.841   6.928  0.4798 -0.2157  0.0948
   91SAPS  H17R 8883   4.150   2.760   7.004  0.7236  0.3696  0.6886
   91SAPS  H17S 8884   4.135   2.788   6.830  0.0420  0.0911 -0.0531
   91SAPS  C218 8885   4.005   2.913   6.949  0.3310  0.6905 -0.1211
   91SAPS  H18R 8886   4.028   3.022   6.951 -1.0582  1.0198 -1.2210
   91SAPS  H18S 8887   3.952   2.889   7.044  0.5060 -1.8987 -0.6310
   91SAPS  C219 8888   3.910   2.902   6.825  0.4276 -0.7410 -0.3670
   91SAPS  H19R 8889   3.958   2.926   6.727  2.9301  0.1709  1.0457
   91SAPS  H19S 8890   3.840   2.986   6.844 -0.6371 -2.2729  2.7444
   91SAPS  C220 8891   3.827   2.775   6.813 -0.1435 -0.4124 -0.1296
   91SAPS  H20R 8892   3.895   2.689   6.796 -2.6284 -2.6297  0.7302
   91SAPS  H20S 8893   3.743   2.780   6.741  1.5123  0.0341 -2.0725
   91SAPS  H20T 8894   3.784   2.755   6.914  0.2909  1.3136  0.4154
   91SAPS   C33 8895   5.633   2.515   7.008 -0.9339 -0.3259  0.4390
   91SAPS   H3X 8896   5.731   2.474   6.977 -0.3597  0.6404  0.9541
   91SAPS   H3Y 8897   5.553   2.459   6.955 -1.4187 -0.6019  1.4537
   91SAPS   C34 8898   5.623   2.501   7.166 -0.1084  0.0136  0.0959
   91SAPS   H4X 8899   5.610   2.391   7.169 -2.0383  0.2210  0.5205
   91SAPS   H4Y 8900   5.527   2.551   7.192  1.0476  1.6380  1.3746
   91SAPS   C35 8901   5.746   2.552   7.249  0.6079 -0.1239 -0.0621
   91SAPS   H5X 8902   5.749   2.662   7.237 -1.5783 -0.0360 -0.0679
   91SAPS   H5Y 8903   5.831   2.503   7.198 -0.0473  1.0918 -2.4110
   91SAPS   C36 8904   5.733   2.513   7.397  0.3373 -0.4631 -0.2832
   91SAPS   H6X 8905   5.738   2.402   7.405  0.6535 -0.3242  1.6987
   91SAPS   H6Y 8906   5.633   2.543   7.434  1.0010  0.4538  0.7965
   91SAPS   C37 8907   5.856   2.562   7.492 -0.1350 -0.1984 -0.0114
   91SAPS   H7X 8908   5.853   2.672   7.480 -1.9257 -0.0930  1.2825
   91SAPS   H7Y 8909   5.950   2.531   7.441 -0.2911  1.8467 -1.5845
   91SAPS   C38 8910   5.845   2.505   7.630 -0.9458 -0.4002  0.1565
   91SAPS   H8X 8911   5.822   2.397   7.636  1.5428 -0.7579  5.8406
   91SAPS   H8Y 8912   5.765   2.557   7.687  0.1376  1.8449 -0.2897
   91SAPS   C39 8913   5.972   2.519   7.707  0.8743 -0.1857 -0.3964
   91SAPS   H9X 8914   6.009   2.623   7.716  1.1731 -0.4638  1.9226
   91SAPS   H9Y 8915   6.046   2.464   7.645  0.8299 -0.7411  0.0414
   91SAPS  C310 8916   5.971   2.478   7.855 -0.5756  0.2930 -0.0447
   91SAPS  H10X 8917   5.920   2.381   7.875  0.6306 -0.4375 -0.4730
   91SAPS  H10Y 8918   5.909   2.556   7.904  0.3316  1.5874 -0.9238
   91SAPS  C311 8919   6.109   2.468   7.918  0.1958 -0.7150  0.3680
   91SAPS  H11X 8920   6.171   2.560   7.926  2.0417 -1.8370 -0.6121
   91SAPS  H11Y 8921   6.158   2.398   7.846  1.5606  1.3138 -0.7347
   91SAPS  C312 8922   6.104   2.404   8.052  0.1884 -0.4371 -0.4589
   91SAPS  H12X 8923   6.203   2.367   8.085  0.6833 -0.1987 -1.6632
   91SAPS  H12Y 8924   6.037   2.315   8.058  1.0582 -0.9148  3.7159
   91SAPS  C313 8925   6.052   2.506   8.157 -0.6030  1.3023 -0.8868
   91SAPS  H13X 8926   5.952   2.540   8.124 -1.4391 -2.5903 -2.5887
   91SAPS  H13Y 8927   6.116   2.597   8.162  0.3713  0.5704  0.4029
   91SAPS  C314 8928   6.051   2.443   8.299 -0.0886  0.6170 -0.0589
   91SAPS  H14X 8929   6.144   2.388   8.324 -2.4468 -2.3245  2.7132
   91SAPS  H14Y 8930   5.970   2.367   8.292 -0.7206  1.4294 -1.8524
   91SAPS  C315 8931   6.003   2.543   8.409  0.1812  0.1082  0.1622
   91SAPS  H15X 8932   5.922   2.603   8.362 -1.4278 -2.2082 -0.1014
   91SAPS  H15Y 8933   6.096   2.605   8.412  1.3073 -1.3477 -2.6860
   91SAPS  C316 8934   5.978   2.489   8.554 -0.5958 -0.6423 -0.3301
   91SAPS  H16X 8935   6.061   2.420   8.579  0.1572  0.2930 -0.2358
   91SAPS  H16Y 8936   5.883   2.431   8.546 -1.8169  1.2915 -0.1468
   91SAPS  C317 8937   5.975   2.590   8.669 -0.0191  0.2855 -0.5671
   91SAPS  H17X 8938   6.082   2.595   8.702  0.1981 -1.3538 -0.9820
   91SAPS  H17Y 8939   5.924   2.545   8.757  3.8576 -0.2600  1.5441
   91SAPS  C318 8940   5.920   2.728   8.642  0.2157  0.5862  0.3267
   91SAPS  H18X 8941   5.979   2.780   8.564 -1.4215  1.8708 -0.0713
   91SAPS  H18Y 8942   5.926   2.797   8.729  2.2283  0.2732  0.4620
   91SAPS  H18Z 8943   5.812   2.730   8.616  0.7130 -1.2835 -1.9981
   92SAPS     N 8944   4.715   0.814   6.217  0.2132 -0.0472 -0.5264
   92SAPS   HN1 8945   4.725   0.838   6.317  0.2311  1.5961 -0.9157
   92SAPS   HN2 8946   4.649   0.877   6.167 -0.2437  0.4546  0.7035
   92SAPS   HN3 8947   4.672   0.720   6.202 -0.4555  0.3523 -1.1659
   92SAPS   C12 8948   4.856   0.812   6.173 -1.0284 -0.5169  0.0679
   92SAPS  H12A 8949   4.881   0.726   6.114  0.0335 -1.1191  1.3543
   92SAPS   C13 8950   4.910   0.933   6.095 -0.6895 -0.3531  0.2558
   92SAPS  O13A 8951   4.839   1.034   6.073  0.2510  0.0204 -0.3000
   92SAPS  O13B 8952   5.032   0.919   6.057 -0.2017 -0.3229  0.4879
   92SAPS   C11 8953   4.928   0.811   6.311 -0.3197  0.4258  0.4808
   92SAPS  H11A 8954   4.903   0.901   6.371  0.1219  0.9757 -0.1503
   92SAPS  H11B 8955   5.039   0.811   6.309 -0.2700  1.0536  2.3466
   92SAPS     P 8956   4.955   0.564   6.396  0.0140 -0.6387 -0.1883
   92SAPS   O13 8957   4.879   0.470   6.476  0.3967  0.2502 -0.6048
   92SAPS   O14 8958   4.980   0.520   6.255 -0.3501 -0.4916  0.0322
   92SAPS   O12 8959   4.886   0.703   6.397  0.2839  0.6584 -0.2726
   92SAPS   O11 8960   5.097   0.600   6.458  0.7276 -0.3510  0.5055
   92SAPS    C1 8961   5.173   0.491   6.510 -0.0422  0.5156 -0.0057
   92SAPS    HA 8962   5.142   0.385   6.497  1.7298  0.0013 -0.2244
   92SAPS    HB 8963   5.272   0.486   6.460 -0.7377 -1.1196 -1.2870
   92SAPS    C2 8964   5.226   0.522   6.654  0.2860  0.0371 -0.2547
   92SAPS    HS 8965   5.297   0.444   6.688 -0.1894  0.4636  1.7788
   92SAPS   O21 8966   5.123   0.542   6.748  0.0815  0.1700  0.3824
   92SAPS   C21 8967   5.069   0.425   6.790  0.6952  0.4990 -0.0995
   92SAPS   O22 8968   5.119   0.313   6.774 -0.1240  0.8480 -0.0924
   92SAPS   C22 8969   4.935   0.452   6.854 -0.5064 -0.1848 -0.0471
   92SAPS   H2R 8970   4.897   0.554   6.874  1.0058  0.0885  1.6252
   92SAPS   H2S 8971   4.860   0.408   6.786 -1.8389  0.4360  1.0035
   92SAPS    C3 8972   5.322   0.645   6.640 -0.1872 -0.3725 -0.1365
   92SAPS    HX 8973   5.269   0.729   6.590  1.1016  0.9343  0.6459
   92SAPS    HY 8974   5.409   0.622   6.576  1.5627  1.8978  1.3505
   92SAPS   O31 8975   5.368   0.693   6.769 -0.0705  0.2004 -0.4559
   92SAPS   C31 8976   5.465   0.627   6.836 -0.2517  0.5174  0.2163
   92SAPS   O32 8977   5.525   0.531   6.791 -0.4484 -0.0594 -0.1260
   92SAPS   C32 8978   5.502   0.696   6.968  0.3207  0.2385  0.5859
   92SAPS   H2X 8979   5.577   0.776   6.950 -0.9052  1.6231  1.5136
   92SAPS   H2Y 8980   5.546   0.625   7.042 -2.6842 -0.9360  1.2873
   92SAPS   C23 8981   4.934   0.372   6.987  0.0353 -0.5128  0.7326
   92SAPS   H3R 8982   5.004   0.417   7.061  1.0303 -1.1048  0.1666
   92SAPS   H3S 8983   4.976   0.274   6.957  2.0348  0.7164 -0.6688
   92SAPS   C24 8984   4.792   0.352   7.050  0.2717 -0.4476 -0.5289
   92SAPS   H4R 8985   4.791   0.264   7.118 -2.8960 -0.2707 -0.2691
   92SAPS   H4S 8986   4.722   0.325   6.967 -2.5382  0.4850  1.4367
   92SAPS   C25 8987   4.739   0.476   7.118  0.2972  0.1691 -0.1973
   92SAPS   H5R 8988   4.658   0.526   7.063  1.5997  0.7087 -1.6529
   92SAPS   C26 8989   4.776   0.532   7.235 -0.4256  0.7346 -0.4018
   92SAPS   H6R 8990   4.727   0.621   7.276  1.9884  1.9088 -0.0031
   92SAPS   C27 8991   4.876   0.466   7.329  0.5656 -0.4447  0.1027
   92SAPS   H7R 8992   4.959   0.429   7.265  1.1838 -0.9415  1.1864
   92SAPS   H7S 8993   4.838   0.369   7.368  1.6635 -0.3768  1.3662
   92SAPS   C28 8994   4.928   0.553   7.433  0.0600 -0.5113  0.5114
   92SAPS   H8R 8995   5.035   0.576   7.424  0.2633 -1.1654  1.2227
   92SAPS   C29 8996   4.861   0.590   7.541  0.2315  0.5057  0.0872
   92SAPS   H9R 8997   4.919   0.647   7.616 -0.5333  1.2037  0.1485
   92SAPS  C210 8998   4.716   0.566   7.574  0.2116 -0.2543  0.0920
   92SAPS  H10R 8999   4.719   0.521   7.676 -1.0796  0.7814  0.6108
   92SAPS  H10S 9000   4.667   0.494   7.506 -1.7892 -0.4702  1.6986
   92SAPS  C211 9001   4.641   0.697   7.577 -1.3850 -0.4442  0.7459
   92SAPS  H11R 9002   4.656   0.765   7.491  2.0066 -0.9480  0.8475
   92SAPS  C212 9003   4.582   0.747   7.689 -0.1545  0.0534  0.0527
   92SAPS  H12R 9004   4.539   0.848   7.680 -0.0070 -0.0802 -2.8842
   92SAPS  C213 9005   4.571   0.683   7.822  0.0925  0.4672  0.9698
   92SAPS  H13R 9006   4.671   0.677   7.869  1.0186 -0.3059 -1.0106
   92SAPS  H13S 9007   4.546   0.576   7.809 -2.0406  1.1270 -0.8255
   92SAPS  C214 9008   4.463   0.734   7.914  0.8976  0.3953  0.2754
   92SAPS  H14R 9009   4.366   0.761   7.869  1.1838 -1.6385 -1.6505
   92SAPS  C215 9010   4.475   0.737   8.053  0.0409 -0.1885  0.3637
   92SAPS  H15R 9011   4.383   0.765   8.106  0.0045 -0.6239  0.5310
   92SAPS  C216 9012   4.591   0.708   8.140 -0.3713 -0.1406  0.3034
   92SAPS  H16R 9013   4.645   0.805   8.153  1.5454 -1.2020  0.5630
   92SAPS  H16S 9014   4.671   0.645   8.095 -0.6732  0.6372 -1.3389
   92SAPS  C217 9015   4.569   0.649   8.288  0.3344 -0.5984 -0.1669
   92SAPS  H17R 9016   4.503   0.563   8.263 -0.6660  0.0039  0.3729
   92SAPS  H17S 9017   4.517   0.719   8.357  0.2406 -0.7723 -0.0598
   92SAPS  C218 9018   4.701   0.611   8.343  0.3024  0.1858 -0.4680
   92SAPS  H18R 9019   4.777   0.690   8.329  1.1037 -0.4039  0.4451
   92SAPS  H18S 9020   4.731   0.519   8.289 -0.3553  0.4933 -1.3817
   92SAPS  C219 9021   4.691   0.594   8.493 -0.1134  1.0672 -0.6904
   92SAPS  H19R 9022   4.629   0.506   8.519  0.8389  1.3656  2.7731
   92SAPS  H19S 9023   4.625   0.675   8.529 -2.2133  0.0456 -2.1318
   92SAPS  C220 9024   4.825   0.581   8.562  0.4817 -0.3909  0.2271
   92SAPS  H20R 9025   4.884   0.507   8.504  0.5767  1.7731 -2.5255
   92SAPS  H20S 9026   4.813   0.533   8.662 -0.3751  1.2227  0.9208
   92SAPS  H20T 9027   4.887   0.674   8.562  1.4488 -1.0257 -0.2822
   92SAPS   C33 9028   5.380   0.756   7.039 -0.1655  0.1202  0.0189
   92SAPS   H3X 9029   5.283   0.700   7.039 -0.7437  1.1023 -1.5146
   92SAPS   H3Y 9030   5.346   0.844   6.981 -1.8896 -0.2907  0.3714
   92SAPS   C34 9031   5.420   0.825   7.175 -0.0350 -0.2882  0.5347
   92SAPS   H4X 9032   5.353   0.910   7.197 -0.9154 -0.9812  0.5596
   92SAPS   H4Y 9033   5.525   0.858   7.160  0.3675 -0.7435  2.2337
   92SAPS   C35 9034   5.421   0.728   7.296  0.1519 -0.6747 -0.8389
   92SAPS   H5X 9035   5.484   0.641   7.271  1.0005 -0.1428 -0.5784
   92SAPS   H5Y 9036   5.316   0.695   7.314  0.2812 -0.3991  0.5036
   92SAPS   C36 9037   5.471   0.789   7.433 -0.0416  0.3806 -0.3144
   92SAPS   H6X 9038   5.405   0.872   7.467 -1.1324 -0.8323  0.5786
   92SAPS   H6Y 9039   5.563   0.844   7.403 -0.1445 -1.0890 -3.5832
   92SAPS   C37 9040   5.495   0.686   7.552 -0.3562  0.4047  0.6592
   92SAPS   H7X 9041   5.562   0.610   7.509 -0.3711 -0.4152  2.0543
   92SAPS   H7Y 9042   5.395   0.643   7.576  0.3461 -0.5610  1.9024
   92SAPS   C38 9043   5.549   0.748   7.677  0.7731 -0.4017 -0.2687
   92SAPS   H8X 9044   5.473   0.815   7.723  0.1796 -0.4532 -1.1565
   92SAPS   H8Y 9045   5.628   0.821   7.648  0.6770 -1.4204 -3.3239
   92SAPS   C39 9046   5.604   0.657   7.790  0.5139  0.3553  0.8915
   92SAPS   H9X 9047   5.688   0.601   7.743  1.6270  2.5231  0.2304
   92SAPS   H9Y 9048   5.534   0.590   7.843 -0.3415  0.7626  0.2833
   92SAPS  C310 9049   5.654   0.740   7.903 -0.4210  0.2258 -0.2200
   92SAPS  H10X 9050   5.565   0.789   7.948 -0.0603 -1.5169  2.5143
   92SAPS  H10Y 9051   5.722   0.823   7.875  0.2096  0.3602  1.6218
   92SAPS  C311 9052   5.713   0.670   8.022  0.2901 -0.1836  0.5951
   92SAPS  H11X 9053   5.751   0.749   8.091 -0.7543 -1.1114  2.2615
   92SAPS  H11Y 9054   5.794   0.600   7.991 -0.9907 -1.8010  0.8305
   92SAPS  C312 9055   5.602   0.597   8.098  0.2265  0.2866 -1.4176
   92SAPS  H12X 9056   5.576   0.503   8.044  0.8317 -2.0350  2.1808
   92SAPS  H12Y 9057   5.522   0.673   8.090 -0.3628 -0.4752 -3.0213
   92SAPS  C313 9058   5.636   0.575   8.251 -0.7073  0.4565 -0.0487
   92SAPS  H13X 9059   5.540   0.543   8.297  0.8948 -3.7878  0.6178
   92SAPS  H13Y 9060   5.682   0.665   8.298  1.0675 -1.7812  2.6916
   92SAPS  C314 9061   5.735   0.461   8.279 -0.3869  0.5476  0.2049
   92SAPS  H14X 9062   5.834   0.490   8.237  0.1927  1.2094  1.9931
   92SAPS  H14Y 9063   5.694   0.374   8.223  0.7327  0.2658 -0.1943
   92SAPS  C315 9064   5.764   0.426   8.421 -0.0134 -0.4236 -0.1207
   92SAPS  H15X 9065   5.844   0.349   8.422  0.3969 -0.0094  2.8897
   92SAPS  H15Y 9066   5.677   0.380   8.472  1.5997 -1.9229  1.3213
   92SAPS  C316 9067   5.824   0.547   8.497 -0.6832  0.2043  0.5992
   92SAPS  H16X 9068   5.746   0.619   8.529 -1.1271 -0.8047  1.8295
   92SAPS  H16Y 9069   5.898   0.590   8.426  1.3752 -0.6411  2.1689
   92SAPS  C317 9070   5.915   0.492   8.613 -0.2818 -0.2110 -0.4459
   92SAPS  H17X 9071   5.969   0.574   8.665  0.7201 -2.1878  1.7289
   92SAPS  H17Y 9072   5.991   0.429   8.561  0.4020  1.0388 -0.9830
   92SAPS  C318 9073   5.857   0.394   8.713 -0.1823  0.0315  0.1050
   92SAPS  H18X 9074   5.815   0.301   8.670  0.4122 -0.3872  0.4151
   92SAPS  H18Y 9075   5.786   0.454   8.774 -0.6335 -0.7539  0.3672
   92SAPS  H18Z 9076   5.937   0.342   8.770 -0.4487  1.2514  1.6212
   93SAPS     N 9077   5.394   1.504   6.281  0.1428  0.2076  0.6331
   93SAPS   HN1 9078   5.484   1.497   6.332 -0.6249 -1.4434  1.8140
   93SAPS   HN2 9079   5.341   1.424   6.321  1.0544  0.2474  1.9704
   93SAPS   HN3 9080   5.413   1.479   6.181 -2.4421  1.2288 -0.1507
   93SAPS   C12 9081   5.337   1.643   6.299  0.2404 -0.1061  0.8220
   93SAPS  H12A 9082   5.330   1.659   6.405 -0.5267 -0.3825  0.8121
   93SAPS   C13 9083   5.415   1.758   6.234 -0.4439 -0.3007  0.1200
   93SAPS  O13A 9084   5.518   1.745   6.167 -0.1661 -0.3173  0.2369
   93SAPS  O13B 9085   5.368   1.872   6.254  0.0061  0.2889 -0.3454
   93SAPS   C11 9086   5.192   1.644   6.240  0.2895  0.2351 -0.4914
   93SAPS  H11A 9087   5.199   1.620   6.132 -0.7208  1.0560 -0.7471
   93SAPS  H11B 9088   5.152   1.747   6.254 -2.2446 -0.7748 -0.0143
   93SAPS     P 9089   5.024   1.613   6.436  0.0663 -0.5133  0.0364
   93SAPS   O13 9090   5.082   1.737   6.492  0.5450 -0.3927  0.0995
   93SAPS   O14 9091   4.885   1.624   6.390 -0.0605  0.6811 -0.2515
   93SAPS   O12 9092   5.118   1.552   6.323 -0.1674 -0.3785 -0.2377
   93SAPS   O11 9093   5.030   1.497   6.545 -0.0562 -0.2966  0.4010
   93SAPS    C1 9094   5.029   1.514   6.681  0.0503  0.7169 -0.3572
   93SAPS    HA 9095   4.993   1.616   6.707  0.2765  1.0277 -1.2445
   93SAPS    HB 9096   4.951   1.447   6.723  0.9339  0.4402  0.8612
   93SAPS    C2 9097   5.166   1.465   6.744  0.5824 -0.0240  0.2647
   93SAPS    HS 9098   5.148   1.441   6.852  1.0604  1.4896  0.6897
   93SAPS   O21 9099   5.259   1.570   6.726  0.2171 -0.4571 -0.0930
   93SAPS   C21 9100   5.263   1.663   6.813  0.5349 -0.7814 -0.4988
   93SAPS   O22 9101   5.205   1.679   6.920 -0.0463  0.3621  0.4271
   93SAPS   C22 9102   5.370   1.764   6.748 -0.4575 -0.1028  0.4697
   93SAPS   H2R 9103   5.418   1.725   6.656  0.2900  2.4969 -0.2611
   93SAPS   H2S 9104   5.298   1.843   6.718 -2.0243 -1.1797  1.2985
   93SAPS    C3 9105   5.225   1.334   6.686  0.1385  0.3140  1.2145
   93SAPS    HX 9106   5.244   1.350   6.578 -1.1491 -0.0978  0.9214
   93SAPS    HY 9107   5.156   1.247   6.690  0.3406  0.1650  1.5128
   93SAPS   O31 9108   5.351   1.293   6.752  0.3205  0.3220  0.6514
   93SAPS   C31 9109   5.397   1.186   6.690  0.4474 -0.4775 -0.7947
   93SAPS   O32 9110   5.367   1.148   6.579  0.6669  0.2264 -0.2526
   93SAPS   C32 9111   5.501   1.121   6.776 -0.4685  0.7207 -0.5141
   93SAPS   H2X 9112   5.547   1.045   6.710  0.4424  0.6111  0.2243
   93SAPS   H2Y 9113   5.445   1.082   6.864  0.4277  0.7023  0.0614
   93SAPS   C23 9114   5.478   1.809   6.853  0.2248  0.3862 -0.5339
   93SAPS   H3R 9115   5.436   1.826   6.954  0.1515  0.4331 -0.5716
   93SAPS   H3S 9116   5.522   1.907   6.824 -0.0399  0.4897 -0.5921
   93SAPS   C24 9117   5.580   1.693   6.863 -1.2094  0.2298  0.7766
   93SAPS   H4R 9118   5.638   1.686   6.768 -0.4884  0.6068  1.1854
   93SAPS   H4S 9119   5.530   1.594   6.875  1.8443 -1.3562  0.8938
   93SAPS   C25 9120   5.684   1.712   6.972 -0.4222 -0.0956 -0.5494
   93SAPS   H5R 9121   5.755   1.793   6.948  0.2029 -0.2509  0.7444
   93SAPS   C26 9122   5.692   1.637   7.084 -0.9394 -0.4031  0.1030
   93SAPS   H6R 9123   5.772   1.664   7.153 -0.5383 -1.6793  0.1580
   93SAPS   C27 9124   5.598   1.531   7.131 -0.7557  0.5876 -0.0566
   93SAPS   H7R 9125   5.649   1.467   7.206 -1.9344  0.1453  0.3809
   93SAPS   H7S 9126   5.581   1.457   7.050  1.5113  0.8301 -0.7856
   93SAPS   C28 9127   5.470   1.605   7.166 -0.0444  1.3784  0.2168
   93SAPS   H8R 9128   5.395   1.616   7.087 -1.4265 -0.2237  1.2608
   93SAPS   C29 9129   5.432   1.652   7.291  0.5130  0.7074 -0.0062
   93SAPS   H9R 9130   5.340   1.713   7.294 -0.6330 -0.9463 -0.2850
   93SAPS  C210 9131   5.518   1.644   7.413 -0.6262  0.6286  0.2145
   93SAPS  H10R 9132   5.625   1.641   7.386  0.0015 -1.5539  2.6924
   93SAPS  H10S 9133   5.505   1.544   7.460  0.5475 -0.7177 -2.2185
   93SAPS  C211 9134   5.490   1.746   7.520 -1.1881 -0.1482 -1.1766
   93SAPS  H11R 9135   5.457   1.843   7.480  0.1015  0.7524 -0.1213
   93SAPS  C212 9136   5.502   1.741   7.656 -0.6696  0.8192 -0.4410
   93SAPS  H12R 9137   5.476   1.823   7.724  1.2466  0.2159  1.0617
   93SAPS  C213 9138   5.553   1.620   7.736 -0.5443  0.3945  0.5044
   93SAPS  H13R 9139   5.572   1.530   7.673 -3.5831  0.7078 -0.9489
   93SAPS  H13S 9140   5.476   1.580   7.805 -0.8737 -0.4663 -0.3487
   93SAPS  C214 9141   5.677   1.655   7.812  0.2538 -0.0993  0.0003
   93SAPS  H14R 9142   5.778   1.638   7.774  0.6077  1.5754  0.1750
   93SAPS  C215 9143   5.664   1.708   7.941  0.2213 -0.1627  0.1303
   93SAPS  H15R 9144   5.752   1.706   8.007  1.6721  0.3571 -1.7491
   93SAPS  C216 9145   5.536   1.740   8.023 -0.1719 -0.2181 -0.1669
   93SAPS  H16R 9146   5.446   1.732   7.959  0.1567 -1.7544 -0.4521
   93SAPS  H16S 9147   5.534   1.848   8.048 -0.7857 -1.0413  3.6820
   93SAPS  C217 9148   5.526   1.664   8.155 -0.5761 -0.3048  0.2429
   93SAPS  H17R 9149   5.424   1.684   8.196  0.3146  5.5828  0.1421
   93SAPS  H17S 9150   5.598   1.706   8.229  0.2671 -0.5462 -0.4425
   93SAPS  C218 9151   5.555   1.516   8.142 -0.0770  0.2579 -0.4524
   93SAPS  H18R 9152   5.653   1.493   8.096  0.6829 -0.8357  1.6543
   93SAPS  H18S 9153   5.484   1.473   8.068 -0.2234  2.1592 -1.4644
   93SAPS  C219 9154   5.551   1.440   8.283 -0.0752 -0.1663  0.4758
   93SAPS  H19R 9155   5.566   1.330   8.277  0.3411 -0.1038  0.3572
   93SAPS  H19S 9156   5.446   1.444   8.317 -0.0863 -0.1919  0.4462
   93SAPS  C220 9157   5.644   1.500   8.393  0.0366 -0.7245  0.9000
   93SAPS  H20R 9158   5.605   1.598   8.427  3.5861  1.1152 -0.0637
   93SAPS  H20S 9159   5.747   1.517   8.354 -0.5326  1.3867  0.1940
   93SAPS  H20T 9160   5.628   1.437   8.483  1.8279 -2.1427  0.2345
   93SAPS   C33 9161   5.615   1.217   6.811 -0.3012  0.4294  0.8300
   93SAPS   H3X 9162   5.569   1.300   6.869 -2.6658  0.1213 -0.5254
   93SAPS   H3Y 9163   5.647   1.264   6.716 -0.2379 -1.6203 -0.1949
   93SAPS   C34 9164   5.748   1.157   6.868  0.4926  0.2141  0.0526
   93SAPS   H4X 9165   5.823   1.239   6.878 -0.3882  1.1811 -1.1816
   93SAPS   H4Y 9166   5.783   1.089   6.788  2.3457  0.2458  0.8058
   93SAPS   C35 9167   5.729   1.091   7.001  0.8528  0.6336 -0.1656
   93SAPS   H5X 9168   5.804   1.009   7.006  0.2626  0.1149  0.3571
   93SAPS   H5Y 9169   5.635   1.033   7.007 -0.0790  1.6871 -3.5482
   93SAPS   C36 9170   5.743   1.194   7.114  0.3537 -0.5893 -0.2843
   93SAPS   H6X 9171   5.647   1.247   7.133 -0.3299 -1.7013 -0.6042
   93SAPS   H6Y 9172   5.825   1.265   7.089  0.8487 -1.5488 -1.4214
   93SAPS   C37 9173   5.775   1.128   7.253 -0.8557  0.2546  0.3003
   93SAPS   H7X 9174   5.876   1.082   7.243 -1.6729 -1.3700 -0.6177
   93SAPS   H7Y 9175   5.706   1.045   7.278  0.6098 -0.4995  2.0333
   93SAPS   C38 9176   5.783   1.223   7.372  0.2851 -0.6540 -0.5138
   93SAPS   H8X 9177   5.689   1.282   7.369  0.1588 -0.8431 -0.3310
   93SAPS   H8Y 9178   5.873   1.289   7.370 -0.1947  0.0882  1.2758
   93SAPS   C39 9179   5.791   1.156   7.506  0.1641  0.0525 -0.8368
   93SAPS   H9X 9180   5.881   1.091   7.506 -0.6709 -1.1149 -0.3072
   93SAPS   H9Y 9181   5.720   1.070   7.510 -1.3794  1.2874 -1.1835
   93SAPS  C310 9182   5.782   1.234   7.636 -0.1684  0.2371 -0.6136
   93SAPS  H10X 9183   5.687   1.292   7.629 -0.4446 -0.1783 -0.3372
   93SAPS  H10Y 9184   5.868   1.304   7.641 -0.9139  1.1741 -0.6815
   93SAPS  C311 9185   5.802   1.137   7.755  0.1875  0.2889 -0.2938
   93SAPS  H11X 9186   5.896   1.080   7.738  0.0886  0.2140 -0.5894
   93SAPS  H11Y 9187   5.720   1.062   7.753 -0.5613  1.0987 -0.2343
   93SAPS  C312 9188   5.790   1.209   7.892  0.4435 -0.2836  0.7057
   93SAPS  H12X 9189   5.693   1.263   7.901 -0.3088 -1.7226  1.4233
   93SAPS  H12Y 9190   5.868   1.289   7.891 -2.0552  2.2704  1.9210
   93SAPS  C313 9191   5.814   1.110   8.009 -0.1653 -0.2446 -0.2965
   93SAPS  H13X 9192   5.921   1.077   8.006 -0.3014 -0.5513 -1.8087
   93SAPS  H13Y 9193   5.758   1.015   7.995 -2.3914  0.7469  1.5169
   93SAPS  C314 9194   5.806   1.172   8.156 -0.0321  0.4238 -0.4487
   93SAPS  H14X 9195   5.698   1.186   8.181 -0.0808 -2.6972  1.4693
   93SAPS  H14Y 9196   5.859   1.269   8.156  0.7544 -0.0025 -0.5759
   93SAPS  C315 9197   5.869   1.081   8.252 -0.1291  0.0119 -0.1541
   93SAPS  H15X 9198   5.971   1.056   8.214  0.7533  0.9870  1.4690
   93SAPS  H15Y 9199   5.811   0.988   8.265  1.4355 -1.0728 -0.7292
   93SAPS  C316 9200   5.895   1.138   8.398 -0.0163 -0.1948 -0.1486
   93SAPS  H16X 9201   5.795   1.166   8.438 -0.6436 -1.0933 -1.0574
   93SAPS  H16Y 9202   5.972   1.217   8.388 -0.5345  0.4302  0.7027
   93SAPS  C317 9203   5.966   1.038   8.479 -0.6447  0.0921  0.1298
   93SAPS  H17X 9204   6.019   1.092   8.560 -0.7563  1.3147 -0.6080
   93SAPS  H17Y 9205   6.048   0.998   8.416 -1.0703  0.7741 -0.8619
   93SAPS  C318 9206   5.896   0.926   8.554  0.0226 -0.1874 -0.0731
   93SAPS  H18X 9207   5.833   0.862   8.489 -1.0362 -0.7958  1.5257
   93SAPS  H18Y 9208   5.842   0.962   8.644 -2.0164 -2.4909 -0.3204
   93SAPS  H18Z 9209   5.973   0.863   8.605  1.1386  1.0371 -0.2271
   94SAPS     N 9210   5.459   4.163   6.002 -0.4955 -0.2405 -0.1965
   94SAPS   HN1 9211   5.555   4.165   6.039 -0.6903 -1.1832  0.3740
   94SAPS   HN2 9212   5.424   4.259   5.984 -0.2542 -0.4599 -1.8915
   94SAPS   HN3 9213   5.401   4.124   6.079 -0.4931 -2.1505 -1.1182
   94SAPS   C12 9214   5.456   4.092   5.874  0.1268  0.7574 -0.6857
   94SAPS  H12A 9215   5.514   4.002   5.889 -0.8748  0.1415 -0.4262
   94SAPS   C13 9216   5.312   4.071   5.815 -0.1722 -0.3431  0.5131
   94SAPS  O13A 9217   5.206   4.124   5.857 -0.0049  0.0448  0.4246
   94SAPS  O13B 9218   5.308   4.015   5.705  0.0939  0.3594  0.4379
   94SAPS   C11 9219   5.546   4.176   5.769  0.1723 -0.0161  0.3977
   94SAPS  H11A 9220   5.488   4.267   5.746  0.4573 -0.1744 -0.9905
   94SAPS  H11B 9221   5.547   4.118   5.674 -1.9177 -1.4342  1.1989
   94SAPS     P 9222   5.784   4.100   5.861  0.4538 -0.0842  0.1463
   94SAPS   O13 9223   5.765   3.983   5.769  0.6926 -0.1688 -0.2946
   94SAPS   O14 9224   5.920   4.163   5.874  0.2867  0.1276 -0.5671
   94SAPS   O12 9225   5.676   4.211   5.812  0.3333 -0.1681  0.0645
   94SAPS   O11 9226   5.718   4.073   6.001  0.2513 -0.4425 -0.2436
   94SAPS    C1 9227   5.731   3.940   6.054  0.1618 -1.0963 -0.5249
   94SAPS    HA 9228   5.691   3.863   5.986 -2.6200 -0.2994  0.1659
   94SAPS    HB 9229   5.838   3.921   6.079  0.5898 -0.1715 -1.6295
   94SAPS    C2 9230   5.657   3.925   6.193  0.0612 -0.4635 -0.1907
   94SAPS    HS 9231   5.551   3.960   6.196  0.3728  0.4118  0.9595
   94SAPS   O21 9232   5.730   3.986   6.300  0.1464 -0.1331 -0.8734
   94SAPS   C21 9233   5.678   4.107   6.335 -0.1010  0.2177 -0.5579
   94SAPS   O22 9234   5.605   4.174   6.262 -0.4533 -0.2972  0.6652
   94SAPS   C22 9235   5.724   4.146   6.472 -0.3981 -0.2340  0.2556
   94SAPS   H2R 9236   5.803   4.074   6.503 -0.2099  0.9154  2.4913
   94SAPS   H2S 9237   5.783   4.240   6.461 -2.3790  0.9756 -0.2684
   94SAPS    C3 9238   5.660   3.772   6.224 -0.2474  0.2072 -0.3397
   94SAPS    HX 9239   5.766   3.745   6.245 -0.2675  0.6585  0.3757
   94SAPS    HY 9240   5.627   3.712   6.137  2.9821  1.5721 -2.5926
   94SAPS   O31 9241   5.576   3.735   6.334 -0.6096 -0.2235 -0.0720
   94SAPS   C31 9242   5.597   3.618   6.388  0.2297  0.1979  0.2486
   94SAPS   O32 9243   5.675   3.540   6.340 -0.3261  0.4580  0.1564
   94SAPS   C32 9244   5.510   3.600   6.512  0.0973  0.4013  0.0841
   94SAPS   H2X 9245   5.479   3.494   6.510  1.3110 -0.0414  2.5414
   94SAPS   H2Y 9246   5.423   3.666   6.493 -1.1147 -1.2352 -0.1491
   94SAPS   C23 9247   5.604   4.142   6.577 -0.2913  0.2312 -0.7480
   94SAPS   H3R 9248   5.586   4.037   6.609 -2.0309  0.4410 -0.9557
   94SAPS   H3S 9249   5.511   4.199   6.553 -1.7598 -2.0224 -0.5441
   94SAPS   C24 9250   5.653   4.222   6.704  0.4275  0.2130  1.0505
   94SAPS   H4R 9251   5.661   4.332   6.697  1.4327  0.1826  1.6138
   94SAPS   H4S 9252   5.757   4.196   6.733  1.3669 -0.7579 -2.8365
   94SAPS   C25 9253   5.563   4.184   6.821 -0.4500 -0.4208  0.3766
   94SAPS   H5R 9254   5.601   4.098   6.879 -0.9905 -0.6966  0.3281
   94SAPS   C26 9255   5.456   4.244   6.869 -0.0538 -0.0265 -0.6413
   94SAPS   H6R 9256   5.396   4.189   6.943  0.8183  0.3984  0.3978
   94SAPS   C27 9257   5.388   4.372   6.825  0.3087  0.0205 -0.4759
   94SAPS   H7R 9258   5.278   4.357   6.822  0.3058  0.2206 -1.3686
   94SAPS   H7S 9259   5.415   4.396   6.720  0.7636  0.0830 -0.3428
   94SAPS   C28 9260   5.442   4.485   6.919 -0.4100  0.0261 -0.4112
   94SAPS   H8R 9261   5.523   4.543   6.875  1.1980  0.5723  3.0925
   94SAPS   C29 9262   5.410   4.501   7.051 -0.0201  0.0285 -0.3572
   94SAPS   H9R 9263   5.470   4.569   7.113 -0.9250 -0.5855  1.2075
   94SAPS  C210 9264   5.312   4.410   7.126  0.5502 -0.7441  0.0150
   94SAPS  H10R 9265   5.254   4.353   7.051  0.3431 -0.5148 -0.0030
   94SAPS  H10S 9266   5.236   4.462   7.189  0.6467 -1.0570  0.3909
   94SAPS  C211 9267   5.382   4.303   7.213  0.5923  0.1639 -0.7333
   94SAPS  H11R 9268   5.404   4.210   7.157 -2.4397  0.1184 -1.9753
   94SAPS  C212 9269   5.413   4.300   7.339 -0.7944 -0.3349  1.1227
   94SAPS  H12R 9270   5.480   4.221   7.377  0.6515  0.8953  1.2129
   94SAPS  C213 9271   5.386   4.414   7.433  0.5842 -0.5976  0.0600
   94SAPS  H13R 9272   5.322   4.489   7.380  0.3754 -1.8210 -1.4388
   94SAPS  H13S 9273   5.481   4.469   7.451  0.1196  0.2495 -0.0150
   94SAPS  C214 9274   5.329   4.375   7.567 -0.0785 -0.6508 -0.2459
   94SAPS  H14R 9275   5.315   4.267   7.583 -1.1023 -0.5510 -0.4604
   94SAPS  C215 9276   5.299   4.461   7.666 -0.1647 -0.6514  0.2643
   94SAPS  H15R 9277   5.264   4.423   7.763 -1.0460 -1.0299 -0.1898
   94SAPS  C216 9278   5.298   4.609   7.668  0.5264 -0.1458  0.5425
   94SAPS  H16R 9279   5.204   4.666   7.645  0.7617 -0.8304 -2.3633
   94SAPS  H16S 9280   5.361   4.643   7.583 -0.5265  0.0404 -0.1857
   94SAPS  C217 9281   5.370   4.662   7.797 -0.3992  0.1570  0.3073
   94SAPS  H17R 9282   5.324   4.628   7.892  1.0269  2.1320  1.7521
   94SAPS  H17S 9283   5.375   4.772   7.784  3.6942  0.0767  0.3349
   94SAPS  C218 9284   5.518   4.625   7.804  0.1363  0.6798 -0.3811
   94SAPS  H18R 9285   5.576   4.673   7.722  0.1050 -0.7410 -1.2466
   94SAPS  H18S 9286   5.530   4.515   7.796 -1.3280  0.5486 -0.8674
   94SAPS  C219 9287   5.575   4.669   7.945 -0.9642  0.1158  0.5424
   94SAPS  H19R 9288   5.539   4.771   7.968 -0.9706 -0.0684  1.3952
   94SAPS  H19S 9289   5.686   4.670   7.938 -0.8309  1.2299  2.3693
   94SAPS  C220 9290   5.530   4.576   8.054 -0.2461  0.5103  0.6605
   94SAPS  H20R 9291   5.570   4.475   8.035 -1.6739  0.3095 -1.4854
   94SAPS  H20S 9292   5.421   4.577   8.075 -0.5092  0.3431 -0.6338
   94SAPS  H20T 9293   5.582   4.613   8.145 -1.1193 -1.9810  2.1968
   94SAPS   C33 9294   5.571   3.619   6.654  0.0196  0.5496  0.8289
   94SAPS   H3X 9295   5.604   3.725   6.668  2.1618 -0.0224  0.3229
   94SAPS   H3Y 9296   5.662   3.556   6.660  0.2436  0.8913  1.0673
   94SAPS   C34 9297   5.476   3.581   6.768 -0.0997 -0.1872 -0.4355
   94SAPS   H4X 9298   5.461   3.472   6.759 -0.7785 -0.0691 -0.7817
   94SAPS   H4Y 9299   5.376   3.627   6.749 -0.2506 -0.9134 -1.4104
   94SAPS   C35 9300   5.530   3.618   6.905  0.4042  0.2279 -0.0747
   94SAPS   H5X 9301   5.500   3.722   6.929  0.9729  0.1899  0.8327
   94SAPS   H5Y 9302   5.641   3.614   6.906  0.4619  1.7572  0.9397
   94SAPS   C36 9303   5.471   3.534   7.014 -0.4903 -0.1806 -0.3983
   94SAPS   H6X 9304   5.482   3.424   7.002 -0.1306 -0.0929 -0.8980
   94SAPS   H6Y 9305   5.360   3.531   7.008 -0.5481 -0.6391  0.6277
   94SAPS   C37 9306   5.534   3.582   7.149  0.1604  0.1689  0.0910
   94SAPS   H7X 9307   5.515   3.689   7.170  2.0143  0.2732  1.4137
   94SAPS   H7Y 9308   5.643   3.566   7.133  0.6648  3.3147  0.1463
   94SAPS   C38 9309   5.491   3.504   7.279 -0.7789 -0.0339  0.0557
   94SAPS   H8X 9310   5.534   3.402   7.270  1.3669  0.5064  3.2832
   94SAPS   H8Y 9311   5.380   3.498   7.273 -0.7495  2.0888 -3.4367
   94SAPS   C39 9312   5.532   3.570   7.409  0.5918  0.2041  0.7562
   94SAPS   H9X 9313   5.528   3.679   7.386 -0.3616 -0.4144 -2.1658
   94SAPS   H9Y 9314   5.635   3.538   7.435  0.8320 -0.3504 -0.8179
   94SAPS  C310 9315   5.440   3.536   7.529  0.0241 -0.2544  0.3508
   94SAPS  H10X 9316   5.330   3.538   7.513 -0.4682  1.0926  3.5370
   94SAPS  H10Y 9317   5.459   3.614   7.606 -1.4396  1.3794 -0.9031
   94SAPS  C311 9318   5.492   3.409   7.595  0.2459  0.0763 -0.6518
   94SAPS  H11X 9319   5.599   3.417   7.622  0.1107 -1.9418  0.6226
   94SAPS  H11Y 9320   5.488   3.316   7.533  2.0739 -0.3695 -0.1468
   94SAPS  C312 9321   5.409   3.393   7.728 -0.2590  0.4882 -0.1638
   94SAPS  H12X 9322   5.301   3.398   7.704 -0.5457  0.7262  1.1119
   94SAPS  H12Y 9323   5.434   3.475   7.799 -0.5665 -0.8007  1.4861
   94SAPS  C313 9324   5.428   3.256   7.797 -0.5820 -0.0101  0.5924
   94SAPS  H13X 9325   5.524   3.252   7.852  0.7814 -0.6299 -1.7449
   94SAPS  H13Y 9326   5.442   3.191   7.708 -1.1617  0.1322  0.3930
   94SAPS  C314 9327   5.322   3.195   7.892 -0.2079  0.1819  1.0739
   94SAPS  H14X 9328   5.331   3.085   7.900 -2.4551 -0.1309 -0.3561
   94SAPS  H14Y 9329   5.224   3.221   7.848  0.4548 -0.6120 -0.9551
   94SAPS  C315 9330   5.315   3.251   8.034  1.1862  0.1173 -1.0236
   94SAPS  H15X 9331   5.319   3.360   8.055 -1.5493  0.0025  0.2206
   94SAPS  H15Y 9332   5.409   3.221   8.086  0.8510  0.4859 -0.1876
   94SAPS  C316 9333   5.212   3.191   8.122 -0.2950  0.0123 -0.6282
   94SAPS  H16X 9334   5.233   3.191   8.231 -1.2124 -1.6577 -0.4291
   94SAPS  H16Y 9335   5.196   3.083   8.100  2.3609 -0.8356  1.2575
   94SAPS  C317 9336   5.082   3.266   8.108  0.0182  0.4606  0.8212
   94SAPS  H17X 9337   5.057   3.280   8.001  3.4608  0.4581 -0.0372
   94SAPS  H17Y 9338   5.105   3.364   8.154  1.0153 -0.0474  1.4464
   94SAPS  C318 9339   4.976   3.205   8.202 -0.1691 -0.0175  0.2473
   94SAPS  H18X 9340   4.965   3.099   8.169  0.9634  0.4567 -1.6914
   94SAPS  H18Y 9341   4.872   3.241   8.188 -1.2686 -3.4800 -1.1349
   94SAPS  H18Z 9342   5.018   3.213   8.304  1.6458  1.0187 -0.5611
   95SAPS     N 9343   2.676   0.690   6.572 -0.4249 -0.7158  0.4829
   95SAPS   HN1 9344   2.659   0.719   6.671 -1.8359  0.9334 -0.2302
   95SAPS   HN2 9345   2.642   0.593   6.553 -0.8364 -0.3850 -0.4935
   95SAPS   HN3 9346   2.779   0.686   6.555 -0.6674 -1.9156 -0.7533
   95SAPS   C12 9347   2.616   0.774   6.468 -0.1990 -0.1962  0.1871
   95SAPS  H12A 9348   2.663   0.872   6.471 -2.4594  0.9294  0.0485
   95SAPS   C13 9349   2.650   0.738   6.324  0.0431  0.0165  0.1070
   95SAPS  O13A 9350   2.692   0.625   6.292  0.4418 -0.3984  1.1220
   95SAPS  O13B 9351   2.634   0.830   6.237 -0.0641  0.4066  0.1718
   95SAPS   C11 9352   2.464   0.781   6.501 -0.0014 -0.0776 -0.5090
   95SAPS  H11A 9353   2.466   0.838   6.596  1.4717 -1.1157  0.1065
   95SAPS  H11B 9354   2.427   0.684   6.539 -0.4200  0.0053 -0.7116
   95SAPS     P 9355   2.246   0.778   6.359 -0.3494  0.0863  0.3262
   95SAPS   O13 9356   2.163   0.887   6.304  0.0294  0.2198  0.6172
   95SAPS   O14 9357   2.269   0.666   6.269 -0.0521  0.2359  0.0970
   95SAPS   O12 9358   2.385   0.841   6.405  0.2840  0.4346  0.5334
   95SAPS   O11 9359   2.193   0.724   6.504  0.5850  0.2496 -0.0136
   95SAPS    C1 9360   2.057   0.716   6.535 -0.8011  0.4739  0.2089
   95SAPS    HA 9361   1.997   0.785   6.471 -0.2558 -0.3517 -1.2150
   95SAPS    HB 9362   2.023   0.616   6.503  0.0368  0.3211 -0.2280
   95SAPS    C2 9363   2.023   0.709   6.690 -0.3247 -0.4251 -0.0126
   95SAPS    HS 9364   2.032   0.810   6.736 -0.2838 -0.1762 -0.5626
   95SAPS   O21 9365   2.110   0.616   6.753 -0.2576 -0.4032 -0.1410
   95SAPS   C21 9366   2.228   0.657   6.793  0.5966  0.3818  0.2253
   95SAPS   O22 9367   2.261   0.771   6.797 -0.5700 -0.3046 -0.2364
   95SAPS   C22 9368   2.293   0.541   6.863  0.1852 -0.1786 -0.1311
   95SAPS   H2R 9369   2.242   0.444   6.842  0.7846 -1.1216  2.5212
   95SAPS   H2S 9370   2.401   0.538   6.836 -0.0580  2.3146 -1.5143
   95SAPS    C3 9371   1.879   0.669   6.709 -0.3390  0.8907 -0.0094
   95SAPS    HX 9372   1.867   0.566   6.668  1.0461 -0.4698  2.8714
   95SAPS    HY 9373   1.810   0.735   6.651  0.4138  0.4203 -1.4639
   95SAPS   O31 9374   1.850   0.667   6.856  0.4540 -0.2186  0.5042
   95SAPS   C31 9375   1.832   0.779   6.911 -0.3781 -0.0560  0.2408
   95SAPS   O32 9376   1.827   0.889   6.856  0.5915 -0.5830 -0.0395
   95SAPS   C32 9377   1.811   0.766   7.062 -0.2322  0.1081  0.5266
   95SAPS   H2X 9378   1.769   0.668   7.093 -0.8448  0.6722  1.5307
   95SAPS   H2Y 9379   1.738   0.839   7.105 -3.7968 -1.1869 -3.0771
   95SAPS   C23 9380   2.278   0.557   7.014 -0.5129 -0.2671 -0.7279
   95SAPS   H3R 9381   2.258   0.459   7.062  0.3247 -0.5037 -0.8642
   95SAPS   H3S 9382   2.188   0.620   7.030 -1.6462 -1.3012 -2.8493
   95SAPS   C24 9383   2.396   0.625   7.084 -0.4301 -0.6973 -0.8338
   95SAPS   H4R 9384   2.394   0.734   7.063  1.3869 -0.2200  1.2765
   95SAPS   H4S 9385   2.484   0.592   7.025 -1.8628 -1.8056 -2.3904
   95SAPS   C25 9386   2.415   0.600   7.230  0.1186 -0.9889 -0.4215
   95SAPS   H5R 9387   2.414   0.492   7.250  0.7122 -0.6011  1.8642
   95SAPS   C26 9388   2.424   0.679   7.335  0.2901  0.7898  0.5909
   95SAPS   H6R 9389   2.448   0.641   7.436 -1.1303 -1.0104  0.2653
   95SAPS   C27 9390   2.413   0.828   7.320  0.1423  0.4901  0.4712
   95SAPS   H7R 9391   2.349   0.867   7.403  1.7653 -0.2332  2.1057
   95SAPS   H7S 9392   2.344   0.852   7.236  0.6080 -1.0971 -0.3715
   95SAPS   C28 9393   2.554   0.888   7.294  0.1200 -0.7134  0.2117
   95SAPS   H8R 9394   2.609   0.845   7.209  1.4473  0.1701  0.6133
   95SAPS   C29 9395   2.621   0.972   7.376  0.0017 -0.1537 -0.7978
   95SAPS   H9R 9396   2.718   1.016   7.347 -0.3919  0.7440 -0.7830
   95SAPS  C210 9397   2.562   1.029   7.504  0.2560 -0.3708 -0.3651
   95SAPS  H10R 9398   2.453   1.043   7.491 -0.1526 -2.3530  0.8221
   95SAPS  H10S 9399   2.601   1.131   7.527  2.1246 -0.7464 -1.7731
   95SAPS  C211 9400   2.586   0.939   7.620 -0.2271  0.9153  0.0755
   95SAPS  H11R 9401   2.636   0.847   7.586  0.3904  1.4659 -0.5151
   95SAPS  C212 9402   2.539   0.953   7.750 -0.0174 -0.2822  0.1472
   95SAPS  H12R 9403   2.552   0.872   7.823  0.7581  0.1211  0.4663
   95SAPS  C213 9404   2.456   1.071   7.790 -0.5256  0.3610 -0.2585
   95SAPS  H13R 9405   2.367   1.024   7.837  0.0447 -0.1544  0.3105
   95SAPS  H13S 9406   2.429   1.139   7.706  1.3141 -0.2085 -1.3400
   95SAPS  C214 9407   2.548   1.144   7.880 -0.5700  0.8111 -0.6002
   95SAPS  H14R 9408   2.638   1.184   7.829  1.0727 -1.5453  0.3506
   95SAPS  C215 9409   2.522   1.176   8.006 -1.1689 -0.0584  1.3015
   95SAPS  H15R 9410   2.607   1.213   8.066 -0.8845  0.6587  0.4670
   95SAPS  C216 9411   2.395   1.151   8.084  0.6698  0.1975 -0.1507
   95SAPS  H16R 9412   2.409   1.062   8.150  0.2419 -0.6341 -1.1614
   95SAPS  H16S 9413   2.311   1.119   8.019  0.1930  2.7108 -0.8236
   95SAPS  C217 9414   2.343   1.271   8.166  0.2398 -0.2113  0.1245
   95SAPS  H17R 9415   2.328   1.354   8.094  1.3982 -2.1832 -2.4355
   95SAPS  H17S 9416   2.425   1.300   8.235 -0.3441  1.2729  0.2215
   95SAPS  C218 9417   2.216   1.265   8.247 -0.4796  0.3190  0.7726
   95SAPS  H18R 9418   2.204   1.170   8.304  1.4704  0.5719  1.6409
   95SAPS  H18S 9419   2.130   1.262   8.177  0.6970  4.3647 -0.9851
   95SAPS  C219 9420   2.211   1.376   8.352 -0.0886 -0.6320 -0.7776
   95SAPS  H19R 9421   2.114   1.376   8.406 -0.4421 -4.4603 -1.2346
   95SAPS  H19S 9422   2.201   1.465   8.286 -1.3943 -0.1966 -0.0132
   95SAPS  C220 9423   2.327   1.389   8.458  0.1043  0.1871 -1.2742
   95SAPS  H20R 9424   2.337   1.296   8.519 -1.5820  0.4815 -0.5278
   95SAPS  H20S 9425   2.297   1.465   8.534  0.4106 -1.2327  0.3113
   95SAPS  H20T 9426   2.427   1.424   8.424 -0.1272  1.2050 -0.9209
   95SAPS   C33 9427   1.947   0.764   7.132 -0.0785 -1.0093  0.4803
   95SAPS   H3X 9428   2.011   0.851   7.105 -0.5922 -1.4673 -2.3430
   95SAPS   H3Y 9429   2.001   0.679   7.087 -0.2982 -0.7487 -0.2856
   95SAPS   C34 9430   1.929   0.745   7.280  0.5435  0.3860 -0.1596
   95SAPS   H4X 9431   1.863   0.657   7.297  2.1498 -0.5966  1.2570
   95SAPS   H4Y 9432   1.867   0.829   7.317  2.9229  1.9364  0.4480
   95SAPS   C35 9433   2.061   0.722   7.352  0.2255  0.0029  0.0003
   95SAPS   H5X 9434   2.123   0.812   7.334 -0.5773  0.0949 -2.5248
   95SAPS   H5Y 9435   2.104   0.624   7.322 -3.7246 -2.6382  2.4078
   95SAPS   C36 9436   2.041   0.714   7.506 -0.5215 -0.4811  0.2733
   95SAPS   H6X 9437   1.965   0.633   7.516  0.7116 -2.1135 -2.7861
   95SAPS   H6Y 9438   1.991   0.806   7.543 -2.6382 -0.6599 -1.9758
   95SAPS   C37 9439   2.172   0.680   7.580  0.1753 -0.8061 -0.0935
   95SAPS   H7X 9440   2.227   0.775   7.569  0.5091 -0.9223  0.5452
   95SAPS   H7Y 9441   2.211   0.596   7.519 -0.4091  0.1447 -1.7841
   95SAPS   C38 9442   2.159   0.637   7.723  0.3126  0.1046  0.1103
   95SAPS   H8X 9443   2.260   0.623   7.765 -0.5899 -0.7881  2.0729
   95SAPS   H8Y 9444   2.102   0.543   7.740 -0.7635  1.2107  2.9691
   95SAPS   C39 9445   2.093   0.738   7.822  0.3884  0.3302  0.1702
   95SAPS   H9X 9446   1.993   0.769   7.783  0.1145 -1.7219 -0.8239
   95SAPS   H9Y 9447   2.160   0.827   7.830 -1.4563  1.7650  0.1485
   95SAPS  C310 9448   2.077   0.670   7.963 -0.3783 -0.1625 -0.6826
   95SAPS  H10X 9449   2.174   0.671   8.018 -1.6421  0.5343  1.5953
   95SAPS  H10Y 9450   2.059   0.562   7.945 -3.2320 -0.3831  2.8942
   95SAPS  C311 9451   1.963   0.731   8.041  0.4789 -0.1991  0.1305
   95SAPS  H11X 9452   1.872   0.737   7.977  0.0436  1.0377  0.8513
   95SAPS  H11Y 9453   1.982   0.836   8.070 -0.1930  0.2881 -1.1195
   95SAPS  C312 9454   1.936   0.651   8.166 -0.0385 -0.0794 -0.2494
   95SAPS  H12X 9455   2.022   0.652   8.236  1.6579 -1.1290 -2.2848
   95SAPS  H12Y 9456   1.931   0.549   8.123 -1.4622 -0.0076 -0.3074
   95SAPS  C313 9457   1.803   0.678   8.246  0.5391  0.6229  0.4344
   95SAPS  H13X 9458   1.717   0.652   8.182  1.7510 -2.8069  0.1200
   95SAPS  H13Y 9459   1.792   0.786   8.271  0.4174  0.3691  1.4795
   95SAPS  C314 9460   1.801   0.607   8.379  0.2037  0.2467 -0.0740
   95SAPS  H14X 9461   1.724   0.657   8.442  1.8520  1.5700  0.9707
   95SAPS  H14Y 9462   1.900   0.622   8.429  0.2807 -0.2729 -0.0739
   95SAPS  C315 9463   1.767   0.454   8.375 -0.3893 -0.2019 -0.1936
   95SAPS  H15X 9464   1.837   0.385   8.324 -2.7484 -1.3710 -1.9351
   95SAPS  H15Y 9465   1.681   0.437   8.308 -0.2716 -2.0111  0.0971
   95SAPS  C316 9466   1.735   0.404   8.519  0.4649  0.1863  0.5210
   95SAPS  H16X 9467   1.637   0.442   8.555 -0.8365 -0.0437 -2.6312
   95SAPS  H16Y 9468   1.805   0.448   8.593  3.0606 -4.2897  0.8766
   95SAPS  C317 9469   1.745   0.250   8.534  0.1543 -0.3530 -0.2755
   95SAPS  H17X 9470   1.842   0.213   8.495  0.7312 -0.8175  1.5515
   95SAPS  H17Y 9471   1.674   0.201   8.464  0.7372  0.5494 -1.5166
   95SAPS  C318 9472   1.715   0.209   8.680  0.1362  0.2625 -0.5747
   95SAPS  H18X 9473   1.794   0.220   8.757 -0.1000  0.0018 -0.2944
   95SAPS  H18Y 9474   1.661   0.112   8.691 -3.5901  2.3294  0.0877
   95SAPS  H18Z 9475   1.634   0.279   8.710 -1.3859 -0.8053 -2.0476
   96SAPS     N 9476   2.892   2.214   6.313  0.6086 -0.1762  0.1289
   96SAPS   HN1 9477   2.946   2.138   6.358 -0.8191 -1.0049  0.4743
   96SAPS   HN2 9478   2.826   2.244   6.388  0.0026 -2.9237  0.7375
   96SAPS   HN3 9479   2.839   2.164   6.239  0.3123 -0.4524  0.5235
   96SAPS   C12 9480   2.979   2.331   6.264 -0.6557  0.1530 -0.0935
   96SAPS  H12A 9481   3.048   2.355   6.343  0.6618 -0.7146 -0.9717
   96SAPS   C13 9482   3.060   2.291   6.140 -0.2364  0.5598  0.0135
   96SAPS  O13A 9483   3.055   2.173   6.091  0.2681  0.5279 -0.2593
   96SAPS  O13B 9484   3.144   2.375   6.099  1.1246  0.9329  0.5157
   96SAPS   C11 9485   2.878   2.449   6.234  0.6386  0.3280 -0.2476
   96SAPS  H11A 9486   2.811   2.417   6.151 -2.1566 -0.2904  2.1686
   96SAPS  H11B 9487   2.937   2.531   6.187  0.4632  0.7221  0.2232
   96SAPS     P 9488   2.643   2.440   6.369 -0.2194 -0.0419  0.2463
   96SAPS   O13 9489   2.562   2.470   6.251 -0.2887 -0.4396  0.3210
   96SAPS   O14 9490   2.649   2.309   6.427  0.0067 -0.1504  0.0816
   96SAPS   O12 9491   2.793   2.489   6.345  0.3905 -0.4935  0.0853
   96SAPS   O11 9492   2.597   2.532   6.483  0.7692  0.4564  0.6877
   96SAPS    C1 9493   2.663   2.631   6.554  0.4067 -0.1275  0.1005
   96SAPS    HA 9494   2.731   2.691   6.489 -0.7093 -0.3552 -1.2961
   96SAPS    HB 9495   2.595   2.706   6.600  1.6329  1.3000 -0.3760
   96SAPS    C2 9496   2.725   2.558   6.674 -0.0160  0.0705  1.0264
   96SAPS    HS 9497   2.778   2.471   6.631  0.6390  0.3816  1.1890
   96SAPS   O21 9498   2.614   2.519   6.763  0.1170 -0.0583  0.4758
   96SAPS   C21 9499   2.633   2.407   6.830 -0.2623  0.2195  0.3163
   96SAPS   O22 9500   2.733   2.334   6.829  0.1963 -0.0535 -0.1938
   96SAPS   C22 9501   2.517   2.385   6.921 -0.8071  0.3044  0.3849
   96SAPS   H2R 9502   2.492   2.478   6.975  1.0061  2.1054 -1.7630
   96SAPS   H2S 9503   2.424   2.349   6.871 -1.8988  1.5966  1.4787
   96SAPS    C3 9504   2.835   2.648   6.739 -0.2267  0.6782  0.2249
   96SAPS    HX 9505   2.775   2.734   6.775 -0.9826  0.4398 -0.4399
   96SAPS    HY 9506   2.900   2.689   6.658 -1.2344  0.8438 -0.5144
   96SAPS   O31 9507   2.896   2.577   6.851  0.3576 -0.3578  0.3255
   96SAPS   C31 9508   3.002   2.500   6.813 -0.5786 -0.2358 -0.3913
   96SAPS   O32 9509   3.056   2.501   6.703  0.3992  0.3765 -0.1047
   96SAPS   C32 9510   3.064   2.448   6.941 -0.5256 -0.0435 -0.1652
   96SAPS   H2X 9511   3.072   2.539   7.004  0.3304 -0.2327  0.0072
   96SAPS   H2Y 9512   3.163   2.412   6.907  0.7902  3.4410 -0.2540
   96SAPS   C23 9513   2.544   2.273   7.024 -0.7955 -0.2694 -0.4108
   96SAPS   H3R 9514   2.595   2.331   7.104 -0.8132  0.4542 -0.9230
   96SAPS   H3S 9515   2.619   2.197   6.993  0.2501 -0.0614  1.5399
   96SAPS   C24 9516   2.412   2.207   7.083 -0.7655  0.3660  0.0375
   96SAPS   H4R 9517   2.461   2.120   7.130 -2.5128 -0.5590  0.2017
   96SAPS   H4S 9518   2.346   2.174   7.000 -0.8953  1.8482 -0.4742
   96SAPS   C25 9519   2.334   2.289   7.181 -0.1723 -0.0907  0.4889
   96SAPS   H5R 9520   2.269   2.360   7.128  0.5915  0.5427  0.3922
   96SAPS   C26 9521   2.326   2.274   7.318  0.0326 -0.0898 -0.1024
   96SAPS   H6R 9522   2.258   2.345   7.367 -1.7619  0.0707 -2.7407
   96SAPS   C27 9523   2.387   2.166   7.413 -0.6037 -0.1467  0.0595
   96SAPS   H7R 9524   2.453   2.092   7.363 -0.0679 -1.8371  3.1894
   96SAPS   H7S 9525   2.307   2.101   7.455 -1.3380 -0.3978 -1.6634
   96SAPS   C28 9526   2.460   2.236   7.521 -0.3925 -0.5305 -0.4532
   96SAPS   H8R 9527   2.516   2.321   7.479  0.2135  0.7829  2.8359
   96SAPS   C29 9528   2.463   2.207   7.654 -0.4282  0.9389 -0.0556
   96SAPS   H9R 9529   2.526   2.276   7.713 -2.0413  2.6990 -0.3675
   96SAPS  C210 9530   2.397   2.082   7.713  0.2489  0.3008  0.2359
   96SAPS  H10R 9531   2.377   2.000   7.641  0.4497 -0.6113  1.2141
   96SAPS  H10S 9532   2.296   2.115   7.745 -0.2219  0.9749 -1.8606
   96SAPS  C211 9533   2.467   2.028   7.830 -0.1710 -0.0206 -0.1949
   96SAPS  H11R 9534   2.529   1.940   7.805  0.6457  0.6582 -0.5942
   96SAPS  C212 9535   2.465   2.071   7.960 -0.2326  0.0250 -0.1318
   96SAPS  H12R 9536   2.519   2.014   8.037 -1.8598  0.0785  1.0916
   96SAPS  C213 9537   2.378   2.194   8.000 -0.5604 -0.3796 -0.1083
   96SAPS  H13R 9538   2.305   2.147   8.070 -0.3715  1.1662  1.1772
   96SAPS  H13S 9539   2.315   2.235   7.919  0.0049 -0.9157 -0.8218
   96SAPS  C214 9540   2.448   2.304   8.069  0.2703  0.0586 -0.2633
   96SAPS  H14R 9541   2.467   2.390   8.003  3.8770  1.2809  2.2137
   96SAPS  C215 9542   2.487   2.319   8.193  0.5482 -0.1867 -0.0203
   96SAPS  H15R 9543   2.523   2.420   8.217  0.7099  0.3819 -2.4931
   96SAPS  C216 9544   2.482   2.221   8.301  0.4254  0.1738 -0.3071
   96SAPS  H16R 9545   2.587   2.206   8.334  0.3487  0.1730 -0.0624
   96SAPS  H16S 9546   2.445   2.122   8.267  0.2436  0.6028 -1.3847
   96SAPS  C217 9547   2.411   2.277   8.422 -0.2305 -0.2582 -0.3419
   96SAPS  H17R 9548   2.392   2.195   8.494 -1.4666 -0.7208 -1.1678
   96SAPS  H17S 9549   2.311   2.317   8.395 -0.0018  0.7601  0.3032
   96SAPS  C218 9550   2.497   2.367   8.515  0.7998 -0.1003  0.1485
   96SAPS  H18R 9551   2.536   2.448   8.450 -1.1830  1.6430  1.0592
   96SAPS  H18S 9552   2.581   2.315   8.566  0.8786  0.2417  0.3660
   96SAPS  C219 9553   2.405   2.433   8.623  0.5640 -0.0959  0.3715
   96SAPS  H19R 9554   2.319   2.483   8.574  0.6532  0.9730  1.3043
   96SAPS  H19S 9555   2.464   2.510   8.677  0.2200 -0.1021  0.7576
   96SAPS  C220 9556   2.346   2.335   8.719 -0.2896 -0.4999  0.8432
   96SAPS  H20R 9557   2.282   2.380   8.798 -0.3057 -0.2854  0.7069
   96SAPS  H20S 9558   2.425   2.277   8.772 -0.1942 -1.1097  0.0368
   96SAPS  H20T 9559   2.278   2.264   8.666 -1.0659  1.0007 -0.1911
   96SAPS   C33 9560   2.977   2.333   7.001 -0.3681 -0.6181 -0.7084
   96SAPS   H3X 9561   2.959   2.249   6.931  1.6393 -3.8908  2.5026
   96SAPS   H3Y 9562   2.884   2.382   7.035 -1.1076 -1.2241 -1.8625
   96SAPS   C34 9563   3.047   2.276   7.121  0.1105 -0.0286  0.0739
   96SAPS   H4X 9564   3.158   2.278   7.125  0.0642  1.0526  1.2726
   96SAPS   H4Y 9565   3.016   2.172   7.144  2.1722 -0.9439 -1.1266
   96SAPS   C35 9566   3.025   2.368   7.245  0.3460 -0.0332  0.3668
   96SAPS   H5X 9567   2.922   2.354   7.284  0.1270 -1.1977 -0.5703
   96SAPS   H5Y 9568   3.027   2.473   7.209 -1.1676 -0.1017  0.0700
   96SAPS   C36 9569   3.121   2.348   7.367 -0.3149  0.9942  0.0435
   96SAPS   H6X 9570   3.214   2.399   7.335 -0.6988  1.1895 -0.7792
   96SAPS   H6Y 9571   3.127   2.237   7.377 -0.9224  0.7858 -1.5741
   96SAPS   C37 9572   3.070   2.419   7.493  0.1875  0.3341  0.5905
   96SAPS   H7X 9573   2.963   2.390   7.492  0.7575 -1.9411 -2.2222
   96SAPS   H7Y 9574   3.075   2.530   7.483  0.7220  0.0009 -4.4627
   96SAPS   C38 9575   3.151   2.371   7.607  0.1292 -0.3785 -0.3595
   96SAPS   H8X 9576   3.260   2.388   7.600 -0.1283  0.8897 -1.5755
   96SAPS   H8Y 9577   3.133   2.262   7.615  0.5411 -0.3245  1.4128
   96SAPS   C39 9578   3.105   2.447   7.732  0.4165 -0.4756  0.3047
   96SAPS   H9X 9579   3.001   2.414   7.753 -0.9973  1.5368 -3.0326
   96SAPS   H9Y 9580   3.096   2.558   7.729  1.5057 -0.3632  1.0481
   96SAPS  C310 9581   3.198   2.408   7.850 -0.0977  0.3794  0.2895
   96SAPS  H10X 9582   3.293   2.464   7.836  1.3433 -1.2679  2.9373
   96SAPS  H10Y 9583   3.226   2.302   7.838  0.5619  0.5115  0.6706
   96SAPS  C311 9584   3.129   2.454   7.977  0.3655 -0.1840 -1.2027
   96SAPS  H11X 9585   3.030   2.408   7.995  1.7657 -2.2281  1.7847
   96SAPS  H11Y 9586   3.107   2.562   7.978  0.3189 -0.1880  0.2806
   96SAPS  C312 9587   3.215   2.427   8.102  0.2918 -0.7378  0.1042
   96SAPS  H12X 9588   3.295   2.351   8.094  1.2504  0.5357 -3.2041
   96SAPS  H12Y 9589   3.143   2.369   8.166 -0.3132 -0.2354 -0.1153
   96SAPS  C313 9590   3.260   2.560   8.174 -0.4195 -0.4488 -0.2564
   96SAPS  H13X 9591   3.174   2.604   8.228  0.3907 -0.5315  1.1146
   96SAPS  H13Y 9592   3.297   2.638   8.104 -1.8529  0.0523 -0.4811
   96SAPS  C314 9593   3.369   2.524   8.270  0.2580  0.3569 -0.1244
   96SAPS  H14X 9594   3.462   2.517   8.210 -0.8108  1.1082 -1.9207
   96SAPS  H14Y 9595   3.342   2.429   8.321 -0.5032  1.0187  0.7175
   96SAPS  C315 9596   3.394   2.638   8.375 -0.5580 -0.0837 -0.5868
   96SAPS  H15X 9597   3.424   2.729   8.319  0.1473  1.1885  1.7518
   96SAPS  H15Y 9598   3.480   2.611   8.440  0.9580  0.8432 -2.1660
   96SAPS  C316 9599   3.278   2.678   8.473  0.2730 -0.1051  0.3677
   96SAPS  H16X 9600   3.223   2.583   8.493 -0.9823  0.8369  1.4694
   96SAPS  H16Y 9601   3.205   2.741   8.418  0.4101 -0.4603 -0.2310
   96SAPS  C317 9602   3.334   2.756   8.590  0.2731 -0.2101  0.3014
   96SAPS  H17X 9603   3.416   2.694   8.630  0.4080 -0.2725 -0.0684
   96SAPS  H17Y 9604   3.256   2.758   8.669  0.5498  0.0452  0.5677
   96SAPS  C318 9605   3.388   2.893   8.560  0.1860 -0.3448  0.1775
   96SAPS  H18X 9606   3.433   2.899   8.458 -0.4236  1.2354 -0.0134
   96SAPS  H18Y 9607   3.465   2.919   8.636  0.3045  1.5457 -0.5504
   96SAPS  H18Z 9608   3.305   2.967   8.564  1.2177  0.9250 -0.8983
   97SAPS     N 9609   3.819   0.132   6.519 -0.1971  0.0714  0.7755
   97SAPS   HN1 9610   3.903   0.141   6.579 -0.6773  0.8899  1.3404
   97SAPS   HN2 9611   3.733   0.127   6.577 -1.3902 -1.7807 -1.1118
   97SAPS   HN3 9612   3.823   0.056   6.448  0.8767  0.0047  0.8957
   97SAPS   C12 9613   3.786   0.268   6.445 -0.4589 -0.3788  0.4445
   97SAPS  H12A 9614   3.883   0.307   6.417 -0.6085  0.3009  0.8440
   97SAPS   C13 9615   3.702   0.260   6.316  0.1592  0.1208 -0.3408
   97SAPS  O13A 9616   3.654   0.144   6.293  0.0856 -0.6223  0.0730
   97SAPS  O13B 9617   3.689   0.354   6.234  0.1431  0.1033  0.3399
   97SAPS   C11 9618   3.730   0.362   6.551  0.2746 -1.1778 -0.0980
   97SAPS  H11A 9619   3.677   0.451   6.510 -0.0169 -1.5884 -0.6210
   97SAPS  H11B 9620   3.810   0.398   6.620  0.0968 -0.1344 -0.4281
   97SAPS     P 9621   3.480   0.299   6.612 -0.4280  0.1515 -0.0227
   97SAPS   O13 9622   3.460   0.386   6.496  0.2263 -0.1030  0.0203
   97SAPS   O14 9623   3.442   0.155   6.600  0.1746  0.0051  0.4981
   97SAPS   O12 9624   3.635   0.303   6.647  0.1474  0.1070 -0.6010
   97SAPS   O11 9625   3.414   0.362   6.746  0.4212  0.0016 -0.9614
   97SAPS    C1 9626   3.477   0.466   6.822  0.6489 -0.0112  0.0698
   97SAPS    HA 9627   3.572   0.505   6.779  2.5838 -1.5258  2.7860
   97SAPS    HB 9628   3.414   0.557   6.829 -0.2803 -0.7725  2.0596
   97SAPS    C2 9629   3.508   0.427   6.973  0.1687  0.1405  0.5944
   97SAPS    HS 9630   3.523   0.518   7.034 -0.1133 -0.6337  1.8581
   97SAPS   O21 9631   3.626   0.335   6.970 -0.1060 -0.5276  0.0301
   97SAPS   C21 9632   3.743   0.406   6.995  1.2542 -0.0285  0.6599
   97SAPS   O22 9633   3.747   0.524   7.014 -0.3566  0.1523 -0.2141
   97SAPS   C22 9634   3.864   0.314   6.987  0.4951 -0.1545  0.5742
   97SAPS   H2R 9635   3.848   0.216   7.036  0.7114 -0.0192  0.9202
   97SAPS   H2S 9636   3.888   0.304   6.879  0.7916 -1.0133  0.7165
   97SAPS    C3 9637   3.389   0.341   7.029  0.4505  0.0205 -0.2905
   97SAPS    HX 9638   3.381   0.245   6.973  0.6915 -1.3303  1.9295
   97SAPS    HY 9639   3.299   0.404   7.012  1.3224  0.7946 -2.1914
   97SAPS   O31 9640   3.401   0.300   7.167 -0.2615  0.1167  0.1161
   97SAPS   C31 9641   3.407   0.398   7.257  0.4348  0.2335  0.1990
   97SAPS   O32 9642   3.391   0.519   7.230 -0.0782  0.2741 -0.1938
   97SAPS   C32 9643   3.427   0.328   7.386  0.2005  0.1177 -0.0771
   97SAPS   H2X 9644   3.535   0.322   7.412  0.0787  0.6587  0.5943
   97SAPS   H2Y 9645   3.370   0.233   7.392  0.6957 -0.0872  1.6397
   97SAPS   C23 9646   3.992   0.371   7.057  0.4320 -0.1295  0.3575
   97SAPS   H3R 9647   3.986   0.401   7.164  0.8915  1.3355 -0.0168
   97SAPS   H3S 9648   4.010   0.466   7.002 -1.3067 -0.3637 -0.6861
   97SAPS   C24 9649   4.124   0.300   7.027  0.3174  0.5387 -0.1149
   97SAPS   H4R 9650   4.209   0.363   7.062 -0.2617  0.8543  0.7298
   97SAPS   H4S 9651   4.142   0.283   6.919  2.2881 -1.6332  0.4892
   97SAPS   C25 9652   4.122   0.174   7.114 -0.2183 -0.2216  0.2434
   97SAPS   H5R 9653   4.082   0.088   7.058  1.0964 -0.5572 -0.1814
   97SAPS   C26 9654   4.141   0.157   7.248 -0.3315 -0.1975  0.2878
   97SAPS   H6R 9655   4.140   0.056   7.293  2.0404 -0.4981 -0.2659
   97SAPS   C27 9656   4.185   0.256   7.349 -0.0773  0.1651  0.8193
   97SAPS   H7R 9657   4.146   0.224   7.448  0.7326 -1.3246  0.6760
   97SAPS   H7S 9658   4.132   0.353   7.341 -2.2577 -1.0117  0.4270
   97SAPS   C28 9659   4.334   0.287   7.343 -0.2590  0.2690  0.1028
   97SAPS   H8R 9660   4.376   0.331   7.252  3.1057 -1.0958  0.9273
   97SAPS   C29 9661   4.422   0.290   7.446  0.1610 -0.4050  0.4503
   97SAPS   H9R 9662   4.524   0.326   7.428 -0.3107  2.2263  2.5747
   97SAPS  C210 9663   4.391   0.257   7.596 -0.9545 -0.0887  0.4041
   97SAPS  H10R 9664   4.453   0.166   7.616  1.1332  1.5491  1.6274
   97SAPS  H10S 9665   4.288   0.222   7.618 -1.0549  0.7766  1.3125
   97SAPS  C211 9666   4.426   0.356   7.706  0.0443  0.2174  0.5863
   97SAPS  H11R 9667   4.458   0.460   7.685 -0.0171 -0.1357 -1.3164
   97SAPS  C212 9668   4.432   0.326   7.841  0.1842  0.3266  0.3782
   97SAPS  H12R 9669   4.476   0.391   7.918 -0.3001  1.9926 -0.7176
   97SAPS  C213 9670   4.380   0.191   7.894 -0.1534 -0.0478 -0.0570
   97SAPS  H13R 9671   4.443   0.158   7.980  1.3493  0.7474 -0.8235
   97SAPS  H13S 9672   4.400   0.111   7.820  0.1794  1.5038 -1.6832
   97SAPS  C214 9673   4.231   0.199   7.913  0.1973  1.1948 -0.0122
   97SAPS  H14R 9674   4.182   0.223   7.818  0.0953 -1.2132 -0.6075
   97SAPS  C215 9675   4.163   0.159   8.016  0.6359  1.0220  0.6923
   97SAPS  H15R 9676   4.054   0.157   8.001  0.7058  2.2454 -0.0013
   97SAPS  C216 9677   4.208   0.113   8.150 -0.2135  0.5083  0.1847
   97SAPS  H16R 9678   4.309   0.066   8.147  0.2787  1.6024 -0.6450
   97SAPS  H16S 9679   4.149   0.023   8.176 -1.7568  1.4513  0.0083
   97SAPS  C217 9680   4.185   0.211   8.263 -0.9685 -0.5162 -0.3721
   97SAPS  H17R 9681   4.211   0.164   8.360 -0.3629  0.0681 -0.2413
   97SAPS  H17S 9682   4.077   0.237   8.273 -0.7744  0.5381 -0.9389
   97SAPS  C218 9683   4.264   0.347   8.241 -0.0452 -0.4526  0.3721
   97SAPS  H18R 9684   4.221   0.397   8.151  0.7872 -1.5925 -0.6752
   97SAPS  H18S 9685   4.370   0.323   8.218  0.0816  0.1835  0.2797
   97SAPS  C219 9686   4.249   0.453   8.350 -0.8335 -0.2727  0.1585
   97SAPS  H19R 9687   4.154   0.510   8.358 -1.0784 -0.9031  1.9348
   97SAPS  H19S 9688   4.329   0.529   8.334  0.6150 -1.1092  3.0175
   97SAPS  C220 9689   4.261   0.398   8.495  0.4435 -0.3694 -0.4032
   97SAPS  H20R 9690   4.168   0.348   8.530  0.9431 -0.2864  1.0578
   97SAPS  H20S 9691   4.268   0.483   8.566 -0.4905 -1.6329  1.2280
   97SAPS  H20T 9692   4.348   0.333   8.518 -0.4244 -1.9746 -1.5353
   97SAPS   C33 9693   3.380   0.417   7.505  0.0250 -0.2218 -0.2332
   97SAPS   H3X 9694   3.404   0.524   7.483  0.8859  0.1987  2.5910
   97SAPS   H3Y 9695   3.437   0.391   7.597 -2.4500 -1.3639  1.0051
   97SAPS   C34 9696   3.229   0.404   7.536 -1.3361  0.2407 -0.1458
   97SAPS   H4X 9697   3.184   0.382   7.437  0.1542 -0.3013 -0.7271
   97SAPS   H4Y 9698   3.183   0.497   7.576 -1.1697  0.5110 -0.5827
   97SAPS   C35 9699   3.199   0.281   7.627  0.4858 -0.3498  0.2658
   97SAPS   H5X 9700   3.257   0.201   7.576 -0.8723  0.4999 -2.7384
   97SAPS   H5Y 9701   3.091   0.255   7.619  0.6899 -0.7857 -1.1482
   97SAPS   C36 9702   3.236   0.313   7.777 -0.1379 -0.3907  0.2591
   97SAPS   H6X 9703   3.344   0.294   7.793  0.0582  0.9470  0.5550
   97SAPS   H6Y 9704   3.184   0.239   7.843 -1.0031 -0.0498 -0.0285
   97SAPS   C37 9705   3.199   0.451   7.827  0.1696 -0.3490 -1.1310
   97SAPS   H7X 9706   3.103   0.477   7.778  0.2043  2.5908  0.2593
   97SAPS   H7Y 9707   3.277   0.521   7.791 -0.1406  0.1001 -0.9289
   97SAPS   C38 9708   3.177   0.459   7.989  0.3012  0.7184 -0.3406
   97SAPS   H8X 9709   3.167   0.564   8.023  0.9125  0.8656 -0.6083
   97SAPS   H8Y 9710   3.272   0.432   8.041  0.3066  0.3021 -0.5649
   97SAPS   C39 9711   3.060   0.377   8.044 -0.3102 -0.5606 -0.3798
   97SAPS   H9X 9712   3.075   0.269   8.020 -1.0169 -1.6724  3.7765
   97SAPS   H9Y 9713   2.962   0.416   8.011 -0.3035 -0.6277 -0.4785
   97SAPS  C310 9714   3.051   0.406   8.199 -0.7342  0.1549  0.4292
   97SAPS  H10X 9715   3.043   0.512   8.232  1.8378 -0.0264  1.7602
   97SAPS  H10Y 9716   3.137   0.360   8.253 -0.0414 -0.5828 -1.2592
   97SAPS  C311 9717   2.925   0.340   8.255  0.3603  0.7387 -0.6306
   97SAPS  H11X 9718   2.945   0.231   8.246 -0.2394  0.4267  1.5214
   97SAPS  H11Y 9719   2.834   0.373   8.200 -0.8931  0.9546  1.5027
   97SAPS  C312 9720   2.901   0.371   8.402 -0.2111 -0.0709  0.7962
   97SAPS  H12X 9721   2.996   0.355   8.457 -1.3766 -0.4181  2.7628
   97SAPS  H12Y 9722   2.838   0.295   8.453  2.1402 -1.0851  2.2594
   97SAPS  C313 9723   2.861   0.511   8.443 -0.5129 -0.0145  0.3702
   97SAPS  H13X 9724   2.778   0.541   8.376 -1.0943 -3.3888 -0.4690
   97SAPS  H13Y 9725   2.949   0.578   8.433 -0.4706 -0.0052  0.8045
   97SAPS  C314 9726   2.805   0.516   8.584 -0.0390  0.6257 -0.2649
   97SAPS  H14X 9727   2.882   0.473   8.651  0.0510 -0.3709 -0.9866
   97SAPS  H14Y 9728   2.706   0.467   8.599  0.4612 -0.8844 -1.6912
   97SAPS  C315 9729   2.768   0.662   8.612 -0.1790  0.6269  0.0539
   97SAPS  H15X 9730   2.679   0.685   8.550 -0.2827  1.0039  0.3451
   97SAPS  H15Y 9731   2.844   0.734   8.572  0.4207 -0.9951 -1.7929
   97SAPS  C316 9732   2.751   0.712   8.756  0.2761 -0.7241 -0.0192
   97SAPS  H16X 9733   2.765   0.822   8.748 -0.8050 -0.3563  2.5387
   97SAPS  H16Y 9734   2.828   0.659   8.818  0.3845 -2.0327 -1.2485
   97SAPS  C317 9735   2.617   0.672   8.812  0.0977 -0.0398  0.2764
   97SAPS  H17X 9736   2.622   0.703   8.919 -1.4114 -0.9799  0.6382
   97SAPS  H17Y 9737   2.611   0.561   8.816  0.9062 -0.1028 -0.2480
   97SAPS  C318 9738   2.496   0.740   8.750 -0.9654 -0.4843 -0.6216
   97SAPS  H18X 9739   2.396   0.714   8.791 -0.3973 -0.6006  0.7344
   97SAPS  H18Y 9740   2.482   0.711   8.644  0.4968 -2.0030 -0.4186
   97SAPS  H18Z 9741   2.502   0.851   8.751  0.2564 -0.5514  1.1511
   98SAPS     N 9742   1.354   0.737   5.989 -0.0298  0.5419  0.6693
   98SAPS   HN1 9743   1.283   0.702   5.921 -0.5464 -3.1434  2.9864
   98SAPS   HN2 9744   1.320   0.833   6.009 -0.7142 -0.0299  2.3296
   98SAPS   HN3 9745   1.445   0.741   5.938 -0.6581 -0.4594 -0.5533
   98SAPS   C12 9746   1.370   0.666   6.109 -0.0665  0.3898  0.0739
   98SAPS  H12A 9747   1.462   0.703   6.153  0.8898 -0.8628 -0.8103
   98SAPS   C13 9748   1.261   0.698   6.215  0.5623  0.0734  0.2890
   98SAPS  O13A 9749   1.173   0.782   6.193 -0.0519 -0.0554 -0.1859
   98SAPS  O13B 9750   1.269   0.637   6.328 -1.1042  0.1606 -0.3504
   98SAPS   C11 9751   1.374   0.509   6.084  0.0700 -0.3889  0.4688
   98SAPS  H11A 9752   1.275   0.490   6.037  0.9116 -0.6221 -1.2437
   98SAPS  H11B 9753   1.377   0.453   6.180  3.8037  1.0464  1.2882
   98SAPS     P 9754   1.590   0.371   6.006 -0.0216  0.2042 -0.2033
   98SAPS   O13 9755   1.534   0.242   6.054  0.0685 -0.8709  0.5204
   98SAPS   O14 9756   1.665   0.357   5.875 -0.2167  0.5018 -0.0681
   98SAPS   O12 9757   1.471   0.478   5.985 -0.3285  0.4371 -0.4117
   98SAPS   O11 9758   1.681   0.438   6.111 -0.1022 -0.4306 -0.5200
   98SAPS    C1 9759   1.804   0.378   6.154  0.3421 -0.5361 -0.5138
   98SAPS    HA 9760   1.847   0.313   6.075 -0.4887 -2.2404  0.4158
   98SAPS    HB 9761   1.880   0.458   6.161 -0.6337  0.4766 -1.1554
   98SAPS    C2 9762   1.799   0.303   6.286  0.5492 -1.2475 -0.1527
   98SAPS    HS 9763   1.732   0.215   6.272 -0.9406  0.1257 -1.8765
   98SAPS   O21 9764   1.761   0.392   6.398 -0.3376  0.6149 -0.3469
   98SAPS   C21 9765   1.638   0.387   6.437  0.4887 -0.3250  0.1240
   98SAPS   O22 9766   1.549   0.326   6.385  0.1968  0.2855  0.1707
   98SAPS   C22 9767   1.619   0.472   6.560  0.0529 -0.1119 -0.2095
   98SAPS   H2R 9768   1.699   0.443   6.631  1.2989 -0.9924 -1.9376
   98SAPS   H2S 9769   1.629   0.579   6.530  1.0050  0.2300  1.2554
   98SAPS    C3 9770   1.934   0.243   6.322 -0.2928  0.0551  0.3259
   98SAPS    HX 9771   2.019   0.312   6.306 -0.3408  0.1608  0.5324
   98SAPS    HY 9772   1.962   0.158   6.256  2.3261 -0.3373  1.8836
   98SAPS   O31 9773   1.926   0.184   6.450 -0.5769 -0.0438 -0.5920
   98SAPS   C31 9774   1.979   0.238   6.558 -0.2258 -0.0127 -0.1842
   98SAPS   O32 9775   2.021   0.348   6.556  0.3157 -0.1928 -0.4407
   98SAPS   C32 9776   1.983   0.146   6.668 -0.5726 -0.6225  0.6346
   98SAPS   H2X 9777   2.053   0.065   6.638  3.3304  1.7670  2.8253
   98SAPS   H2Y 9778   1.880   0.116   6.695 -0.7339 -1.0534 -0.4327
   98SAPS   C23 9779   1.474   0.444   6.615 -0.0712 -0.5293  0.6292
   98SAPS   H3R 9780   1.464   0.335   6.633  0.3592 -0.8043 -0.7060
   98SAPS   H3S 9781   1.404   0.482   6.538 -0.5058  0.3773  1.4649
   98SAPS   C24 9782   1.459   0.525   6.746 -0.9699 -0.0362 -0.1888
   98SAPS   H4R 9783   1.507   0.623   6.727  1.4523 -1.4914 -1.8329
   98SAPS   H4S 9784   1.517   0.479   6.829 -0.5208  1.4922  0.3555
   98SAPS   C25 9785   1.315   0.548   6.777  0.1948  0.6603  0.4230
   98SAPS   H5R 9786   1.264   0.581   6.685 -0.2091  0.1485  0.4630
   98SAPS   C26 9787   1.258   0.546   6.895 -0.4067  0.1201 -0.1177
   98SAPS   H6R 9788   1.151   0.572   6.902 -0.5242 -0.8045  1.7758
   98SAPS   C27 9789   1.329   0.522   7.022  0.0558 -0.8794  0.3461
   98SAPS   H7R 9790   1.421   0.584   7.029 -1.6685  2.2764 -3.5284
   98SAPS   H7S 9791   1.347   0.413   7.032 -3.0326 -1.6386 -2.0201
   98SAPS   C28 9792   1.242   0.564   7.139 -1.0843 -0.7350  0.3193
   98SAPS   H8R 9793   1.135   0.539   7.125 -1.5262  0.9713  0.6240
   98SAPS   C29 9794   1.279   0.602   7.257 -0.0393  0.5248 -0.0906
   98SAPS   H9R 9795   1.198   0.639   7.320  0.6793  1.0086  0.5593
   98SAPS  C210 9796   1.418   0.620   7.313  0.2996  0.3611  0.6882
   98SAPS  H10R 9797   1.449   0.726   7.306 -1.9884  0.9142 -2.5062
   98SAPS  H10S 9798   1.495   0.569   7.251  0.4899  0.5415  0.7749
   98SAPS  C211 9799   1.415   0.560   7.451  0.6669  0.4606  0.5540
   98SAPS  H11R 9800   1.396   0.453   7.469 -0.3027  0.5184 -0.0923
   98SAPS  C212 9801   1.438   0.619   7.565  0.5641 -0.0413  0.1405
   98SAPS  H12R 9802   1.420   0.565   7.659 -2.4144  0.6664  0.0034
   98SAPS  C213 9803   1.476   0.759   7.590 -0.5914 -0.5092 -0.4724
   98SAPS  H13R 9804   1.391   0.825   7.619  0.9113  2.2658 -2.1130
   98SAPS  H13S 9805   1.509   0.811   7.497  0.7452  0.1579  0.3601
   98SAPS  C214 9806   1.592   0.757   7.690  0.3831  0.1446 -0.0349
   98SAPS  H14R 9807   1.689   0.719   7.652  1.0243  0.6353  1.0837
   98SAPS  C215 9808   1.590   0.795   7.818 -0.0607  0.7322  0.5688
   98SAPS  H15R 9809   1.682   0.768   7.872 -0.5360 -1.5901  0.2314
   98SAPS  C216 9810   1.474   0.852   7.904 -0.2540 -0.0461  0.2488
   98SAPS  H16R 9811   1.390   0.860   7.832  1.2731 -0.6672 -1.6307
   98SAPS  H16S 9812   1.499   0.954   7.939  0.7790  0.3955 -1.7284
   98SAPS  C217 9813   1.434   0.769   8.027  0.6973 -0.3959  0.4333
   98SAPS  H17R 9814   1.513   0.791   8.102  1.9574 -0.9311 -0.7248
   98SAPS  H17S 9815   1.444   0.664   7.992 -1.3431 -0.6833  0.6087
   98SAPS  C218 9816   1.293   0.790   8.066  0.5519  0.2046 -0.5881
   98SAPS  H18R 9817   1.226   0.791   7.977  0.1861 -0.8060 -0.3226
   98SAPS  H18S 9818   1.272   0.886   8.118 -1.0236 -2.1079  3.2090
   98SAPS  C219 9819   1.245   0.683   8.166 -0.2863  0.3354 -0.0105
   98SAPS  H19R 9820   1.256   0.578   8.131 -1.4973 -0.0402  0.7156
   98SAPS  H19S 9821   1.135   0.694   8.169 -0.0759  2.6559  0.0877
   98SAPS  C220 9822   1.292   0.715   8.309 -0.0612  0.0029  0.6444
   98SAPS  H20R 9823   1.281   0.822   8.334  0.3589 -0.1415  1.4632
   98SAPS  H20S 9824   1.399   0.686   8.320  0.1837  0.1687 -1.0470
   98SAPS  H20T 9825   1.225   0.649   8.367 -0.6683 -1.3344 -1.4956
   98SAPS   C33 9826   2.056   0.216   6.792 -0.2411  0.0209  0.3789
   98SAPS   H3X 9827   2.154   0.250   6.754 -0.4075  0.2003  0.1066
   98SAPS   H3Y 9828   2.078   0.137   6.866 -0.5597  0.9107  1.4322
   98SAPS   C34 9829   1.975   0.323   6.863 -0.4826 -0.3096  0.2267
   98SAPS   H4X 9830   1.963   0.416   6.804 -0.6937  0.5875  1.6388
   98SAPS   H4Y 9831   2.040   0.363   6.944  0.2048  0.4522 -0.6884
   98SAPS   C35 9832   1.836   0.264   6.912 -0.5267 -0.1998 -0.3488
   98SAPS   H5X 9833   1.851   0.157   6.940 -3.4426 -0.0820  1.8794
   98SAPS   H5Y 9834   1.763   0.271   6.829 -1.1930  1.3473  0.3552
   98SAPS   C36 9835   1.786   0.338   7.038  0.2594  0.2959 -0.2906
   98SAPS   H6X 9836   1.686   0.303   7.070 -0.4677  2.8496  0.3748
   98SAPS   H6Y 9837   1.767   0.448   7.033  0.1484  0.3138  0.5085
   98SAPS   C37 9838   1.866   0.297   7.160 -0.9206  0.3576  0.6777
   98SAPS   H7X 9839   1.948   0.372   7.171 -0.8726  0.3216  0.5563
   98SAPS   H7Y 9840   1.909   0.197   7.144  1.0836  0.9478  2.1610
   98SAPS   C38 9841   1.800   0.312   7.301  0.0728 -0.5460 -0.4031
   98SAPS   H8X 9842   1.759   0.213   7.332 -0.3962 -0.1244  0.3518
   98SAPS   H8Y 9843   1.714   0.382   7.293  0.9572  0.6133  0.2320
   98SAPS   C39 9844   1.889   0.348   7.413 -0.3964 -0.2972  0.1932
   98SAPS   H9X 9845   1.935   0.447   7.394  0.0488  0.1179  3.1988
   98SAPS   H9Y 9846   1.966   0.268   7.421 -0.0678 -0.4969 -3.8872
   98SAPS  C310 9847   1.810   0.368   7.546 -0.1868  0.2097 -0.4347
   98SAPS  H10X 9848   1.733   0.288   7.553  1.2618 -1.2914 -1.5213
   98SAPS  H10Y 9849   1.762   0.468   7.545 -0.3902  0.1048 -1.2195
   98SAPS  C311 9850   1.884   0.345   7.676 -0.4539 -0.0412 -0.3187
   98SAPS  H11X 9851   1.987   0.386   7.671 -0.8272  0.8238 -1.1679
   98SAPS  H11Y 9852   1.904   0.236   7.685  0.5259  0.1387 -0.2751
   98SAPS  C312 9853   1.813   0.388   7.802 -0.4070 -0.0612 -0.2424
   98SAPS  H12X 9854   1.831   0.497   7.816 -0.5124  0.0145 -0.7041
   98SAPS  H12Y 9855   1.864   0.324   7.878 -1.7767 -1.0065 -0.0988
   98SAPS  C313 9856   1.666   0.349   7.820  0.9502  0.1643 -0.1376
   98SAPS  H13X 9857   1.645   0.241   7.802 -0.3298  0.2893  0.5488
   98SAPS  H13Y 9858   1.605   0.409   7.749  0.5787  0.9310  0.8172
   98SAPS  C314 9859   1.613   0.383   7.960  0.6324 -0.1389  0.3325
   98SAPS  H14X 9860   1.502   0.380   7.956  0.6698  0.4177 -2.3103
   98SAPS  H14Y 9861   1.628   0.492   7.978 -0.5258 -0.2241  1.9161
   98SAPS  C315 9862   1.665   0.292   8.068 -0.3244  0.1337 -0.0573
   98SAPS  H15X 9863   1.609   0.321   8.160 -0.4472  0.4654 -0.2358
   98SAPS  H15Y 9864   1.771   0.299   8.100 -0.6846 -0.4030  1.2891
   98SAPS  C316 9865   1.617   0.149   8.043 -0.1753 -0.2716 -0.0370
   98SAPS  H16X 9866   1.678   0.100   7.964  0.6584 -0.8565  0.9646
   98SAPS  H16Y 9867   1.514   0.156   8.002  0.1158 -0.4062 -0.7962
   98SAPS  C317 9868   1.622   0.059   8.170 -0.6880 -0.1696 -0.4570
   98SAPS  H17X 9869   1.715   0.088   8.224 -0.8232  2.7605 -1.7145
   98SAPS  H17Y 9870   1.627  -0.046   8.136  3.5348  0.5131 -2.2545
   98SAPS  C318 9871   1.510   0.069   8.268 -0.1267 -0.8206  0.5717
   98SAPS  H18X 9872   1.496   0.178   8.282  0.4224 -0.7707  0.7500
   98SAPS  H18Y 9873   1.550   0.030   8.364 -0.4684 -0.3431  0.9118
   98SAPS  H18Z 9874   1.422   0.009   8.236  0.2612 -0.7361 -0.6792
   99SAPS     N 9875   0.636   5.020   6.217 -0.3116  0.1359  0.2250
   99SAPS   HN1 9876   0.671   5.054   6.309 -1.8161  1.0668  0.4619
   99SAPS   HN2 9877   0.583   5.100   6.178 -0.0126 -0.4044 -1.3081
   99SAPS   HN3 9878   0.576   4.937   6.236 -3.4051  2.1732 -0.4163
   99SAPS   C12 9879   0.747   4.971   6.132  0.0053 -0.6658  0.6381
   99SAPS  H12A 9880   0.704   4.902   6.061  1.8871 -0.3266 -0.8767
   99SAPS   C13 9881   0.801   5.087   6.043 -0.4308 -0.5445 -0.3199
   99SAPS  O13A 9882   0.783   5.203   6.074  0.4480 -0.2985 -0.0235
   99SAPS  O13B 9883   0.895   5.055   5.963 -0.2061 -0.2776 -0.1903
   99SAPS   C11 9884   0.865   4.916   6.218 -0.0522 -0.5515 -0.6733
   99SAPS  H11A 9885   0.923   4.996   6.269 -0.0523 -0.1958 -1.2213
   99SAPS  H11B 9886   0.941   4.875   6.148  0.7739 -2.3941  1.2622
   99SAPS     P 9887   0.865   4.695   6.368  0.0124  0.1911  0.2187
   99SAPS   O13 9888   0.755   4.594   6.354 -0.1356 -0.2531 -0.3258
   99SAPS   O14 9889   0.986   4.650   6.307 -0.4170 -0.6508 -0.2156
   99SAPS   O12 9890   0.815   4.833   6.319 -0.6192 -0.4179  0.4992
   99SAPS   O11 9891   0.889   4.718   6.522  0.4253  0.0983  0.7406
   99SAPS    C1 9892   0.785   4.788   6.593 -0.5447 -0.4905 -0.3314
   99SAPS    HA 9893   0.804   4.898   6.593  1.2158 -0.7387  2.1116
   99SAPS    HB 9894   0.683   4.767   6.554 -0.5992  1.2967 -1.1984
   99SAPS    C2 9895   0.801   4.754   6.746  0.4751 -0.5416  0.0033
   99SAPS    HS 9896   0.823   4.647   6.764 -0.3093 -0.4759  1.4496
   99SAPS   O21 9897   0.679   4.775   6.820  0.5792 -0.0303 -0.6346
   99SAPS   C21 9898   0.574   4.700   6.795 -0.0131  0.3709 -0.3947
   99SAPS   O22 9899   0.571   4.599   6.732  0.1230 -0.1080 -0.1384
   99SAPS   C22 9900   0.454   4.747   6.887 -0.0997 -0.2546 -0.2026
   99SAPS   H2R 9901   0.412   4.646   6.909 -0.1988 -0.3247 -0.7195
   99SAPS   H2S 9902   0.486   4.781   6.988 -1.4261  1.8198 -0.4539
   99SAPS    C3 9903   0.908   4.842   6.820 -0.1232  0.3579  0.2869
   99SAPS    HX 9904   0.907   4.943   6.773 -0.3884 -0.7298 -2.1477
   99SAPS    HY 9905   1.004   4.792   6.798 -0.6578 -0.0726 -1.1642
   99SAPS   O31 9906   0.880   4.858   6.964 -0.1803 -0.0674 -0.0788
   99SAPS   C31 9907   0.978   4.905   7.038  0.4880  0.3320  1.0262
   99SAPS   O32 9908   1.079   4.956   6.996  0.0763  0.0367 -0.3110
   99SAPS   C32 9909   0.933   4.889   7.184  0.5376 -0.1069 -0.0788
   99SAPS   H2X 9910   0.875   4.796   7.204 -0.5978  0.7471  0.6021
   99SAPS   H2Y 9911   0.866   4.975   7.204 -0.1578 -0.6465 -0.0711
   99SAPS   C23 9912   0.354   4.848   6.832 -0.1701  0.7741  0.1450
   99SAPS   H3R 9913   0.313   4.799   6.740  2.7611  1.1219 -1.4175
   99SAPS   H3S 9914   0.417   4.931   6.794 -0.0345 -0.6735 -3.0178
   99SAPS   C24 9915   0.254   4.898   6.933 -0.1730 -0.1873 -0.1577
   99SAPS   H4R 9916   0.188   4.977   6.892  0.4769 -0.0199 -0.9034
   99SAPS   H4S 9917   0.308   4.929   7.025  1.3732 -0.7330 -0.8599
   99SAPS   C25 9918   0.174   4.781   6.966  0.0922  0.3808 -0.7526
   99SAPS   H5R 9919   0.137   4.728   6.878 -0.9466 -2.0311  1.0746
   99SAPS   C26 9920   0.125   4.735   7.080  0.0774  0.8917  0.1505
   99SAPS   H6R 9921   0.081   4.634   7.073 -0.3525  0.8525  3.1085
   99SAPS   C27 9922   0.127   4.798   7.218  0.7321 -0.3631  0.0409
   99SAPS   H7R 9923   0.229   4.796   7.262  0.5926 -1.2586  0.3270
   99SAPS   H7S 9924   0.079   4.725   7.286  1.3103 -0.1980  0.6345
   99SAPS   C28 9925   0.062   4.934   7.235 -0.4987 -0.3636 -0.1232
   99SAPS   H8R 9926  -0.006   4.963   7.153 -0.2251  0.6592  0.0069
   99SAPS   C29 9927   0.069   5.014   7.341 -0.2030  0.0070 -0.6199
   99SAPS   H9R 9928   0.016   5.111   7.340 -1.7216 -0.8137 -1.8360
   99SAPS  C210 9929   0.155   4.992   7.471  0.3884  0.1885  2.0940
   99SAPS  H10R 9930   0.136   5.080   7.537  0.1724  1.1503  0.7619
   99SAPS  H10S 9931   0.264   4.999   7.450 -0.1989 -1.4535 -1.9001
   99SAPS  C211 9932   0.137   4.877   7.561  0.5336  0.1949 -0.3873
   99SAPS  H11R 9933   0.085   4.787   7.525  2.3891 -0.9825 -0.2089
   99SAPS  C212 9934   0.166   4.878   7.691  0.3170  0.4180  0.0439
   99SAPS  H12R 9935   0.140   4.790   7.751 -0.7637  0.9132  0.3143
   99SAPS  C213 9936   0.223   4.986   7.777  0.2387 -0.5285  0.0449
   99SAPS  H13R 9937   0.254   5.071   7.713  1.6048 -0.4138  0.8249
   99SAPS  H13S 9938   0.312   4.942   7.828  1.6793  1.7126 -0.4826
   99SAPS  C214 9939   0.122   5.043   7.872 -0.2765  0.0262 -0.8091
   99SAPS  H14R 9940   0.042   5.096   7.819  1.2357  0.6858 -2.4680
   99SAPS  C215 9941   0.107   5.035   8.009  0.2166 -0.0163 -0.6733
   99SAPS  H15R 9942   0.022   5.091   8.050  0.3235 -1.4160  1.5508
   99SAPS  C216 9943   0.196   4.967   8.108  0.2840 -0.5813  0.5172
   99SAPS  H16R 9944   0.250   5.035   8.178 -2.0232 -0.3546  2.1331
   99SAPS  H16S 9945   0.275   4.905   8.061  0.1544 -0.5511  0.2653
   99SAPS  C217 9946   0.108   4.880   8.200  0.0693 -0.5843 -0.2558
   99SAPS  H17R 9947   0.164   4.792   8.239 -0.4355 -1.5910 -1.7638
   99SAPS  H17S 9948   0.020   4.843   8.142 -0.8429  0.4631  0.4310
   99SAPS  C218 9949   0.053   4.959   8.319 -0.4812 -0.0233 -0.1241
   99SAPS  H18R 9950  -0.028   5.030   8.289  0.5106  0.6883 -1.1444
   99SAPS  H18S 9951   0.133   5.016   8.370 -0.8768  0.7554 -0.3638
   99SAPS  C219 9952  -0.006   4.863   8.430 -0.2027 -0.6035 -0.1610
   99SAPS  H19R 9953   0.067   4.780   8.432 -1.5863 -1.9822 -3.3429
   99SAPS  H19S 9954  -0.100   4.817   8.392 -0.9056  0.6989 -0.0639
   99SAPS  C220 9955  -0.029   4.919   8.566 -0.3617  0.0097  0.1338
   99SAPS  H20R 9956  -0.085   4.853   8.637 -1.6876  0.7548 -0.2040
   99SAPS  H20S 9957  -0.082   5.015   8.548  2.2106  1.6399  1.0394
   99SAPS  H20T 9958   0.064   4.948   8.620 -0.6077  0.1081  0.5088
   99SAPS   C33 9959   1.047   4.900   7.284  0.7770  0.5690 -0.0879
   99SAPS   H3X 9960   1.112   4.988   7.262  1.4703  0.0134 -0.2539
   99SAPS   H3Y 9961   1.114   4.812   7.291  0.1961  0.3249  3.0398
   99SAPS   C34 9962   0.995   4.912   7.427  0.3718  0.3458 -0.0238
   99SAPS   H4X 9963   0.914   4.837   7.437 -0.3549  1.1301  0.0680
   99SAPS   H4Y 9964   0.947   5.013   7.435 -1.8943 -0.4977 -2.2132
   99SAPS   C35 9965   1.094   4.905   7.542 -0.1001  0.2660 -0.1242
   99SAPS   H5X 9966   1.171   4.983   7.528  1.6678 -1.7159 -1.7691
   99SAPS   H5Y 9967   1.161   4.817   7.544  0.9883  1.0748 -0.7953
   99SAPS   C36 9968   1.032   4.940   7.678 -0.3182  0.0427  0.0836
   99SAPS   H6X 9969   0.967   4.856   7.713  1.2224 -0.6450  1.3883
   99SAPS   H6Y 9970   0.974   5.034   7.670 -3.0269 -1.5021  0.7593
   99SAPS   C37 9971   1.140   4.960   7.795 -0.4794  0.3943 -0.0626
   99SAPS   H7X 9972   1.220   5.035   7.776 -0.4006 -0.1961 -2.1977
   99SAPS   H7Y 9973   1.195   4.863   7.793  0.5755  0.9989 -0.8213
   99SAPS   C38 9974   1.075   4.998   7.928 -0.4905  0.2927 -0.1731
   99SAPS   H8X 9975   1.158   4.979   7.999 -1.3822 -1.6038  0.4100
   99SAPS   H8Y 9976   0.988   4.933   7.949 -0.9742  0.3288 -1.9406
   99SAPS   C39 9977   1.040   5.149   7.937 -0.2780 -0.0802  0.3934
   99SAPS   H9X 9978   0.965   5.155   8.019 -0.9551 -3.1246  0.0728
   99SAPS   H9Y 9979   0.997   5.174   7.838 -0.8955 -0.3996  0.5796
   99SAPS  C310 9980   1.152   5.251   7.969 -0.0911 -0.4438  0.2398
   99SAPS  H10X 9981   1.106   5.352   7.960  1.1944 -0.0235 -2.2493
   99SAPS  H10Y 9982   1.217   5.253   7.878 -1.3564  1.7103 -0.6524
   99SAPS  C311 9983   1.228   5.218   8.094  0.0481  0.1764 -0.4434
   99SAPS  H11X 9984   1.311   5.286   8.120 -0.0950 -0.4528  1.7181
   99SAPS  H11Y 9985   1.272   5.116   8.087 -1.1436 -0.4118  0.4017
   99SAPS  C312 9986   1.146   5.228   8.225  0.0688  0.2610 -0.2290
   99SAPS  H12X 9987   1.210   5.181   8.303  0.8934 -0.1814 -1.1637
   99SAPS  H12Y 9988   1.065   5.153   8.215  1.1313 -0.8222 -0.8916
   99SAPS  C313 9989   1.107   5.371   8.268  0.4915 -1.0011  0.6411
   99SAPS  H13X 9990   1.056   5.418   8.181  2.8333 -0.9182 -0.7062
   99SAPS  H13Y 9991   1.196   5.433   8.288 -0.7185  0.0287  3.0053
   99SAPS  C314 9992   1.006   5.381   8.386  0.4902 -0.3744  0.0791
   99SAPS  H14X 9993   1.054   5.352   8.481 -1.5765 -2.6616  0.4682
   99SAPS  H14Y 9994   0.929   5.301   8.378 -3.5547  3.3074  0.2366
   99SAPS  C315 9995   0.934   5.514   8.395  0.5070  0.3283  0.1621
   99SAPS  H15X 9996   0.850   5.506   8.467  1.0813 -1.0150  0.6937
   99SAPS  H15Y 9997   0.902   5.538   8.291 -0.5755  1.4669  0.7564
   99SAPS  C316 9998   1.018   5.631   8.449  0.2932  0.1542  0.1940
   99SAPS  H16X 9999   0.948   5.711   8.482 -0.0805 -0.3754  0.6821
   99SAPS  H16Y10000   1.088   5.659   8.368 -1.0801  0.5441 -0.8695
   99SAPS  C31710001   1.107   5.609   8.571 -0.9339  1.0288 -0.0667
   99SAPS  H17X10002   1.175   5.695   8.585  0.0014  0.3941 -0.6174
   99SAPS  H17Y10003   1.181   5.530   8.543 -1.1799  1.0145 -0.6681
   99SAPS  C31810004   1.030   5.569   8.693 -0.1636 -0.4152 -0.7542
   99SAPS  H18X10005   1.102   5.551   8.776 -0.3366 -2.5451 -1.0424
   99SAPS  H18Y10006   0.958   5.487   8.677  2.3181 -2.6859 -0.6751
   99SAPS  H18Z10007   0.973   5.656   8.733  0.9210 -0.4928  1.0833
  100SAPS     N10008   3.735   0.140   6.029  0.5136 -0.5292  0.3842
  100SAPS   HN110009   3.682   0.202   5.965  0.7388  1.3760  1.9743
  100SAPS   HN210010   3.730   0.176   6.127 -2.6185 -2.3317  0.9501
  100SAPS   HN310011   3.832   0.143   5.992 -0.6089 -0.8949 -2.7195
  100SAPS   C1210012   3.687   0.003   6.031  0.0012 -0.2652 -0.0668
  100SAPS  H12A10013   3.581   0.015   6.046  0.2691  0.6912  1.1506
  100SAPS   C1310014   3.708  -0.068   5.888 -0.3969  0.4051 -0.8174
  100SAPS  O13A10015   3.771  -0.007   5.796 -0.5530 -0.0199 -0.2735
  100SAPS  O13B10016   3.662  -0.186   5.882  0.8614  0.6384 -0.6829
  100SAPS   C1110017   3.752  -0.083   6.146 -0.3253 -0.2058 -0.5309
  100SAPS  H11A10018   3.766  -0.185   6.106 -1.9318  0.7155 -3.5936
  100SAPS  H11B10019   3.673  -0.092   6.223 -1.3109 -0.3573 -1.5476
  100SAPS     P10020   3.975  -0.116   6.287  0.5189 -0.5565 -0.4383
  100SAPS   O1310021   3.950  -0.256   6.239 -0.7579 -0.5050 -0.4551
  100SAPS   O1410022   4.110  -0.057   6.286  0.1093 -0.0631  0.7332
  100SAPS   O1210023   3.875  -0.028   6.196 -0.4841 -0.2629 -0.7057
  100SAPS   O1110024   3.922  -0.096   6.432 -0.4716  0.1082 -0.0601
  100SAPS    C110025   3.976  -0.170   6.542 -0.1839  0.2983  0.3801
  100SAPS    HA10026   4.054  -0.247   6.523 -2.1906 -1.5747 -0.5965
  100SAPS    HB10027   4.017  -0.095   6.613  0.6586  1.7495 -1.5722
  100SAPS    C210028   3.865  -0.235   6.625  0.5512 -0.2433  0.5090
  100SAPS    HS10029   3.810  -0.300   6.553  1.7171 -0.1420 -0.4862
  100SAPS   O2110030   3.779  -0.131   6.669  0.1835 -0.9118 -0.1104
  100SAPS   C2110031   3.664  -0.176   6.722 -0.4366 -0.5793  0.1338
  100SAPS   O2210032   3.621  -0.291   6.711  0.4403  0.2830  0.5455
  100SAPS   C2210033   3.604  -0.077   6.825 -0.4208 -0.0933  0.5135
  100SAPS   H2R10034   3.565   0.009   6.766 -1.6153  0.0363  1.4682
  100SAPS   H2S10035   3.525  -0.140   6.872  1.2874 -3.2070 -0.6429
  100SAPS    C310036   3.923  -0.331   6.734  0.1345 -0.0364 -0.4027
  100SAPS    HX10037   3.983  -0.411   6.686  0.7550 -0.1729  0.5840
  100SAPS    HY10038   3.838  -0.386   6.780  0.7557 -0.8797 -0.2482
  100SAPS   O3110039   4.005  -0.263   6.834  0.0881  0.0501  0.3681
  100SAPS   C3110040   4.135  -0.283   6.815  0.1477 -0.3787  0.2464
  100SAPS   O3210041   4.192  -0.331   6.716 -0.0428  0.6153  0.2558
  100SAPS   C3210042   4.209  -0.217   6.930 -0.1913  0.4962  0.8862
  100SAPS   H2X10043   4.164  -0.254   7.025 -1.4440 -2.4524 -0.7806
  100SAPS   H2Y10044   4.197  -0.108   6.912  0.5558  0.5449  0.6870
  100SAPS   C2310045   3.700  -0.013   6.932  0.2850  0.2210  0.6060
  100SAPS   H3R10046   3.644   0.071   6.979  0.1179 -0.9635  2.6074
  100SAPS   H3S10047   3.799   0.020   6.894 -0.3225  0.8391 -0.4607
  100SAPS   C2410048   3.730  -0.116   7.046  0.5181  0.6068 -0.2798
  100SAPS   H4R10049   3.778  -0.202   6.994  0.0517 -0.7948  1.5396
  100SAPS   H4S10050   3.638  -0.162   7.089  1.4952  0.4694  1.7321
  100SAPS   C2510051   3.813  -0.049   7.153  0.2086 -0.3405 -1.3531
  100SAPS   H5R10052   3.917  -0.083   7.161 -0.3188 -1.6950 -0.1531
  100SAPS   C2610053   3.758   0.026   7.248  0.5913 -0.3279  0.3334
  100SAPS   H6R10054   3.827   0.069   7.322  1.9184  2.8510 -2.5973
  100SAPS   C2710055   3.617   0.057   7.297  0.2440  0.1700  0.9397
  100SAPS   H7R10056   3.556   0.118   7.227  0.8217  3.0013  2.8067
  100SAPS   H7S10057   3.631   0.129   7.381  0.7368 -0.5076  1.4353
  100SAPS   C2810058   3.548  -0.063   7.357  0.2723  0.0962 -0.1309
  100SAPS   H8R10059   3.491  -0.122   7.284  1.2776  1.7141 -2.2741
  100SAPS   C2910060   3.547  -0.094   7.487  0.7469  0.0815  0.8140
  100SAPS   H9R10061   3.481  -0.180   7.507 -0.6456  0.5409 -1.5426
  100SAPS  C21010062   3.613  -0.022   7.604 -0.3734  0.0759 -0.2564
  100SAPS  H10R10063   3.701   0.037   7.571 -0.3909  1.0054  1.2894
  100SAPS  H10S10064   3.646  -0.107   7.666 -1.1402 -0.7684 -0.9983
  100SAPS  C21110065   3.536   0.078   7.692  0.2800  0.7131 -0.1017
  100SAPS  H11R10066   3.450   0.123   7.640  0.8526 -1.3544 -2.9539
  100SAPS  C21210067   3.576   0.115   7.815 -0.4276  0.3485 -0.1455
  100SAPS  H12R10068   3.515   0.178   7.882 -2.4552  0.4054 -1.9613
  100SAPS  C21310069   3.683   0.047   7.901 -0.4044  0.9066  0.1563
  100SAPS  H13R10070   3.702   0.113   7.989 -0.7380  3.4556 -1.6161
  100SAPS  H13S10071   3.782   0.048   7.851 -0.3548 -0.2417  0.2279
  100SAPS  C21410072   3.649  -0.094   7.947 -0.2660 -0.1727  0.4412
  100SAPS  H14R10073   3.597  -0.153   7.870  1.9737  0.3877 -1.5693
  100SAPS  C21510074   3.661  -0.148   8.072  0.4665  0.0697  0.3845
  100SAPS  H15R10075   3.608  -0.240   8.101 -0.7315  0.4568 -0.5545
  100SAPS  C21610076   3.720  -0.084   8.197  0.4403  0.2054 -0.5888
  100SAPS  H16R10077   3.788  -0.003   8.166  0.0327  1.2183  1.1030
  100SAPS  H16S10078   3.787  -0.157   8.248  0.8089  1.7355  1.1542
  100SAPS  C21710079   3.598  -0.032   8.282  0.4445 -0.0317 -0.1174
  100SAPS  H17R10080   3.533   0.028   8.215  0.0853 -0.3874 -0.0930
  100SAPS  H17S10081   3.635   0.043   8.355  0.4835  1.0481 -1.2374
  100SAPS  C21810082   3.517  -0.150   8.346  0.0177 -0.3131  0.1690
  100SAPS  H18R10083   3.514  -0.232   8.271 -1.9597 -0.0638 -0.0321
  100SAPS  H18S10084   3.411  -0.121   8.360 -0.3283  0.6666 -3.8900
  100SAPS  C21910085   3.569  -0.192   8.482 -0.3923  0.0981  0.7239
  100SAPS  H19R10086   3.559  -0.106   8.551 -1.2981  0.4296  0.1782
  100SAPS  H19S10087   3.679  -0.208   8.476 -0.6753 -1.0164 -2.1988
  100SAPS  C22010088   3.489  -0.315   8.538 -0.5087  0.5075  0.2579
  100SAPS  H20R10089   3.492  -0.401   8.468 -0.3166  1.9641 -1.5624
  100SAPS  H20S10090   3.383  -0.289   8.561  0.2587  2.1328  2.0636
  100SAPS  H20T10091   3.537  -0.354   8.630  1.5388 -0.9644 -1.3631
  100SAPS   C3310092   4.365  -0.239   6.933  0.3325  0.6163  0.3320
  100SAPS   H3X10093   4.402  -0.199   6.837 -2.0100  2.8238  0.2841
  100SAPS   H3Y10094   4.391  -0.346   6.944  1.3945  0.7907 -0.4616
  100SAPS   C3410095   4.447  -0.163   7.041  0.0244  0.0557  0.5295
  100SAPS   H4X10096   4.398  -0.153   7.140  0.9972  0.6247  0.9574
  100SAPS   H4Y10097   4.437  -0.055   7.015 -0.9457  0.1879  1.4347
  100SAPS   C3510098   4.594  -0.201   7.031 -0.1205 -0.1104 -0.4313
  100SAPS   H5X10099   4.619  -0.197   6.923 -0.7189 -1.5702 -0.6414
  100SAPS   H5Y10100   4.608  -0.306   7.066  1.8130  0.1487 -0.3271
  100SAPS   C3610101   4.693  -0.117   7.113 -0.3384 -0.1041 -0.8985
  100SAPS   H6X10102   4.696  -0.016   7.067  1.2917  0.5374  0.5624
  100SAPS   H6Y10103   4.795  -0.157   7.092 -0.2191 -0.2189 -0.1236
  100SAPS   C3710104   4.651  -0.105   7.262  0.2423 -0.0105  0.1480
  100SAPS   H7X10105   4.658  -0.210   7.298  1.6724  0.1496  0.3608
  100SAPS   H7Y10106   4.545  -0.073   7.274 -0.2773 -1.7538  0.3200
  100SAPS   C3810107   4.747  -0.008   7.339  0.1002  0.0236 -0.7224
  100SAPS   H8X10108   4.753   0.094   7.296 -0.0547  0.9776  1.4407
  100SAPS   H8Y10109   4.850  -0.047   7.339 -1.0647 -3.1974 -0.5016
  100SAPS   C3910110   4.700   0.031   7.479  0.5282 -0.6668  0.5196
  100SAPS   H9X10111   4.653  -0.059   7.524 -1.3488 -0.3100 -0.6421
  100SAPS   H9Y10112   4.614   0.100   7.466  0.2565 -1.2599 -0.9480
  100SAPS  C31010113   4.807   0.094   7.565 -0.4232 -0.1740 -0.1776
  100SAPS  H10X10114   4.862   0.165   7.500  2.3319 -0.0025  2.1816
  100SAPS  H10Y10115   4.874   0.010   7.595  1.8907  2.3608  2.0771
  100SAPS  C31110116   4.755   0.167   7.689 -0.2601  0.3974  0.7965
  100SAPS  H11X10117   4.655   0.124   7.713 -1.2390  1.4337 -1.2071
  100SAPS  H11Y10118   4.732   0.274   7.668 -0.5857  0.6357  2.3212
  100SAPS  C31210119   4.847   0.168   7.814 -0.8220 -0.0558  0.2783
  100SAPS  H12X10120   4.923   0.247   7.800 -0.0830 -0.4234  2.0286
  100SAPS  H12Y10121   4.903   0.072   7.821 -2.8489 -1.2894  0.0835
  100SAPS  C31310122   4.767   0.205   7.932 -0.1343  0.1957 -0.1213
  100SAPS  H13X10123   4.659   0.179   7.925 -0.5509  1.6068  0.7100
  100SAPS  H13Y10124   4.765   0.317   7.929  0.2362  0.2249  0.6541
  100SAPS  C31410125   4.835   0.149   8.054  0.5043 -0.1037 -0.9879
  100SAPS  H14X10126   4.945   0.135   8.052  0.4084 -1.1122  0.0114
  100SAPS  H14Y10127   4.809   0.041   8.064  1.8685 -0.3791 -0.4058
  100SAPS  C31510128   4.799   0.222   8.185 -0.3876 -0.2732 -0.3604
  100SAPS  H15X10129   4.853   0.319   8.192  0.7489 -0.9125 -0.0981
  100SAPS  H15Y10130   4.846   0.150   8.255  0.0652 -0.6547 -1.0504
  100SAPS  C31610131   4.646   0.237   8.222 -0.4515 -0.6057  0.5228
  100SAPS  H16X10132   4.604   0.134   8.210 -0.9453 -0.4262  0.7077
  100SAPS  H16Y10133   4.601   0.299   8.143  1.6000 -0.0791 -0.2610
  100SAPS  C31710134   4.619   0.278   8.371  0.1657  0.3434  0.0031
  100SAPS  H17X10135   4.529   0.343   8.378  1.2367  1.9702 -1.1120
  100SAPS  H17Y10136   4.707   0.336   8.406  0.3517  0.0220  0.0674
  100SAPS  C31810137   4.592   0.149   8.453  0.3080  0.3622 -0.0544
  100SAPS  H18X10138   4.533   0.071   8.399 -0.4802  1.4756 -0.8383
  100SAPS  H18Y10139   4.544   0.168   8.551  3.1693 -0.2266  1.4997
  100SAPS  H18Z10140   4.694   0.110   8.475  0.2301  0.7609  1.0086
  101OSM      N10141   2.597   0.420  11.217  1.0663 -0.1187  0.2567
  101OSM    C1510142   2.476   0.336  11.237  0.0088 -0.6330 -0.3631
  101OSM   H15A10143   2.490   0.284  11.330  0.5463 -2.4116 -1.4059
  101OSM   H15B10144   2.468   0.253  11.168  3.3528 -1.7555  0.5125
  101OSM   H15C10145   2.386   0.394  11.243 -0.5968 -1.7451  1.4044
  101OSM    C1410146   2.592   0.519  11.329 -0.1606 -0.0003 -0.5267
  101OSM   H14A10147   2.546   0.474  11.416 -0.3211 -1.0305 -1.1374
  101OSM   H14B10148   2.534   0.604  11.296 -0.9771 -0.7662 -1.1029
  101OSM   H14C10149   2.689   0.557  11.354 -0.9158  2.0010 -0.5265
  101OSM    C1310150   2.714   0.327  11.233  0.0106 -0.3974 -0.0801
  101OSM   H13A10151   2.807   0.382  11.230 -0.3103  0.2662  1.5927
  101OSM   H13B10152   2.709   0.265  11.145  0.0270 -1.0393  0.3706
  101OSM   H13C10153   2.722   0.258  11.316  0.0220 -0.3003 -0.0009
  101OSM    C1210154   2.603   0.488  11.079  0.0045 -0.4540 -0.4641
  101OSM   H12A10155   2.708   0.497  11.059  0.0549 -0.0576 -0.0127
  101OSM   H12B10156   2.547   0.581  11.082 -1.5390 -1.4203  1.5463
  101OSM    C1110157   2.554   0.395  10.964  0.4046 -0.2622 -0.1324
  101OSM   H11A10158   2.544   0.455  10.871  0.0864  0.9808  0.6866
  101OSM   H11B10159   2.446   0.378  10.986  0.2386 -0.4442 -1.0775
  101OSM      P10160   2.746   0.246  10.870  0.3448 -0.1702 -0.0093
  101OSM    O1310161   2.858   0.289  10.955  0.0304  0.1674 -0.0179
  101OSM    O1410162   2.739   0.107  10.817  0.2596 -0.4436 -0.2126
  101OSM    O1110163   2.724   0.343  10.744 -0.2590  0.1714 -0.6104
  101OSM    O1210164   2.620   0.267  10.953  0.0594 -0.1958  0.5388
  101OSM    C1S10165   2.647   0.310  10.626  0.0954 -0.3547  0.9476
  101OSM    H1S10166   2.555   0.372  10.618  0.4134  0.2568  1.9728
  101OSM    H1T10167   2.619   0.204  10.609 -0.4190 -0.1759  0.6462
  101OSM     NF10168   2.635   0.340  10.386  0.4629  0.5527  0.4842
  101OSM    HNF10169   2.609   0.257  10.339  1.4736  0.2047  0.5306
  101OSM    C2S10170   2.729   0.341  10.494 -0.0985  0.4475  0.3491
  101OSM    H2S10171   2.761   0.447  10.511  0.0386  0.7424 -1.6826
  101OSM    C3S10172   2.858   0.253  10.478 -0.0560  0.0860  0.5566
  101OSM    H3S10173   2.829   0.146  10.488  0.0326 -0.0919 -1.0185
  101OSM     O310174   2.959   0.259  10.574  0.3965  0.2713  0.2206
  101OSM    HO310175   2.926   0.323  10.638  0.9524 -1.6643  2.5444
  101OSM    C4S10176   2.919   0.292  10.349 -0.0284  0.3608 -0.2653
  101OSM    H4S10177   2.943   0.399  10.337 -1.1114  0.8290  1.5160
  101OSM    C5S10178   2.921   0.214  10.245  0.2264  0.0679 -0.4222
  101OSM    H5S10179   2.895   0.108  10.260 -0.7007  0.5021  1.1410
  101OSM    C6S10180   2.964   0.249  10.107 -0.0878  0.4311 -0.2536
  101OSM    H6S10181   2.987   0.358  10.100  1.4555  0.0769 -0.7920
  101OSM    H6T10182   2.882   0.219  10.039 -0.0300  1.1711 -0.6545
  101OSM    C7S10183   3.091   0.172  10.059 -0.3377  0.0386  0.0479
  101OSM    H7S10184   3.073   0.064  10.076 -2.5025  0.5974  1.5677
  101OSM    H7T10185   3.178   0.185  10.126 -0.0382 -1.0313 -0.1138
  101OSM    C8S10186   3.121   0.182   9.909  0.1340  0.5837  0.8731
  101OSM    H8S10187   3.156   0.285   9.885 -3.4953  1.6127 -0.2157
  101OSM    H8T10188   3.021   0.180   9.861  0.6262 -0.8296 -0.1236
  101OSM    C9S10189   3.215   0.079   9.847  0.1622 -0.0842 -0.5987
  101OSM    H9S10190   3.203  -0.018   9.901 -1.0899  0.3123 -0.1461
  101OSM    H9T10191   3.320   0.107   9.869 -0.3774  0.3067  1.6116
  101OSM   C10S10192   3.183   0.055   9.697 -0.0804  0.1645 -0.5986
  101OSM   H10S10193   3.092  -0.008   9.689 -0.2741  0.1094  1.6951
  101OSM   H10T10194   3.255  -0.017   9.652 -0.2904 -1.1743  1.1638
  101OSM   C11S10195   3.162   0.184   9.612 -0.1282 -0.1612  0.0903
  101OSM   H11S10196   3.262   0.230   9.621  1.1503 -2.8938  0.3843
  101OSM   H11T10197   3.080   0.244   9.656 -0.6740  1.2026 -2.6730
  101OSM   C12S10198   3.121   0.151   9.470  0.4783 -0.0687  0.5980
  101OSM   H12S10199   3.010   0.163   9.470  0.5889  1.1709 -1.1412
  101OSM   H12T10200   3.141   0.044   9.445  1.4920  0.8089 -2.6855
  101OSM   C13S10201   3.189   0.230   9.359  0.1337 -0.7231 -0.2450
  101OSM   H13S10202   3.298   0.207   9.357 -0.2325 -2.5613  0.7198
  101OSM   H13T10203   3.177   0.339   9.379 -0.8129 -0.2058 -3.3297
  101OSM   C14S10204   3.131   0.180   9.227  0.0287 -0.1863 -0.4016
  101OSM   H14S10205   3.115   0.070   9.226  0.8894 -0.3309  0.3962
  101OSM   H14T10206   3.211   0.199   9.151  0.6575 -0.6272  0.1447
  101OSM   C15S10207   3.019   0.275   9.182 -0.2987 -1.1445  0.2692
  101OSM   H15S10208   3.039   0.377   9.222 -0.3516 -1.4237  1.0248
  101OSM   H15T10209   2.922   0.240   9.223  1.1013 -0.9594  3.9230
  101OSM   C16S10210   3.008   0.278   9.024  0.4351  0.4354 -0.0839
  101OSM   H16S10211   3.000   0.174   8.987  0.1945  1.2211 -2.3409
  101OSM   H16T10212   3.103   0.327   8.993  1.8441 -1.9250  0.3606
  101OSM   C17S10213   2.891   0.369   8.983  0.4086 -0.0041 -0.5135
  101OSM   H17S10214   2.906   0.384   8.874  3.1111 -0.3971 -0.2316
  101OSM   H17T10215   2.904   0.461   9.043  0.2323  1.7223 -3.0226
  101OSM   C18S10216   2.753   0.307   9.013  0.4400  0.0772  0.3506
  101OSM   H18S10217   2.746   0.198   8.995 -0.4962  0.1164  0.4036
  101OSM   H18T10218   2.676   0.354   8.947 -1.2963 -2.2444  0.6651
  101OSM   H18U10219   2.722   0.306   9.120  0.0649 -0.0380  0.2424
  101OSM    C1F10220   2.547   0.435  10.371 -0.3524 -0.0415  0.4681
  101OSM     OF10221   2.569   0.534  10.439  0.0690 -0.0557  0.1337
  101OSM    C2F10222   2.426   0.410  10.289  0.1653 -0.0913  0.1130
  101OSM    H2F10223   2.339   0.384  10.354 -0.7196  0.6587 -0.7572
  101OSM    H2G10224   2.462   0.327  10.224  1.5519 -0.2389  1.0436
  101OSM    C3F10225   2.382   0.536  10.210  0.1132 -0.3677  0.4538
  101OSM    H3F10226   2.473   0.587  10.173  0.5671 -2.4820 -1.4471
  101OSM    H3G10227   2.313   0.590  10.280  0.0737 -1.7286  1.4924
  101OSM    C4F10228   2.299   0.501  10.084 -0.2195 -0.2968 -0.5140
  101OSM    H4F10229   2.252   0.592  10.041  0.1388 -0.9404 -2.3378
  101OSM    H4G10230   2.209   0.442  10.111 -0.2013  0.5610  1.4988
  101OSM    C5F10231   2.380   0.431   9.976  0.0415  0.3486  0.3385
  101OSM    H5F10232   2.441   0.340   9.996 -0.7375  0.3594  2.9832
  101OSM    H5G10233   2.462   0.497   9.939  1.7824 -2.4697 -0.9975
  101OSM    C6F10234   2.293   0.413   9.845 -0.1484 -0.0846 -0.1138
  101OSM    H6F10235   2.243   0.510   9.821  1.4472  0.5375 -1.0028
  101OSM    H6G10236   2.221   0.329   9.851  0.3628 -0.5836 -1.0591
  101OSM    C7F10237   2.379   0.397   9.724 -0.3610  0.5763  0.4811
  101OSM    H7F10238   2.461   0.326   9.749  0.7196  0.9459 -1.8539
  101OSM    H7G10239   2.442   0.480   9.686  1.2305 -0.7835  0.0550
  101OSM    C8F10240   2.298   0.336   9.601 -0.3757  0.5843  0.1541
  101OSM    H8F10241   2.256   0.245   9.649  2.2542 -0.6457  0.2062
  101OSM    H8G10242   2.362   0.304   9.517 -1.6686  0.0142 -0.6370
  101OSM    C9F10243   2.193   0.436   9.556  0.1960 -0.5088 -0.1749
  101OSM    H9F10244   2.233   0.538   9.546  1.0623 -0.6076  1.9316
  101OSM   C10F10245   2.061   0.424   9.545  0.6899 -0.2186 -0.0789
  101OSM   H10F10246   2.006   0.513   9.511  0.5816 -1.0359 -2.1180
  101OSM   C11F10247   1.975   0.301   9.557 -0.7689 -0.1711  0.1088
  101OSM   H11F10248   1.923   0.299   9.655  0.5712  2.5333  0.9087
  101OSM   H11G10249   2.038   0.209   9.558  1.8609  1.5913  1.3404
  101OSM   C12F10250   1.864   0.293   9.447  0.2189  0.3171 -0.1308
  101OSM   H12F10251   1.916   0.287   9.349  0.6710  2.3147 -0.0325
  101OSM   H12G10252   1.819   0.395   9.443 -0.0995  0.1440 -0.9039
  101OSM   C13F10253   1.760   0.180   9.484 -0.5721 -0.1229  0.4404
  101OSM   H13F10254   1.747   0.179   9.594 -1.8871 -0.5216  0.2895
  101OSM   H13G10255   1.785   0.080   9.442 -0.3169  0.2550 -0.3207
  101OSM   C14F10256   1.621   0.221   9.427  0.3152  0.9833  0.3651
  101OSM   H14F10257   1.603   0.311   9.490  0.6700  1.4873 -0.2561
  101OSM   H14G10258   1.540   0.149   9.454 -1.0729  1.2177 -2.9689
  101OSM   C15F10259   1.607   0.244   9.271 -1.0303  0.6707 -0.1023
  101OSM   H15F10260   1.640   0.149   9.224 -0.9046 -0.3883  2.0520
  101OSM   H15G10261   1.670   0.330   9.243 -1.4458  1.2011  0.5545
  101OSM   C16F10262   1.461   0.277   9.226  0.2132  0.2179  0.3571
  101OSM   H16F10263   1.431   0.362   9.290  2.0204  1.8441 -0.9110
  101OSM   H16G10264   1.393   0.193   9.253  0.2240 -1.4016 -4.2342
  101OSM   C17F10265   1.460   0.311   9.081  0.0329 -0.1031  0.6485
  101OSM   H17F10266   1.553   0.368   9.060 -1.8064  2.6660 -0.2771
  101OSM   H17G10267   1.372   0.373   9.054 -0.5324 -1.0412  0.3001
  101OSM   C18F10268   1.465   0.184   8.985  0.8691 -0.6193 -0.9700
  101OSM   H18F10269   1.373   0.125   9.000  1.0047 -0.7946 -0.8269
  101OSM   H18G10270   1.543   0.107   9.005  1.4159 -0.3494 -1.9972
  101OSM   H18H10271   1.475   0.215   8.879  1.9927 -0.0283 -0.7035
  102OSM      N10272   2.191   6.061  10.828  0.4794 -0.3328  0.2035
  102OSM    C1510273   2.134   6.150  10.934 -1.2868 -0.0414 -0.1990
  102OSM   H15A10274   2.194   6.156  11.024 -1.8856  0.8694  0.1425
  102OSM   H15B10275   2.031   6.119  10.943 -1.5609  0.6808 -0.8404
  102OSM   H15C10276   2.139   6.245  10.884 -0.8262 -1.1897 -2.4149
  102OSM    C1410277   2.337   6.090  10.825 -0.3124  0.1880 -0.3243
  102OSM   H14A10278   2.341   6.194  10.798  1.9514  0.1585 -0.2256
  102OSM   H14B10279   2.388   6.024  10.757 -0.4097 -1.6561  1.3305
  102OSM   H14C10280   2.370   6.074  10.927  0.5713 -1.1810 -0.8023
  102OSM    C1310281   2.172   5.920  10.872 -0.0458  0.0198  0.1904
  102OSM   H13A10282   2.226   5.848  10.812  1.4261  1.5865 -0.4174
  102OSM   H13B10283   2.076   5.874  10.858  0.3608 -0.7906  0.0066
  102OSM   H13C10284   2.210   5.897  10.971  3.4646  2.0629 -0.5866
  102OSM    C1210285   2.118   6.092  10.695 -0.5018  0.2975 -0.3153
  102OSM   H12A10286   2.013   6.114  10.707 -0.2333  1.8747 -0.8761
  102OSM   H12B10287   2.127   6.010  10.625 -0.9210 -0.2552  0.2678
  102OSM    C1110288   2.177   6.210  10.616 -0.2875 -0.0667 -0.3040
  102OSM   H11A10289   2.087   6.236  10.556  1.8351  1.4966 -2.9218
  102OSM   H11B10290   2.268   6.188  10.557  1.0673 -1.1483  2.1259
  102OSM      P10291   2.309   6.426  10.680 -0.3682 -0.0089 -0.0844
  102OSM    O1310292   2.277   6.554  10.751 -0.5128  0.6226 -0.2385
  102OSM    O1410293   2.434   6.368  10.732  0.2213 -0.5204 -0.1328
  102OSM    O1110294   2.310   6.452  10.527  0.2764 -0.1047  0.0755
  102OSM    O1210295   2.199   6.317  10.708 -0.4243 -0.3169  0.7189
  102OSM    C1S10296   2.194   6.514  10.470 -0.5891 -0.6965 -0.2978
  102OSM    H1S10297   2.170   6.617  10.502 -1.7657 -1.7386  2.2624
  102OSM    H1T10298   2.103   6.452  10.484  0.2289 -1.4898  1.7034
  102OSM     NF10299   2.085   6.581  10.249  0.2082 -0.5204 -0.0214
  102OSM    HNF10300   2.014   6.524  10.209 -0.0216  1.9496 -3.3205
  102OSM    C2S10301   2.203   6.518  10.307 -0.3424  0.1337 -0.4230
  102OSM    H2S10302   2.301   6.568  10.291 -0.4900  1.0686  1.3683
  102OSM    C3S10303   2.220   6.371  10.269  0.0975 -0.0624 -0.0559
  102OSM    H3S10304   2.129   6.316  10.303  0.4636 -0.8217 -0.2989
  102OSM     O310305   2.335   6.303  10.322 -0.2010  0.1266 -0.2833
  102OSM    HO310306   2.350   6.346  10.406  1.3161 -1.1291  0.1139
  102OSM    C4S10307   2.207   6.366  10.116  0.6012  0.0101  0.1013
  102OSM    H4S10308   2.104   6.362  10.076  0.9559 -1.9533 -0.6496
  102OSM    C5S10309   2.307   6.353  10.031 -0.4884  0.5162 -0.3957
  102OSM    H5S10310   2.407   6.361  10.078 -0.1836 -1.9644 -0.5437
  102OSM    C6S10311   2.295   6.349   9.882  0.5964 -0.4751 -0.4063
  102OSM    H6S10312   2.401   6.353   9.849  0.7731  1.6616  0.3605
  102OSM    H6T10313   2.233   6.434   9.845  0.2545 -1.6285 -2.6142
  102OSM    C7S10314   2.241   6.217   9.810 -0.0506 -0.2041 -0.5289
  102OSM    H7S10315   2.130   6.204   9.819  0.3352 -3.7379  0.0380
  102OSM    H7T10316   2.287   6.134   9.868 -0.1783  0.1793  0.1190
  102OSM    C8S10317   2.285   6.217   9.661 -0.7631  0.8062 -0.5586
  102OSM    H8S10318   2.386   6.174   9.644  0.4770  2.6085  1.8565
  102OSM    H8T10319   2.297   6.323   9.629  0.9389  1.2467  1.4697
  102OSM    C9S10320   2.175   6.153   9.569 -0.3351  0.0638  0.1768
  102OSM    H9S10321   2.090   6.225   9.570 -0.3038  0.1741 -2.6714
  102OSM    H9T10322   2.138   6.058   9.612  0.0968 -0.5754 -0.8687
  102OSM   C10S10323   2.210   6.133   9.420 -0.7275 -0.4502 -0.3738
  102OSM   H10S10324   2.277   6.045   9.413  0.5636  0.6132 -1.9700
  102OSM   H10T10325   2.262   6.221   9.376 -0.7642 -0.1682  0.1449
  102OSM   C11S10326   2.084   6.086   9.340 -0.2872  0.0707  0.3752
  102OSM   H11S10327   1.998   6.149   9.371  0.7386  1.8669 -0.2717
  102OSM   H11T10328   2.064   5.978   9.352  0.0057  0.1957  2.1171
  102OSM   C12S10329   2.106   6.112   9.185 -0.2076  0.0597 -0.7851
  102OSM   H12S10330   2.196   6.058   9.148  1.0950  1.6304  0.0140
  102OSM   H12T10331   2.124   6.220   9.162 -0.3275  0.6771  1.8866
  102OSM   C13S10332   1.985   6.053   9.108 -0.6292  0.4660 -0.1513
  102OSM   H13S10333   1.894   6.113   9.129 -1.7742 -0.1518 -3.0969
  102OSM   H13T10334   1.953   5.951   9.140 -0.5308  0.5751  0.2897
  102OSM   C14S10335   2.009   6.059   8.952 -0.1188 -0.0436 -0.3113
  102OSM   H14S10336   1.926   6.011   8.897 -2.3542  0.5343  2.4429
  102OSM   H14T10337   2.102   6.002   8.928 -0.1449  0.1776 -0.9284
  102OSM   C15S10338   2.044   6.198   8.889 -0.2886 -0.7564  0.8091
  102OSM   H15S10339   2.139   6.237   8.932 -0.0582  3.8252 -3.3156
  102OSM   H15T10340   1.966   6.275   8.911 -0.7878 -0.8961 -0.3948
  102OSM   C16S10341   2.047   6.213   8.737 -0.0785 -0.4242 -0.1585
  102OSM   H16S10342   2.031   6.319   8.709 -2.0242 -0.5600  0.3241
  102OSM   H16T10343   1.952   6.170   8.699 -1.0969  3.8018 -2.6878
  102OSM   C17S10344   2.165   6.137   8.669 -0.3715  0.2766 -0.1898
  102OSM   H17S10345   2.127   6.033   8.653  1.9897 -1.0206  2.2413
  102OSM   H17T10346   2.252   6.119   8.736 -0.3620 -1.9177 -0.7501
  102OSM   C18S10347   2.218   6.185   8.534 -0.4355  0.0816 -0.4211
  102OSM   H18S10348   2.279   6.109   8.480  1.4925  1.9803 -0.9695
  102OSM   H18T10349   2.272   6.280   8.553  0.6220 -0.0808 -2.4426
  102OSM   H18U10350   2.129   6.214   8.473 -1.8396 -1.3792  0.9009
  102OSM    C1F10351   2.075   6.716  10.243  1.3491  0.0174 -0.2840
  102OSM     OF10352   2.167   6.790  10.274  0.6140  0.4379  0.5847
  102OSM    C2F10353   1.951   6.782  10.192  0.5529  0.2550 -0.5081
  102OSM    H2F10354   1.952   6.893  10.202  2.5957  0.0674  1.9299
  102OSM    H2G10355   1.864   6.751  10.254  0.0592  0.5999 -1.0254
  102OSM    C3F10356   1.938   6.742  10.038 -0.3555 -0.3076  0.8427
  102OSM    H3F10357   1.849   6.790   9.992  0.0802 -1.0279 -0.7891
  102OSM    H3G10358   1.918   6.632  10.039  1.1843 -0.6038  0.0578
  102OSM    C4F10359   2.067   6.775   9.954  0.0218 -0.6684 -0.2567
  102OSM    H4F10360   2.135   6.689   9.976 -1.9439 -1.4434  3.1281
  102OSM    H4G10361   2.111   6.866  10.000 -0.6059  0.8485 -2.5587
  102OSM    C5F10362   2.045   6.789   9.803 -0.0833 -0.2072  0.0579
  102OSM    H5F10363   2.142   6.828   9.765 -0.4595  0.3016 -0.3791
  102OSM    H5G10364   1.971   6.871   9.801  1.5896  1.3322 -0.3494
  102OSM    C6F10365   2.003   6.651   9.738 -0.1366  0.2911  0.1947
  102OSM    H6F10366   1.900   6.625   9.770 -1.1801  1.1842 -2.3560
  102OSM    H6G10367   2.074   6.569   9.764 -0.4116  0.4271  1.4480
  102OSM    C7F10368   2.006   6.657   9.590 -0.5479 -0.3569  0.3793
  102OSM    H7F10369   2.082   6.725   9.543 -1.3713  0.3724  0.0930
  102OSM    H7G10370   1.912   6.707   9.561  0.6698  1.8352  0.0672
  102OSM    C8F10371   2.023   6.525   9.515 -0.4110  0.3699 -0.8105
  102OSM    H8F10372   2.124   6.482   9.535  0.5707  1.5045 -3.0582
  102OSM    H8G10373   2.037   6.542   9.406  0.5971 -1.0741 -0.9289
  102OSM    C9F10374   1.902   6.433   9.547  0.3851 -0.2586  0.3732
  102OSM    H9F10375   1.919   6.351   9.619  1.3173  0.4932  1.0250
  102OSM   C10F10376   1.786   6.433   9.478  0.0191  0.4099 -0.3365
  102OSM   H10F10377   1.702   6.375   9.520 -0.6329 -0.1309 -2.3331
  102OSM   C11F10378   1.742   6.506   9.354 -0.1558 -0.8624 -0.0360
  102OSM   H11F10379   1.827   6.532   9.287 -2.0460  0.4481 -1.9801
  102OSM   H11G10380   1.706   6.607   9.382 -1.0295 -1.2773  0.3606
  102OSM   C12F10381   1.620   6.433   9.290 -0.3872  0.4155  0.2280
  102OSM   H12F10382   1.532   6.434   9.357 -0.0352  0.9701  0.6822
  102OSM   H12G10383   1.650   6.327   9.275  0.4975  0.9105 -1.7403
  102OSM   C13F10384   1.582   6.482   9.150  0.2227  0.4772  0.1372
  102OSM   H13F10385   1.560   6.589   9.167  0.5584  0.5977 -0.1913
  102OSM   H13G10386   1.493   6.428   9.113  0.5295 -0.6585  1.0314
  102OSM   C14F10387   1.699   6.459   9.051 -0.0971 -0.2797  0.0916
  102OSM   H14F10388   1.714   6.355   9.016  1.1792 -0.2007  0.3908
  102OSM   H14G10389   1.796   6.492   9.094 -0.1485 -0.6053  0.4621
  102OSM   C15F10390   1.689   6.553   8.926  0.8999  0.2482 -1.0645
  102OSM   H15F10391   1.664   6.647   8.979 -1.5910 -0.0313 -1.7070
  102OSM   H15G10392   1.589   6.521   8.889  0.1348  0.7877  0.5290
  102OSM   C16F10393   1.812   6.556   8.840 -0.0793 -0.2070  0.0701
  102OSM   H16F10394   1.783   6.589   8.738 -2.6727 -0.4956  0.6662
  102OSM   H16G10395   1.861   6.457   8.826  1.7328  0.6688  0.1229
  102OSM   C17F10396   1.907   6.669   8.886 -0.2335 -0.0066  0.4691
  102OSM   H17F10397   1.953   6.623   8.977 -0.9520 -3.2751 -0.7447
  102OSM   H17G10398   1.856   6.758   8.928  0.6426  1.4107 -1.3649
  102OSM   C18F10399   2.017   6.703   8.787 -0.3187  0.3016  0.1787
  102OSM   H18F10400   2.104   6.748   8.838 -1.4618  0.8291  1.7277
  102OSM   H18G10401   1.988   6.779   8.711 -0.8187 -2.0782 -2.0885
  102OSM   H18H10402   2.055   6.614   8.734 -0.0042 -0.2748  1.3481
  103OSM      N10403   3.013   2.204  11.251 -0.1706  0.2646 -0.2516
  103OSM    C1510404   2.922   2.082  11.247 -0.0923 -0.1510 -0.1197
  103OSM   H15A10405   2.817   2.101  11.261 -0.1486 -0.1808 -0.5217
  103OSM   H15B10406   2.954   2.019  11.329  3.6999 -0.8294 -2.0105
  103OSM   H15C10407   2.935   2.027  11.156 -0.8872 -1.3765  0.4967
  103OSM    C1410408   3.013   2.270  11.114  0.3755  0.1498  0.5963
  103OSM   H14A10409   2.917   2.290  11.070  0.5081 -1.4316 -0.4651
  103OSM   H14B10410   3.075   2.215  11.044 -0.1935  0.8155 -0.4305
  103OSM   H14C10411   3.071   2.360  11.128  1.8381 -0.7700  0.6513
  103OSM    C1310412   2.970   2.305  11.351  0.4794 -0.7371  0.1253
  103OSM   H13A10413   2.950   2.273  11.452  1.0074 -0.5246  0.3015
  103OSM   H13B10414   2.877   2.347  11.314  0.1148 -0.9550  0.7936
  103OSM   H13C10415   3.040   2.383  11.376  0.7648 -0.5337 -1.2284
  103OSM    C1210416   3.148   2.164  11.288  0.1347 -1.0445  0.6261
  103OSM   H12A10417   3.155   2.128  11.389  2.1978 -0.3211  0.7682
  103OSM   H12B10418   3.211   2.251  11.296  0.4271 -1.2566  0.6327
  103OSM    C1110419   3.209   2.050  11.198 -0.2371 -0.1659  0.2297
  103OSM   H11A10420   3.141   1.976  11.151  0.0562 -0.2308 -0.0907
  103OSM   H11B10421   3.291   2.005  11.259 -0.8521 -1.9613 -0.2366
  103OSM      P10422   3.398   2.215  11.113  0.0184 -0.1134 -0.0038
  103OSM    O1310423   3.359   2.355  11.139 -0.4965 -0.3759 -0.1673
  103OSM    O1410424   3.482   2.158  11.223 -0.3502  0.3092 -0.4885
  103OSM    O1110425   3.476   2.207  10.977  0.8265 -0.7417 -0.7035
  103OSM    O1210426   3.273   2.121  11.085  0.2745  0.8336 -0.4689
  103OSM    C1S10427   3.409   2.205  10.853 -0.0737 -0.1547 -0.0840
  103OSM    H1S10428   3.314   2.262  10.861 -0.1551 -0.2090 -0.6565
  103OSM    H1T10429   3.374   2.102  10.831  1.3006 -0.5362 -0.5438
  103OSM     NF10430   3.417   2.269  10.611  0.8583 -0.2199  0.2041
  103OSM    HNF10431   3.413   2.207  10.534 -0.0803  0.9721 -0.7246
  103OSM    C2S10432   3.501   2.254  10.734 -0.4463 -0.0999 -0.4420
  103OSM    H2S10433   3.532   2.358  10.757 -2.8714  0.7888 -1.0036
  103OSM    C3S10434   3.625   2.160  10.723  1.3418 -1.1056  0.4234
  103OSM    H3S10435   3.587   2.057  10.707 -0.3175 -0.3666 -0.4837
  103OSM     O310436   3.710   2.156  10.839 -0.1386  0.0988 -0.2096
  103OSM    HO310437   3.652   2.169  10.915  1.7921  0.0163  1.3232
  103OSM    C4S10438   3.712   2.202  10.612  0.1063  0.2510 -1.1372
  103OSM    H4S10439   3.781   2.279  10.647 -3.5359  2.1677  2.2481
  103OSM    C5S10440   3.720   2.145  10.489  0.2412 -0.6134 -0.4832
  103OSM    H5S10441   3.651   2.067  10.455 -0.7631 -0.8959  2.1185
  103OSM    C6S10442   3.827   2.200  10.386 -0.3798 -0.0878 -0.0105
  103OSM    H6S10443   3.900   2.270  10.433 -0.1687  0.0427 -0.5291
  103OSM    H6T10444   3.766   2.266  10.322 -0.3125  0.7357  0.7532
  103OSM    C7S10445   3.899   2.107  10.289  0.0774 -0.3451 -0.0294
  103OSM    H7S10446   3.965   2.043  10.351  0.3285 -1.5290 -1.5063
  103OSM    H7T10447   3.967   2.162  10.220  0.9305  0.3760  1.3606
  103OSM    C8S10448   3.807   2.004  10.222 -0.7595 -0.1087 -0.6791
  103OSM    H8S10449   3.748   2.053  10.141 -0.0813  1.3486 -0.2986
  103OSM    H8T10450   3.728   1.968  10.292  0.4086  1.2119  1.3731
  103OSM    C9S10451   3.901   1.911  10.151 -0.1028 -0.2744 -0.7570
  103OSM    H9S10452   3.990   1.885  10.211 -1.5407 -1.5382  0.8848
  103OSM    H9T10453   3.940   1.961  10.060  1.0105  0.6166  0.1983
  103OSM   C10S10454   3.834   1.775  10.128 -0.2994 -0.5828  0.1626
  103OSM   H10S10455   3.745   1.783  10.062 -0.1984 -1.1803 -0.0520
  103OSM   H10T10456   3.813   1.727  10.226  0.1179 -2.2758 -0.5600
  103OSM   C11S10457   3.934   1.684  10.065  0.1722 -0.1122  0.6964
  103OSM   H11S10458   3.901   1.582  10.095 -4.8462  0.5219 -2.3194
  103OSM   H11T10459   4.032   1.692  10.118  0.8236 -0.9866 -0.3665
  103OSM   C12S10460   3.952   1.692   9.912  0.3259 -0.4831 -0.1073
  103OSM   H12S10461   4.042   1.637   9.877  0.2305 -0.5489 -0.2528
  103OSM   H12T10462   3.972   1.801   9.904  1.9847 -0.9971 -4.2140
  103OSM   C13S10463   3.834   1.661   9.818  0.6194 -0.1266 -0.2128
  103OSM   H13S10464   3.739   1.707   9.853 -0.4520 -2.9444  0.7379
  103OSM   H13T10465   3.824   1.551   9.830  0.7942 -0.4096 -2.3402
  103OSM   C14S10466   3.854   1.696   9.676  0.6643  0.1012  0.3348
  103OSM   H14S10467   3.956   1.662   9.648  1.6027 -0.2295  3.8785
  103OSM   H14T10468   3.859   1.807   9.673  2.2140  0.0783  1.1986
  103OSM   C15S10469   3.757   1.636   9.574 -0.2663 -0.5480  0.9411
  103OSM   H15S10470   3.655   1.650   9.617 -0.4453 -1.0551  0.6926
  103OSM   H15T10471   3.768   1.526   9.561  2.2410 -0.1998 -0.2259
  103OSM   C16S10472   3.761   1.693   9.434  0.5061 -0.5971  0.4476
  103OSM   H16S10473   3.847   1.648   9.380  0.6555 -0.6665  0.7443
  103OSM   H16T10474   3.779   1.802   9.442  2.9994 -1.1259  2.5401
  103OSM   C17S10475   3.638   1.654   9.358  0.2226 -0.4619  0.3364
  103OSM   H17S10476   3.547   1.672   9.420 -0.5109  0.1776 -0.9085
  103OSM   H17T10477   3.644   1.547   9.330  0.0649 -0.0184 -1.4431
  103OSM   C18S10478   3.638   1.747   9.232  0.0883 -0.0484  0.0849
  103OSM   H18S10479   3.535   1.772   9.199  1.7438  1.6607 -4.0416
  103OSM   H18T10480   3.695   1.699   9.150  0.1098  1.3330 -0.7072
  103OSM   H18U10481   3.697   1.838   9.256  2.3140 -0.6890 -2.7013
  103OSM    C1F10482   3.322   2.365  10.611 -0.1549  0.3226 -0.1145
  103OSM     OF10483   3.350   2.468  10.677  0.2633 -0.3144  0.3045
  103OSM    C2F10484   3.195   2.359  10.532 -0.0483  0.1940 -0.2915
  103OSM    H2F10485   3.113   2.317  10.595  0.9928 -0.1201  0.8658
  103OSM    H2G10486   3.202   2.301  10.438  1.0468  0.4179 -0.3524
  103OSM    C3F10487   3.161   2.498  10.479 -0.4643 -0.7943 -0.5024
  103OSM    H3F10488   3.251   2.544  10.434 -0.9862 -1.7146 -2.5411
  103OSM    H3G10489   3.134   2.562  10.567 -0.5988  1.0464 -1.8578
  103OSM    C4F10490   3.038   2.494  10.383 -0.3085 -0.5803  0.1833
  103OSM    H4F10491   2.965   2.577  10.392 -0.6858 -0.9635  0.6878
  103OSM    H4G10492   2.981   2.406  10.419  0.2078 -1.1551 -0.3811
  103OSM    C5F10493   3.078   2.465  10.234 -0.0883  0.0389  0.2561
  103OSM    H5F10494   3.128   2.366  10.235  1.5807  0.8424 -0.9810
  103OSM    H5G10495   3.163   2.530  10.204  0.6669 -2.1769 -2.6049
  103OSM    C6F10496   2.970   2.472  10.136  0.6133  0.3070 -0.4455
  103OSM    H6F10497   2.884   2.413  10.175  1.1773  1.5132  2.7552
  103OSM    H6G10498   3.005   2.424  10.042  2.3092  1.6064 -0.4966
  103OSM    C7F10499   2.949   2.616  10.085 -0.1031  0.1244  0.4420
  103OSM    H7F10500   3.051   2.657  10.069  0.3577 -0.7236  1.2094
  103OSM    H7G10501   2.908   2.680  10.166  0.0235 -0.9474  1.3552
  103OSM    C8F10502   2.851   2.613   9.963  0.1453 -0.9952 -0.1951
  103OSM    H8F10503   2.781   2.531   9.992  0.0832 -1.2040 -0.9208
  103OSM    H8G10504   2.927   2.591   9.886  0.9230 -0.9693  0.5570
  103OSM    C9F10505   2.771   2.741   9.933 -0.1594 -0.0566  0.5270
  103OSM    H9F10506   2.698   2.770  10.010  1.0708  1.8577  0.9909
  103OSM   C10F10507   2.777   2.811   9.816 -0.2817 -0.2715  0.6320
  103OSM   H10F10508   2.715   2.902   9.805  0.4675  0.5375  2.9580
  103OSM   C11F10509   2.864   2.798   9.691 -1.2041 -0.5176  0.4596
  103OSM   H11F10510   2.914   2.701   9.707 -0.0465 -0.0146 -0.0921
  103OSM   H11G10511   2.934   2.884   9.694 -1.0599 -0.6687  2.9203
  103OSM   C12F10512   2.781   2.791   9.569  1.0564  0.3369  0.4468
  103OSM   H12F10513   2.704   2.870   9.565  1.9900  1.3294  1.4509
  103OSM   H12G10514   2.726   2.694   9.568  0.8479  0.4633 -0.3912
  103OSM   C13F10515   2.864   2.814   9.446 -0.8070 -0.4441 -0.4696
  103OSM   H13F10516   2.913   2.913   9.455  1.6876 -1.5209 -1.7312
  103OSM   H13G10517   2.935   2.735   9.415 -0.3416  0.4093 -1.5972
  103OSM   C14F10518   2.782   2.842   9.318 -0.3140  0.7441 -0.0467
  103OSM   H14F10519   2.736   2.744   9.297 -2.2116  1.4930  0.5013
  103OSM   H14G10520   2.848   2.874   9.234 -0.7057 -1.6535 -1.2822
  103OSM   C15F10521   2.684   2.956   9.315 -0.3851  0.5207  0.8314
  103OSM   H15F10522   2.719   3.058   9.343  1.1592 -1.0085  4.8334
  103OSM   H15G10523   2.602   2.934   9.386 -0.1944 -1.4564  0.4839
  103OSM   C16F10524   2.619   2.977   9.176 -0.2237 -0.3897 -0.4278
  103OSM   H16F10525   2.570   2.884   9.138 -0.0857 -0.1145 -1.2898
  103OSM   H16G10526   2.703   3.002   9.107 -1.0133  2.5185 -0.3926
  103OSM   C17F10527   2.521   3.099   9.161 -0.1633 -0.2673 -0.2102
  103OSM   H17F10528   2.501   3.115   9.053  1.5692  0.1330 -0.4855
  103OSM   H17G10529   2.578   3.190   9.191  0.5777 -0.6343 -0.5148
  103OSM   C18F10530   2.395   3.096   9.251  0.1901 -0.3083 -0.2084
  103OSM   H18F10531   2.430   3.089   9.356 -4.3121 -0.7953  1.3642
  103OSM   H18G10532   2.331   3.008   9.228 -1.0073  0.7458 -0.9439
  103OSM   H18H10533   2.341   3.189   9.224  1.1584  0.2259 -0.3339
  104OSM      N10534   1.413   1.751  10.936  0.2959  0.1431  0.4490
  104OSM    C1510535   1.490   1.882  10.949 -0.4590  0.4133  0.2013
  104OSM   H15A10536   1.462   1.922  11.045 -2.6842 -0.6194  0.0233
  104OSM   H15B10537   1.466   1.946  10.866  1.2209 -0.9238 -1.3681
  104OSM   H15C10538   1.597   1.866  10.946 -0.4683  0.5649 -1.9699
  104OSM    C1410539   1.462   1.674  11.047  0.0610 -0.8071  1.0103
  104OSM   H14A10540   1.436   1.714  11.144 -2.3720 -1.7931  0.7987
  104OSM   H14B10541   1.567   1.653  11.047  0.7688  2.4227 -0.1932
  104OSM   H14C10542   1.422   1.574  11.044 -0.7955 -0.4547  0.4700
  104OSM    C1310543   1.268   1.778  10.950 -0.3846 -0.3358 -0.0826
  104OSM   H13A10544   1.243   1.851  10.874  1.8778 -0.7387 -1.2592
  104OSM   H13B10545   1.239   1.829  11.040 -0.8258 -0.7911  0.0377
  104OSM   H13C10546   1.207   1.689  10.959  1.9957 -2.0708 -0.5052
  104OSM    C1210547   1.448   1.682  10.804  0.1794  0.2557  0.0110
  104OSM   H12A10548   1.419   1.578  10.804  1.8857 -0.2463 -1.4096
  104OSM   H12B10549   1.555   1.684  10.792  0.2939 -1.9614  0.5096
  104OSM    C1110550   1.383   1.754  10.684 -0.3038 -0.4533  0.5930
  104OSM   H11A10551   1.272   1.766  10.688 -0.5532 -2.4243 -0.1158
  104OSM   H11B10552   1.404   1.685  10.600  0.8758 -0.1031  0.5956
  104OSM      P10553   1.377   1.986  10.561 -0.0314  0.5596 -0.3928
  104OSM    O1310554   1.238   1.976  10.593 -0.2578  0.2239  0.2937
  104OSM    O1410555   1.438   2.118  10.579  0.3574  0.8762  0.4534
  104OSM    O1110556   1.405   1.951  10.415  0.4185  0.0757 -0.7764
  104OSM    O1210557   1.449   1.876  10.645 -0.6284 -0.3020 -0.0932
  104OSM    C1S10558   1.326   2.023  10.316  0.0247  0.5513 -0.0227
  104OSM    H1S10559   1.373   2.121  10.295 -1.3980  1.4869  1.0848
  104OSM    H1T10560   1.223   2.036  10.355 -0.9175  0.1502 -2.3003
  104OSM     NF10561   1.238   2.012  10.079  0.9940  0.2436  1.0874
  104OSM    HNF10562   1.140   2.001  10.070  0.6763  3.5114 -0.2056
  104OSM    C2S10563   1.297   1.931  10.189  0.0169 -0.2920  1.1394
  104OSM    H2S10564   1.401   1.909  10.157  0.2985 -1.9183  3.0664
  104OSM    C3S10565   1.225   1.790  10.222 -0.5405 -1.2091 -0.4865
  104OSM    H3S10566   1.128   1.802  10.274  0.4341  0.4772  1.0120
  104OSM     O310567   1.306   1.711  10.313 -0.1806  0.1212 -0.1099
  104OSM    HO310568   1.350   1.774  10.370 -1.7112  0.6817  0.4984
  104OSM    C4S10569   1.209   1.698  10.093 -0.2659 -0.0646 -0.4371
  104OSM    H4S10570   1.300   1.651  10.053 -1.5989 -1.5566 -1.7796
  104OSM    C5S10571   1.092   1.663  10.029  0.1847 -0.6274 -0.0198
  104OSM    H5S10572   0.999   1.707  10.068  0.7470  1.3999 -0.8799
  104OSM    C6S10573   1.092   1.592   9.894 -0.0369  0.1116 -0.5837
  104OSM    H6S10574   1.022   1.638   9.821 -0.1694  1.6210  0.4488
  104OSM    H6T10575   1.053   1.490   9.910 -0.1620  0.1656 -0.5414
  104OSM    C7S10576   1.226   1.584   9.817 -0.0410  0.6984 -0.1498
  104OSM    H7S10577   1.294   1.519   9.877 -0.2302  1.0436  0.4402
  104OSM    H7T10578   1.264   1.687   9.801  1.7355  0.0577 -0.0958
  104OSM    C8S10579   1.210   1.515   9.682 -0.0525 -0.5516  0.1905
  104OSM    H8S10580   1.139   1.431   9.693  0.9197 -1.3926  0.1390
  104OSM    H8T10581   1.303   1.463   9.650 -0.8585 -0.6939 -2.0176
  104OSM    C9S10582   1.160   1.612   9.575 -0.0539 -0.0010 -0.4104
  104OSM    H9S10583   1.214   1.710   9.582 -0.1261 -0.1272  2.8830
  104OSM    H9T10584   1.055   1.646   9.591  0.2835  0.4479  0.9913
  104OSM   C10S10585   1.165   1.549   9.436  0.1397 -0.4551  0.7860
  104OSM   H10S10586   1.106   1.456   9.418 -1.4247  0.7250 -0.2987
  104OSM   H10T10587   1.268   1.508   9.432  0.3636  0.0074  1.6030
  104OSM   C11S10588   1.142   1.645   9.318  0.1852  0.1559  0.1544
  104OSM   H11S10589   1.132   1.572   9.235 -1.6504  0.0007  0.4859
  104OSM   H11T10590   1.228   1.715   9.306  1.4742 -1.1440  1.5470
  104OSM   C12S10591   1.011   1.728   9.312 -0.4672  0.2758 -0.2527
  104OSM   H12S10592   0.993   1.780   9.408  1.2343 -0.2948  0.4035
  104OSM   H12T10593   0.922   1.663   9.299 -0.7138  1.1125 -3.1658
  104OSM   C13S10594   1.013   1.837   9.203  0.3041 -0.5482  0.0692
  104OSM   H13S10595   1.099   1.902   9.231 -0.5505  1.0936 -1.0067
  104OSM   H13T10596   0.925   1.902   9.221  1.3432  0.7455  0.5704
  104OSM   C14S10597   1.029   1.780   9.061 -0.3649 -0.1467 -0.0412
  104OSM   H14S10598   0.955   1.699   9.040 -0.0089 -0.5287  0.1614
  104OSM   H14T10599   1.131   1.737   9.057  0.3924  1.7723 -2.1255
  104OSM   C15S10600   1.028   1.882   8.941 -0.6130  0.0627 -0.2293
  104OSM   H15S10601   1.103   1.958   8.974 -1.4189  1.0627 -0.6696
  104OSM   H15T10602   0.935   1.936   8.912 -0.5815  1.4936  2.1632
  104OSM   C16S10603   1.087   1.821   8.815 -0.0782 -0.4075 -0.4775
  104OSM   H16S10604   1.013   1.742   8.788  1.7875 -2.1994 -0.4713
  104OSM   H16T10605   1.178   1.771   8.854 -0.0935  1.4545  2.0255
  104OSM   C17S10606   1.123   1.917   8.699 -0.0237 -0.5965  0.6706
  104OSM   H17S10607   1.196   1.875   8.628  1.8401  1.9263  1.0377
  104OSM   H17T10608   1.176   2.003   8.745 -1.4887  0.5260  0.3342
  104OSM   C18S10609   1.000   1.977   8.637  0.5370 -0.6983 -0.3115
  104OSM   H18S10610   0.937   1.898   8.590 -2.9865  0.0288  2.8894
  104OSM   H18T10611   1.036   2.043   8.555  1.5052  0.6987  1.2094
  104OSM   H18U10612   0.918   2.014   8.702 -0.8248 -0.8938 -1.8635
  104OSM    C1F10613   1.301   2.107  10.002 -0.2081 -0.1512 -0.3090
  104OSM     OF10614   1.416   2.146  10.031  0.1657  0.7639  0.1484
  104OSM    C2F10615   1.226   2.150   9.882 -0.0256 -0.3470  0.2394
  104OSM    H2F10616   1.253   2.248   9.838  3.3422 -0.3884  2.0874
  104OSM    H2G10617   1.118   2.156   9.908 -0.7942 -2.8761 -2.1695
  104OSM    C3F10618   1.244   2.045   9.767 -0.5798 -0.5508 -0.9936
  104OSM    H3F10619   1.184   2.086   9.683 -0.9984  1.7540  0.3883
  104OSM    H3G10620   1.200   1.946   9.792 -0.5541 -0.2523  0.2536
  104OSM    C4F10621   1.389   2.032   9.723  0.1433 -0.0861  0.1240
  104OSM    H4F10622   1.459   1.980   9.792  0.6451 -1.4725 -1.4061
  104OSM    H4G10623   1.433   2.134   9.720  1.8537 -0.8085 -0.0232
  104OSM    C5F10624   1.405   1.966   9.584 -0.2020 -0.2684 -0.7620
  104OSM    H5F10625   1.352   1.868   9.582  2.3667 -1.7770  1.6487
  104OSM    H5G10626   1.510   1.933   9.567  0.2405 -0.5976  2.2483
  104OSM    C6F10627   1.369   2.048   9.460  0.0230 -0.5485  0.0790
  104OSM    H6F10628   1.260   2.069   9.453  0.1215  0.2515  0.8400
  104OSM    H6G10629   1.401   1.991   9.370  0.0724 -0.3792 -0.0105
  104OSM    C7F10630   1.424   2.189   9.458 -0.1506  0.4219 -0.1276
  104OSM    H7F10631   1.531   2.180   9.486  0.0784  0.9647 -0.8039
  104OSM    H7G10632   1.374   2.235   9.546  2.4199  2.7507  0.1855
  104OSM    C8F10633   1.413   2.268   9.328 -0.1964 -0.2031  0.9203
  104OSM    H8F10634   1.470   2.361   9.348  0.1094 -0.6370  2.0962
  104OSM    H8G10635   1.306   2.289   9.308 -0.9015 -0.9495  3.6481
  104OSM    C9F10636   1.484   2.202   9.214 -0.0216  0.2841  0.5839
  104OSM    H9F10637   1.583   2.156   9.232 -0.8997 -1.5407  0.7795
  104OSM   C10F10638   1.423   2.184   9.097  0.7497 -0.7472  0.2801
  104OSM   H10F10639   1.466   2.127   9.013 -2.1012 -1.4863 -0.7369
  104OSM   C11F10640   1.280   2.227   9.066  0.5938 -0.2154  0.2397
  104OSM   H11F10641   1.244   2.319   9.115 -1.3183 -1.5994  1.5145
  104OSM   H11G10642   1.209   2.145   9.092 -0.5834  1.3809  2.2141
  104OSM   C12F10643   1.263   2.246   8.916  0.0943  0.0483 -0.6213
  104OSM   H12F10644   1.320   2.167   8.863  0.7787 -0.9610  1.5594
  104OSM   H12G10645   1.310   2.344   8.894 -2.0422  1.2348 -0.0467
  104OSM   C13F10646   1.119   2.259   8.862  0.7203  0.3344 -0.4798
  104OSM   H13F10647   1.062   2.329   8.928 -0.5221 -2.3028  1.3109
  104OSM   H13G10648   1.054   2.171   8.879 -1.9358  2.5772  1.5512
  104OSM   C14F10649   1.114   2.303   8.717  0.7194 -0.3057  0.2196
  104OSM   H14F10650   1.152   2.233   8.640 -0.5676 -0.6936 -0.0692
  104OSM   H14G10651   1.168   2.400   8.720  1.3025 -0.6070 -0.3985
  104OSM   C15F10652   0.968   2.332   8.671  0.2764 -0.5687  0.3048
  104OSM   H15F10653   0.901   2.361   8.755 -0.7875 -0.6514 -0.5021
  104OSM   H15G10654   0.931   2.234   8.631 -1.1681 -0.8291  2.2043
  104OSM   C16F10655   0.949   2.429   8.547  0.6338 -0.9521 -1.0992
  104OSM   H16F10656   1.018   2.407   8.462  1.4999  1.3959 -1.0355
  104OSM   H16G10657   0.978   2.527   8.590 -0.1412 -0.3647 -1.8734
  104OSM   C17F10658   0.810   2.463   8.508 -0.0366 -0.5641  0.2507
  104OSM   H17F10659   0.749   2.476   8.601 -1.4856 -2.2716 -0.4327
  104OSM   H17G10660   0.773   2.372   8.456  2.1247 -0.7376 -1.0424
  104OSM   C18F10661   0.795   2.584   8.403  0.2940  0.0077 -0.3684
  104OSM   H18F10662   0.845   2.679   8.432 -0.1879 -0.0510  0.6567
  104OSM   H18G10663   0.695   2.601   8.358 -0.8782  0.7567  2.3742
  104OSM   H18H10664   0.850   2.556   8.310  1.8660  2.9121 -0.3554
  105OSM      N10665   1.308   0.900  10.864 -0.2881  0.2859 -0.1109
  105OSM    C1510666   1.306   0.835  10.736 -0.0015 -0.3937  0.8333
  105OSM   H15A10667   1.390   0.769  10.723 -0.5874 -0.9914 -0.0081
  105OSM   H15B10668   1.310   0.914  10.662  1.9262  0.7426  2.1053
  105OSM   H15C10669   1.213   0.784  10.717  0.8188 -1.7875  0.4860
  105OSM    C1410670   1.283   0.797  10.969  0.3520  0.0326  0.1394
  105OSM   H14A10671   1.295   0.844  11.065  1.3839  0.6138 -0.2642
  105OSM   H14B10672   1.344   0.708  10.974  0.5808  0.2354  1.0189
  105OSM   H14C10673   1.183   0.763  10.947  0.7678 -0.0245 -1.7884
  105OSM    C1310674   1.447   0.959  10.887 -0.0701  0.4805 -0.4426
  105OSM   H13A10675   1.458   0.998  10.988  1.5007  1.2381 -0.8851
  105OSM   H13B10676   1.469   1.047  10.829 -0.1371  1.1586  0.5368
  105OSM   H13C10677   1.529   0.891  10.870  0.2469  0.4597  1.0592
  105OSM    C1210678   1.213   1.021  10.873 -0.5464  0.0794  0.1400
  105OSM   H12A10679   1.235   1.091  10.952 -0.7226  0.3533 -0.0517
  105OSM   H12B10680   1.114   0.981  10.889 -0.4235 -0.2086  0.1834
  105OSM    C1110681   1.215   1.110  10.743 -0.3246  0.2610 -0.2862
  105OSM   H11A10682   1.127   1.176  10.754  0.0750  0.4943  1.6918
  105OSM   H11B10683   1.199   1.060  10.644  1.7174 -0.1891 -0.4172
  105OSM      P10684   1.393   1.304  10.804 -0.0431  0.0770  0.3647
  105OSM    O1310685   1.327   1.329  10.933  0.2568  0.5090  0.3092
  105OSM    O1410686   1.543   1.299  10.808  0.1896  0.5668 -0.0551
  105OSM    O1110687   1.341   1.418  10.705  0.1009 -0.0421 -0.5857
  105OSM    O1210688   1.334   1.181  10.733 -0.1230  0.5350  0.2969
  105OSM    C1S10689   1.363   1.393  10.559 -0.8078  0.5965 -0.2067
  105OSM    H1S10690   1.435   1.314  10.532  0.6415  2.3634 -1.6711
  105OSM    H1T10691   1.409   1.487  10.523 -2.8556  1.4838 -0.6113
  105OSM     NF10692   1.248   1.358  10.342 -0.0074  0.8731  0.3246
  105OSM    HNF10693   1.220   1.429  10.278  1.3131  2.1677  1.1412
  105OSM    C2S10694   1.229   1.379  10.484  0.4359 -0.1665  0.1476
  105OSM    H2S10695   1.191   1.288  10.533 -1.7358 -1.3259 -3.5429
  105OSM    C3S10696   1.134   1.499  10.518 -0.0712 -0.3941  0.2160
  105OSM    H3S10697   1.185   1.591  10.482 -1.2297  0.2894  0.3269
  105OSM     O310698   1.117   1.534  10.651  0.2935 -0.3204  0.2065
  105OSM    HO310699   1.186   1.491  10.701  0.6821 -0.4422 -0.4354
  105OSM    C4S10700   1.004   1.471  10.455  0.1544 -0.0466 -0.4976
  105OSM    H4S10701   0.947   1.392  10.505 -1.9182  2.9471  2.0498
  105OSM    C5S10702   0.947   1.542  10.355 -0.5589  0.0364 -0.6548
  105OSM    H5S10703   0.989   1.640  10.325  2.7966 -1.1051  0.1347
  105OSM    C6S10704   0.811   1.512  10.300  0.0917  0.6256 -0.0573
  105OSM    H6S10705   0.764   1.607  10.266 -0.2474  0.1308 -0.9630
  105OSM    H6T10706   0.749   1.476  10.385 -0.3178  0.0178 -0.6114
  105OSM    C7S10707   0.819   1.415  10.185  0.4351  0.8143  0.5352
  105OSM    H7S10708   0.871   1.332  10.238 -0.9365  0.5637  1.5063
  105OSM    H7T10709   0.885   1.456  10.106 -1.8165  1.9938 -0.7843
  105OSM    C8S10710   0.684   1.378  10.124 -0.3344  0.4154  0.8540
  105OSM    H8S10711   0.638   1.475  10.095 -0.6334  0.2120  0.6583
  105OSM    H8T10712   0.629   1.314  10.196 -1.6186 -0.3822 -0.8270
  105OSM    C9S10713   0.706   1.303   9.998  0.5326 -0.5189  0.6652
  105OSM    H9S10714   0.752   1.202  10.009  0.1993 -0.9257 -1.4378
  105OSM    H9T10715   0.767   1.369   9.933 -0.8763  3.0134  2.8143
  105OSM   C10S10716   0.586   1.279   9.903  0.6140  0.5925  0.3184
  105OSM   H10S10717   0.531   1.371   9.871  4.0304  1.9043 -2.0965
  105OSM   H10T10718   0.524   1.211   9.964  2.6771 -0.2077  1.5704
  105OSM   C11S10719   0.621   1.203   9.777 -0.4579  0.4351 -0.1459
  105OSM   H11S10720   0.686   1.117   9.803 -0.4757  0.3078 -0.5176
  105OSM   H11T10721   0.679   1.270   9.711  0.1401  0.1549  0.0947
  105OSM   C12S10722   0.501   1.161   9.696  0.6467  0.0687  0.5733
  105OSM   H12S10723   0.421   1.236   9.715  0.6843  0.0410  0.8432
  105OSM   H12T10724   0.476   1.064   9.745  1.3371 -0.4094 -0.0147
  105OSM   C13S10725   0.528   1.144   9.547  0.2468  0.6920 -0.1397
  105OSM   H13S10726   0.599   1.063   9.521  2.1509  1.8999  1.2295
  105OSM   H13T10727   0.574   1.232   9.496  2.0768 -0.1704 -0.0170
  105OSM   C14S10728   0.398   1.132   9.467  0.0756 -0.5851  0.1745
  105OSM   H14S10729   0.326   1.213   9.491  0.4646  0.0553 -0.7952
  105OSM   H14T10730   0.342   1.040   9.495 -0.5928 -0.0352  0.6722
  105OSM   C15S10731   0.415   1.135   9.312 -0.0152 -0.5566  0.4107
  105OSM   H15S10732   0.495   1.059   9.297  0.2094 -0.0905 -0.8010
  105OSM   H15T10733   0.439   1.239   9.282  0.9996 -1.2555 -1.2597
  105OSM   C16S10734   0.290   1.086   9.243 -0.2524  0.1042 -0.3039
  105OSM   H16S10735   0.253   0.990   9.285  2.1249  0.1329  1.9654
  105OSM   H16T10736   0.332   1.051   9.146 -1.2820 -4.0788  0.6258
  105OSM   C17S10737   0.169   1.184   9.232 -0.4623 -0.1300  0.3131
  105OSM   H17S10738   0.185   1.263   9.308 -0.5947  0.0316  0.1723
  105OSM   H17T10739   0.082   1.118   9.255 -0.4152 -0.6329 -0.8958
  105OSM   C18S10740   0.172   1.264   9.098 -0.1821  0.2143 -0.0751
  105OSM   H18S10741   0.099   1.348   9.101  0.3090  0.6570 -0.4495
  105OSM   H18T10742   0.155   1.210   9.002  1.6525  1.2596 -0.9995
  105OSM   H18U10743   0.275   1.306   9.096  1.2692 -3.1239  0.9802
  105OSM    C1F10744   1.285   1.242  10.295 -0.2172 -0.7116  0.2455
  105OSM     OF10745   1.293   1.144  10.368  0.4288 -0.0325 -0.1563
  105OSM    C2F10746   1.327   1.247  10.147 -0.0989 -0.4021  0.3150
  105OSM    H2F10747   1.437   1.233  10.137 -0.2367 -0.8065 -0.6879
  105OSM    H2G10748   1.302   1.349  10.110 -0.5432 -0.5888  0.0989
  105OSM    C3F10749   1.251   1.143  10.056 -0.0096 -0.1435 -0.5794
  105OSM    H3F10750   1.275   1.036  10.076  0.2662  0.0960  0.3654
  105OSM    H3G10751   1.296   1.167   9.957  0.7631 -0.6438 -0.3632
  105OSM    C4F10752   1.098   1.164  10.056 -0.1158  1.5395 -0.2117
  105OSM    H4F10753   1.077   1.273  10.063 -0.2394  1.5814 -1.1330
  105OSM    H4G10754   1.053   1.112  10.143 -0.6855  0.5689 -1.0740
  105OSM    C5F10755   1.032   1.110   9.930 -0.0949 -0.7088  0.0417
  105OSM    H5F10756   0.923   1.107   9.949 -0.2045  2.6083  0.2537
  105OSM    H5G10757   1.069   1.008   9.905 -1.6629 -1.3038  0.1279
  105OSM    C6F10758   1.059   1.192   9.802 -0.3771  0.8847  0.2040
  105OSM    H6F10759   1.168   1.191   9.781  0.1056 -0.8207  2.5766
  105OSM    H6G10760   1.022   1.292   9.835 -2.9955 -0.1228  0.4292
  105OSM    C7F10761   0.979   1.135   9.683 -0.1657  0.3133 -0.4062
  105OSM    H7F10762   0.870   1.138   9.704  0.5754  1.9747  3.8411
  105OSM    H7G10763   0.983   1.025   9.673  1.5869  0.1212  1.7565
  105OSM    C8F10764   1.004   1.207   9.553  0.8375 -1.0381  0.0232
  105OSM    H8F10765   1.115   1.217   9.546  0.7510 -1.0687 -1.4709
  105OSM    H8G10766   0.950   1.303   9.567  1.0310 -0.9515  0.1833
  105OSM    C9F10767   0.941   1.119   9.442 -0.5757 -0.3102  1.2167
  105OSM    H9F10768   0.988   1.020   9.432 -0.3071 -0.1128  0.4974
  105OSM   C10F10769   0.859   1.159   9.341  0.2130  0.9498 -0.7141
  105OSM   H10F10770   0.817   1.076   9.282 -0.3307  1.0814 -0.5111
  105OSM   C11F10771   0.801   1.292   9.330  0.1723  0.5984 -0.2781
  105OSM   H11F10772   0.811   1.353   9.422 -4.3893 -0.0176  0.7392
  105OSM   H11G10773   0.692   1.268   9.324  0.1566  0.8925 -1.2534
  105OSM   C12F10774   0.851   1.383   9.210  0.1040  0.5697 -0.0570
  105OSM   H12F10775   0.916   1.459   9.257  1.2875  0.8335 -2.0587
  105OSM   H12G10776   0.764   1.436   9.165  1.2600  2.0539 -0.5794
  105OSM   C13F10777   0.930   1.301   9.097 -0.0282 -0.5258 -1.4743
  105OSM   H13F10778   0.871   1.207   9.087 -1.2586  0.4109 -3.3081
  105OSM   H13G10779   1.038   1.285   9.117 -0.5961 -0.3933  1.9429
  105OSM   C14F10780   0.925   1.365   8.956  0.3357 -0.4756 -0.7582
  105OSM   H14F10781   0.975   1.464   8.962  0.8297 -0.7704  0.0390
  105OSM   H14G10782   0.816   1.359   8.934  0.0883 -0.3356  0.4036
  105OSM   C15F10783   1.014   1.281   8.863 -0.4545  0.1333  0.1337
  105OSM   H15F10784   0.983   1.176   8.844  0.0754 -0.0213  0.0929
  105OSM   H15G10785   1.119   1.269   8.897 -0.5637 -0.9199  0.1306
  105OSM   C16F10786   1.011   1.347   8.720 -0.0260 -0.0423  0.4638
  105OSM   H16F10787   1.086   1.429   8.722 -0.4010  0.3032  0.1380
  105OSM   H16G10788   0.915   1.393   8.691  1.2077  2.1299 -0.3080
  105OSM   C17F10789   1.048   1.249   8.605  0.3334  0.4691  0.5560
  105OSM   H17F10790   1.040   1.300   8.507 -3.4294  1.8662  1.5230
  105OSM   H17G10791   0.983   1.159   8.598 -0.4087  1.0115  0.4509
  105OSM   C18F10792   1.190   1.182   8.614  0.3832  0.0569 -0.3912
  105OSM   H18F10793   1.213   1.159   8.721 -1.3537  0.5034  0.0952
  105OSM   H18G10794   1.267   1.252   8.577  0.2393 -0.3414 -1.4659
  105OSM   H18H10795   1.196   1.093   8.547 -1.3103 -1.3326  1.2306
  106OSM      N10796   1.468   6.601  10.873 -1.1878  0.0937 -0.5379
  106OSM    C1510797   1.496   6.731  10.947 -0.0484  0.5998  0.8986
  106OSM   H15A10798   1.593   6.727  10.995 -0.4280  1.1746  1.7169
  106OSM   H15B10799   1.433   6.748  11.032 -0.9671 -2.5693  0.9052
  106OSM   H15C10800   1.491   6.820  10.886 -0.7873 -0.4429 -0.6082
  106OSM    C1410801   1.505   6.487  10.960  0.8790  0.3889  0.1523
  106OSM   H14A10802   1.493   6.403  10.894 -1.3974  0.0260  0.9736
  106OSM   H14B10803   1.433   6.486  11.041  0.9032 -2.2871  0.1964
  106OSM   H14C10804   1.602   6.498  11.006  0.5221  0.3912  0.9260
  106OSM    C1310805   1.316   6.592  10.858  0.0742 -0.7722  0.2614
  106OSM   H13A10806   1.259   6.594  10.950  1.0399 -0.6275  0.8524
  106OSM   H13B10807   1.282   6.498  10.817  0.3677 -1.5178  1.6987
  106OSM   H13C10808   1.277   6.681  10.810  2.2142  0.7737  1.3436
  106OSM    C1210809   1.530   6.597  10.734  0.5819 -0.1514 -0.4369
  106OSM   H12A10810   1.632   6.633  10.741  0.1270  0.9228  0.8369
  106OSM   H12B10811   1.484   6.673  10.673 -2.3672  0.9258  2.9241
  106OSM    C1110812   1.522   6.466  10.655 -0.2867 -0.5929  0.0747
  106OSM   H11A10813   1.550   6.500  10.554  1.4941  3.3061  1.7746
  106OSM   H11B10814   1.419   6.426  10.660 -0.1454 -1.3187 -2.4445
  106OSM      P10815   1.771   6.377  10.685 -0.1478 -0.0330 -0.3695
  106OSM    O1310816   1.811   6.505  10.622 -0.5523  0.0836  0.0082
  106OSM    O1410817   1.827   6.341  10.818 -0.0029  0.1496 -0.4311
  106OSM    O1110818   1.802   6.260  10.583 -0.3175  0.0605  0.6599
  106OSM    O1210819   1.614   6.367  10.697 -0.0125  0.2411 -0.8837
  106OSM    C1S10820   1.783   6.281  10.446  0.2253  0.1549 -0.7385
  106OSM    H1S10821   1.815   6.382  10.411 -0.9198  0.5588 -0.6668
  106OSM    H1T10822   1.674   6.275  10.425 -0.0220 -0.5870  0.6671
  106OSM     NF10823   1.783   6.220  10.212 -0.3320 -0.4439  0.2910
  106OSM    HNF10824   1.712   6.166  10.168 -1.5759  0.4728  1.1490
  106OSM    C2S10825   1.838   6.181  10.342 -0.5285 -0.3616 -0.3691
  106OSM    H2S10826   1.949   6.190  10.342 -0.5209 -0.2415 -2.0434
  106OSM    C3S10827   1.795   6.035  10.384  0.0843 -0.3334 -0.7303
  106OSM    H3S10828   1.686   6.037  10.401  0.6001 -0.5197  3.0601
  106OSM     O310829   1.838   5.997  10.515 -0.3377  0.0027  0.3848
  106OSM    HO310830   1.836   6.079  10.565  1.1748 -0.1010  0.6556
  106OSM    C4S10831   1.832   5.945  10.276 -0.5990 -0.2777  0.2327
  106OSM    H4S10832   1.747   5.917  10.211  0.8116  0.3306 -1.9431
  106OSM    C5S10833   1.955   5.904  10.245  0.1371  0.1927  0.1618
  106OSM    H5S10834   2.035   5.933  10.316  1.0166 -3.3846  0.7312
  106OSM    C6S10835   1.994   5.805  10.136  0.0781 -0.5415  0.2770
  106OSM    H6S10836   1.926   5.718  10.124 -2.9607  1.5480  1.6541
  106OSM    H6T10837   2.096   5.775  10.166 -0.1964 -1.2902  0.4858
  106OSM    C7S10838   2.012   5.881  10.002 -0.5300 -0.1386  0.0715
  106OSM    H7S10839   2.076   5.823   9.933 -0.5447 -1.5407  1.2303
  106OSM    H7T10840   2.054   5.983  10.017 -1.1951  0.1599 -0.0658
  106OSM    C8S10841   1.880   5.910   9.920  0.1954 -0.8429 -0.1968
  106OSM    H8S10842   1.804   5.967   9.978 -2.7257 -2.9909 -1.7875
  106OSM    H8T10843   1.829   5.820   9.879 -0.9748  0.1184 -0.9107
  106OSM    C9S10844   1.917   5.992   9.791 -0.2184 -0.5482  0.3424
  106OSM    H9S10845   1.990   5.942   9.724  1.9200  0.6081  1.7231
  106OSM    H9T10846   1.969   6.082   9.832  0.0850  0.9283 -3.1359
  106OSM   C10S10847   1.795   6.036   9.707 -0.3212 -0.0697  0.6003
  106OSM   H10S10848   1.801   6.142   9.675 -1.3676  0.0115  0.6333
  106OSM   H10T10849   1.704   6.022   9.770 -0.8103  0.6585  0.0583
  106OSM   C11S10850   1.781   5.963   9.576 -0.4337 -0.2451 -0.7259
  106OSM   H11S10851   1.769   5.854   9.592  0.7662 -0.6786 -2.6572
  106OSM   H11T10852   1.877   5.989   9.526  0.1202  2.9201  1.7926
  106OSM   C12S10853   1.656   6.003   9.503  0.3021 -0.6942 -0.1643
  106OSM   H12S10854   1.624   6.108   9.523  3.4062  0.2288  0.3590
  106OSM   H12T10855   1.569   5.943   9.537  0.1789 -2.1380 -2.9655
  106OSM   C13S10856   1.668   6.002   9.348 -0.6897  0.2420  0.0367
  106OSM   H13S10857   1.712   5.905   9.317 -2.0099  0.7629 -3.7670
  106OSM   H13T10858   1.751   6.072   9.324 -1.0459 -0.0520 -2.1388
  106OSM   C14S10859   1.546   6.044   9.275  0.5564 -0.0125 -0.5332
  106OSM   H14S10860   1.538   6.154   9.286  1.2030 -0.0702  0.6667
  106OSM   H14T10861   1.453   5.998   9.316  1.6790  0.4018  2.6730
  106OSM   C15S10862   1.550   6.021   9.125 -0.1770  0.3278  0.3805
  106OSM   H15S10863   1.648   6.054   9.086  0.0314  0.3123  0.8874
  106OSM   H15T10864   1.472   6.083   9.077 -0.1250  1.8129  2.1351
  106OSM   C16S10865   1.525   5.877   9.092  0.3334  0.4142  0.0771
  106OSM   H16S10866   1.416   5.856   9.085  0.5354 -0.9817  0.9831
  106OSM   H16T10867   1.572   5.809   9.166  0.4957  0.3246 -0.1097
  106OSM   C17S10868   1.580   5.852   8.955  0.1854 -0.1907 -0.4327
  106OSM   H17S10869   1.691   5.863   8.958 -0.1040  2.3924  2.8287
  106OSM   H17T10870   1.552   5.932   8.883  2.2129  3.0144  2.1896
  106OSM   C18S10871   1.550   5.711   8.892  0.4347  0.5064 -0.0510
  106OSM   H18S10872   1.584   5.706   8.786  0.0325 -0.6053 -0.1325
  106OSM   H18T10873   1.445   5.676   8.899  0.3429  0.9786  1.0018
  106OSM   H18U10874   1.610   5.647   8.959 -0.7129  1.6536  2.1274
  106OSM    C1F10875   1.810   6.328  10.141  0.7545 -0.1249  0.4037
  106OSM     OF10876   1.876   6.419  10.190 -0.4645  0.0775  0.8401
  106OSM    C2F10877   1.768   6.334   9.996  0.1628 -0.0394  0.1966
  106OSM    H2F10878   1.784   6.231   9.957  0.5365 -0.8030  2.2828
  106OSM    H2G10879   1.833   6.408   9.945 -2.0132  0.2725 -2.2197
  106OSM    C3F10880   1.623   6.371   9.976  0.3391 -0.5559  0.5351
  106OSM    H3F10881   1.632   6.481   9.973 -0.7626 -0.4192  1.6805
  106OSM    H3G10882   1.565   6.352  10.069  0.4436  1.9085  1.1196
  106OSM    C4F10883   1.539   6.295   9.867 -0.1230 -0.3091 -0.1538
  106OSM    H4F10884   1.549   6.188   9.896 -1.3690 -1.0536 -2.3472
  106OSM    H4G10885   1.578   6.319   9.766 -0.8738  0.6010 -0.2411
  106OSM    C5F10886   1.395   6.336   9.873  0.2680  0.0311 -0.6856
  106OSM    H5F10887   1.387   6.437   9.827 -0.8850 -1.3516 -3.6093
  106OSM    H5G10888   1.364   6.348   9.979 -1.9718 -0.6691 -1.2479
  106OSM    C6F10889   1.287   6.242   9.829 -0.3733  0.7074  0.6218
  106OSM    H6F10890   1.293   6.138   9.868 -1.6439  0.6799  0.7478
  106OSM    H6G10891   1.301   6.227   9.720  1.1548  0.4663  0.8429
  106OSM    C7F10892   1.150   6.310   9.844  0.1510  0.2842  0.6364
  106OSM    H7F10893   1.150   6.404   9.785  1.3738  0.9525  1.6701
  106OSM    H7G10894   1.146   6.338   9.952 -1.7171 -0.0758  0.6725
  106OSM    C8F10895   1.030   6.216   9.814  0.1771 -0.4114 -0.2784
  106OSM    H8F10896   1.016   6.130   9.883  0.0673 -0.3826 -0.2661
  106OSM    H8G10897   1.052   6.167   9.717 -0.1818 -1.8749  0.3660
  106OSM    C9F10898   0.894   6.285   9.815 -0.1118 -0.1117 -1.1642
  106OSM    H9F10899   0.887   6.361   9.894  0.7527  0.9482 -2.0775
  106OSM   C10F10900   0.805   6.280   9.716 -0.4139 -0.0970  0.4406
  106OSM   H10F10901   0.711   6.334   9.735 -0.3809  0.6131 -1.3748
  106OSM   C11F10902   0.817   6.218   9.580 -0.3603  0.0744 -0.7055
  106OSM   H11F10903   0.924   6.198   9.557  0.0209  1.2053  0.0576
  106OSM   H11G10904   0.785   6.285   9.497 -2.7131  0.4493  0.4675
  106OSM   C12F10905   0.729   6.087   9.574 -0.5520 -0.4100 -0.4910
  106OSM   H12F10906   0.626   6.114   9.605 -0.1018  0.0401  0.6157
  106OSM   H12G10907   0.771   6.010   9.643  2.3446  0.1500 -1.5823
  106OSM   C13F10908   0.719   6.016   9.432 -0.0133 -0.0985 -0.8060
  106OSM   H13F10909   0.647   5.932   9.437  1.8168 -1.5810  1.9104
  106OSM   H13G10910   0.825   5.990   9.411  0.1010  0.1315 -0.5212
  106OSM   C14F10911   0.687   6.116   9.328  0.0528  0.4494 -0.5701
  106OSM   H14F10912   0.760   6.198   9.312 -0.4160  0.6066 -1.9968
  106OSM   H14G10913   0.596   6.171   9.363 -0.1432  0.0469 -0.4478
  106OSM   C15F10914   0.653   6.041   9.201  0.1215 -0.1151 -0.6238
  106OSM   H15F10915   0.545   6.015   9.198  0.1406 -0.3044  0.1805
  106OSM   H15G10916   0.702   5.941   9.192  1.1656 -0.2440  4.7872
  106OSM   C16F10917   0.687   6.116   9.076  0.1662 -0.1515 -0.1915
  106OSM   H16F10918   0.796   6.116   9.058  0.5210  0.3621  1.9015
  106OSM   H16G10919   0.644   6.218   9.085 -0.7730 -0.3570 -2.0494
  106OSM   C17F10920   0.632   6.046   8.957 -0.2426 -0.2651  0.4047
  106OSM   H17F10921   0.646   6.120   8.875 -2.1916 -0.5672 -0.2254
  106OSM   H17G10922   0.525   6.019   8.964 -0.1754 -0.9968 -1.1140
  106OSM   C18F10923   0.714   5.916   8.926 -0.2567 -0.7470  0.1037
  106OSM   H18F10924   0.737   5.847   9.009  0.5778 -2.0803 -1.2145
  106OSM   H18G10925   0.814   5.947   8.889 -1.0503 -0.5805 -1.9516
  106OSM   H18H10926   0.664   5.855   8.848  0.5885 -2.2394  0.7111
  107OSM      N10927   3.228   4.134  11.159  0.0938  0.3565 -1.0005
  107OSM    C1510928   3.303   4.268  11.147 -0.2700 -0.1077  0.9938
  107OSM   H15A10929   3.365   4.292  11.233  1.2001  1.3748 -0.4296
  107OSM   H15B10930   3.231   4.347  11.137  0.3668  0.3369 -0.1433
  107OSM   H15C10931   3.363   4.271  11.057  0.2067  1.3154  1.3445
  107OSM    C1410932   3.331   4.025  11.173 -0.1538  0.3321  0.0955
  107OSM   H14A10933   3.405   4.031  11.095  0.4814 -0.4366  0.6210
  107OSM   H14B10934   3.289   3.926  11.167  0.8550 -0.0472 -0.8667
  107OSM   H14C10935   3.386   4.026  11.266  0.0008 -0.3564  0.0143
  107OSM    C1310936   3.141   4.143  11.277 -0.1761 -0.1753 -0.1435
  107OSM   H13A10937   3.066   4.220  11.266 -1.5429 -1.1659  2.1492
  107OSM   H13B10938   3.205   4.167  11.360 -3.6720  2.7612  1.8474
  107OSM   H13C10939   3.092   4.048  11.292 -1.6893  0.6404  0.1961
  107OSM    C1210940   3.140   4.113  11.039 -0.3024 -0.2851 -0.6446
  107OSM   H12A10941   3.209   4.107  10.956 -0.0090 -1.6634 -0.3036
  107OSM   H12B10942   3.071   4.196  11.034 -0.5239 -0.3057  1.4407
  107OSM    C1110943   3.034   3.994  11.048 -0.3953 -0.7148  0.0437
  107OSM   H11A10944   3.077   3.903  11.094 -0.4055  0.7572  3.0756
  107OSM   H11B10945   2.999   3.976  10.944 -4.2222  1.9556  0.7528
  107OSM      P10946   2.827   4.153  11.068  0.3246  0.3211  0.2463
  107OSM    O1310947   2.689   4.130  11.117 -0.2932 -0.2730  0.1638
  107OSM    O1410948   2.897   4.283  11.098  0.7267 -0.2678  0.2811
  107OSM    O1110949   2.828   4.139  10.912 -1.0558  0.5321 -0.3932
  107OSM    O1210950   2.920   4.035  11.124  0.1227 -0.0449 -0.2996
  107OSM    C1S10951   2.738   4.053  10.845 -0.0633  0.9824 -1.0336
  107OSM    H1S10952   2.637   4.069  10.888 -1.0331 -1.5342 -2.3243
  107OSM    H1T10953   2.760   3.945  10.858 -1.8697  0.8649  1.3616
  107OSM     NF10954   2.602   3.990  10.637 -0.2239  0.4188 -0.1885
  107OSM    HNF10955   2.626   3.920  10.570  1.2970  1.0221 -0.2929
  107OSM    C2S10956   2.706   4.073  10.696 -0.7316 -0.6300  0.8152
  107OSM    H2S10957   2.659   4.173  10.686 -0.9445 -0.8029  0.0138
  107OSM    C3S10958   2.838   4.083  10.605  0.0171  0.1550  0.1105
  107OSM    H3S10959   2.892   3.985  10.607  0.7430  0.5506 -0.0008
  107OSM     O310960   2.937   4.178  10.645  0.5049  0.6864 -0.7336
  107OSM    HO310961   2.897   4.210  10.726 -0.5248 -1.3616 -0.4031
  107OSM    C4S10962   2.796   4.116  10.473  0.0243  0.2351  0.7790
  107OSM    H4S10963   2.710   4.184  10.462 -0.2915 -0.6757 -3.0069
  107OSM    C5S10964   2.846   4.070  10.361  0.3067 -0.0791 -0.4232
  107OSM    H5S10965   2.937   4.007  10.364 -0.0276 -0.6050 -1.2532
  107OSM    C6S10966   2.796   4.107  10.225  0.2228 -0.3431  0.3343
  107OSM    H6S10967   2.713   4.181  10.226  0.4366  0.0112 -2.8093
  107OSM    H6T10968   2.754   4.013  10.183  0.8183 -1.3640  1.9972
  107OSM    C7S10969   2.907   4.148  10.129 -0.8331  0.1344 -0.6109
  107OSM    H7S10970   2.995   4.080  10.130  0.5584  1.9258  0.1000
  107OSM    H7T10971   2.951   4.243  10.167  1.2026 -2.0784  2.8193
  107OSM    C8S10972   2.840   4.164   9.993 -0.2039  0.1952  0.0968
  107OSM    H8S10973   2.749   4.223  10.020 -0.1982  0.3679 -0.2564
  107OSM    H8T10974   2.807   4.065   9.955 -1.5468 -0.5681  3.0518
  107OSM    C9S10975   2.919   4.228   9.886 -0.5571 -0.3238 -1.1858
  107OSM    H9S10976   3.007   4.162   9.873 -2.1793 -2.6359 -0.6425
  107OSM    H9T10977   2.958   4.330   9.909  2.5068 -1.4607 -1.2282
  107OSM   C10S10978   2.849   4.241   9.751 -0.0213  0.6220 -0.2466
  107OSM   H10S10979   2.751   4.294   9.757 -0.1459  0.3465  0.2148
  107OSM   H10T10980   2.812   4.143   9.713 -1.2607  0.6256  0.8862
  107OSM   C11S10981   2.926   4.303   9.630  0.3267 -0.4539 -0.9898
  107OSM   H11S10982   3.018   4.250   9.600  1.0824 -0.2907  1.0015
  107OSM   H11T10983   2.959   4.408   9.644  0.8342 -0.9661  2.0109
  107OSM   C12S10984   2.831   4.307   9.507 -0.5085  0.1996  0.1106
  107OSM   H12S10985   2.739   4.359   9.541 -0.8818 -0.0571 -0.4827
  107OSM   H12T10986   2.799   4.212   9.458  0.0369  0.3742 -0.5968
  107OSM   C13S10987   2.889   4.377   9.386  0.3838 -0.4282  0.1167
  107OSM   H13S10988   2.937   4.473   9.418 -1.3063  1.4297 -2.6755
  107OSM   H13T10989   2.809   4.411   9.317  0.3921  1.5073  1.0143
  107OSM   C14S10990   2.985   4.287   9.304 -0.7898  0.2558 -0.1003
  107OSM   H14S10991   2.937   4.194   9.267 -2.3063  0.0187  2.3788
  107OSM   H14T10992   3.066   4.252   9.371 -0.5772  0.9138 -0.0122
  107OSM   C15S10993   3.055   4.357   9.193  0.0001 -0.2714  0.5365
  107OSM   H15S10994   3.130   4.283   9.156 -0.8198 -0.4414 -0.8019
  107OSM   H15T10995   3.112   4.451   9.211  0.1843 -0.4007  0.6329
  107OSM   C16S10996   2.958   4.395   9.071  0.1939  1.1415 -0.9341
  107OSM   H16S10997   2.882   4.470   9.101 -0.6535  0.4965 -1.4309
  107OSM   H16T10998   2.905   4.304   9.035 -0.2816  1.3094 -0.6600
  107OSM   C17S10999   3.022   4.476   8.952 -0.7791 -0.9413 -0.7092
  107OSM   H17S11000   3.110   4.414   8.924  0.6054  1.0599 -0.9152
  107OSM   H17T11001   3.060   4.569   8.999 -0.3291 -1.3731 -0.2196
  107OSM   C18S11002   2.927   4.502   8.829 -0.3390 -0.4507  0.0304
  107OSM   H18S11003   2.842   4.565   8.863  0.4855  0.2782  0.7856
  107OSM   H18T11004   2.893   4.401   8.798  0.0493 -0.0943 -1.5690
  107OSM   H18U11005   2.986   4.539   8.743 -0.7429  2.8164  1.0818
  107OSM    C1F11006   2.471   4.003  10.672  0.6547  0.1478  0.0509
  107OSM     OF11007   2.448   4.090  10.753 -0.0796  0.2744 -1.0522
  107OSM    C2F11008   2.369   3.908  10.612  0.4570  0.4479  1.1966
  107OSM    H2F11009   2.283   3.891  10.681 -0.9298  1.9670 -0.1100
  107OSM    H2G11010   2.421   3.812  10.592  0.2522  0.3309  1.2261
  107OSM    C3F11011   2.314   3.965  10.475 -0.5048  0.1171  0.1260
  107OSM    H3F11012   2.245   4.052  10.481  1.7550  2.0116 -0.5586
  107OSM    H3G11013   2.247   3.887  10.433  0.1919 -0.9665  1.0108
  107OSM    C4F11014   2.427   4.000  10.366  0.2998  0.4872  0.1042
  107OSM    H4F11015   2.502   3.918  10.360  1.9130  2.0296 -1.8829
  107OSM    H4G11016   2.490   4.088  10.394  1.3110 -0.1097 -0.2739
  107OSM    C5F11017   2.368   4.013  10.229  0.1764 -0.4914  0.2750
  107OSM    H5F11018   2.286   4.085  10.252 -0.1025 -0.2369 -1.4194
  107OSM    H5G11019   2.323   3.916  10.197  2.1712 -1.6882  1.0050
  107OSM    C6F11020   2.454   4.059  10.113 -0.0606  0.0626 -0.2260
  107OSM    H6F11021   2.535   3.986  10.092  0.3337  0.8879 -1.7048
  107OSM    H6G11022   2.509   4.152  10.136 -2.3698  1.1108  1.2328
  107OSM    C7F11023   2.377   4.081   9.984  0.6361 -0.1814  0.0672
  107OSM    H7F11024   2.287   4.141  10.011  0.2853  0.2721 -2.0313
  107OSM    H7G11025   2.337   3.989   9.937  1.0686 -0.5521  0.4177
  107OSM    C8F11026   2.464   4.171   9.895 -0.3399 -0.6926 -0.1139
  107OSM    H8F11027   2.551   4.111   9.858 -1.8564 -1.4124 -2.6332
  107OSM    H8G11028   2.514   4.254   9.949 -0.5421  1.4704 -3.1386
  107OSM    C9F11029   2.381   4.224   9.784 -0.7132  0.2804  0.1024
  107OSM    H9F11030   2.302   4.291   9.820 -0.2243  1.1904 -0.5118
  107OSM   C10F11031   2.398   4.216   9.655 -0.5943 -0.2659  0.2075
  107OSM   H10F11032   2.323   4.254   9.584  0.7199  2.2645  0.1420
  107OSM   C11F11033   2.498   4.131   9.588 -0.5420  0.8182  0.3380
  107OSM   H11F11034   2.519   4.033   9.636 -1.1428  1.0258  1.0262
  107OSM   H11G11035   2.594   4.187   9.593  0.7500 -1.2739 -0.4081
  107OSM   C12F11036   2.463   4.117   9.442 -0.1760  0.2354 -0.3129
  107OSM   H12F11037   2.358   4.084   9.425 -0.2857  1.9554 -3.2969
  107OSM   H12G11038   2.531   4.044   9.392 -1.4046 -0.4192 -1.0593
  107OSM   C13F11039   2.478   4.243   9.356  0.0881  0.2771  0.3701
  107OSM   H13F11040   2.576   4.287   9.380  0.9414 -2.2325  1.7166
  107OSM   H13G11041   2.391   4.309   9.375 -0.1728 -0.4657  1.7974
  107OSM   C14F11042   2.483   4.217   9.206  0.2332 -0.3862  0.3907
  107OSM   H14F11043   2.555   4.134   9.195  1.7484  0.7716  1.3161
  107OSM   H14G11044   2.525   4.306   9.154 -1.6821  1.1762  1.4447
  107OSM   C15F11045   2.353   4.179   9.146  0.4209  1.0476  0.5580
  107OSM   H15F11046   2.269   4.251   9.162 -0.8734 -0.8103  2.4154
  107OSM   H15G11047   2.325   4.087   9.202  1.5430 -0.0649 -0.6688
  107OSM   C16F11048   2.371   4.141   8.990 -1.0048 -0.1589 -0.4166
  107OSM   H16F11049   2.455   4.070   8.973 -1.8051 -1.5926  1.4477
  107OSM   H16G11050   2.392   4.235   8.934  0.6208  0.0002  0.4331
  107OSM   C17F11051   2.252   4.075   8.938 -0.1983 -0.2924 -0.0764
  107OSM   H17F11052   2.165   4.144   8.931  0.1267  0.1847  0.5367
  107OSM   H17G11053   2.237   3.984   8.999 -2.9110  0.0816 -0.1394
  107OSM   C18F11054   2.282   4.020   8.799  0.3318  0.8603  0.1078
  107OSM   H18F11055   2.298   4.102   8.725  3.1240 -1.8383 -2.3922
  107OSM   H18G11056   2.189   3.979   8.756  0.7884  3.0966 -3.1855
  107OSM   H18H11057   2.359   3.940   8.805 -2.3526 -1.6872  1.7445
  108OSM      N11058   6.363   0.966  11.263  0.5885 -0.4654  0.4216
  108OSM    C1511059   6.480   0.978  11.169 -0.5978 -0.0627 -0.2938
  108OSM   H15A11060   6.458   1.023  11.074  0.1089  0.0658 -0.3960
  108OSM   H15B11061   6.521   0.879  11.153  0.5221  0.1436  1.1757
  108OSM   H15C11062   6.562   1.032  11.213  0.4993 -1.6059 -0.4233
  108OSM    C1411063   6.407   0.891  11.389 -0.1566 -0.8412  0.1756
  108OSM   H14A11064   6.472   0.959  11.442 -1.3182 -0.5140  1.2054
  108OSM   H14B11065   6.454   0.799  11.358 -1.9898 -2.0797  0.9713
  108OSM   H14C11066   6.315   0.872  11.442  0.0527 -2.7257 -0.0949
  108OSM    C1311067   6.303   1.094  11.315 -0.2520  0.0401  0.2740
  108OSM   H13A11068   6.215   1.077  11.374 -0.3543  0.3469  0.2146
  108OSM   H13B11069   6.294   1.158  11.228  1.6421 -0.9289 -0.6555
  108OSM   H13C11070   6.379   1.147  11.371  0.6671  1.8504 -2.5641
  108OSM    C1211071   6.258   0.890  11.190  0.2499 -0.8488 -0.1373
  108OSM   H12A11072   6.175   0.880  11.258  1.5386 -1.7729  1.3196
  108OSM   H12B11073   6.293   0.790  11.168  2.5801 -0.0015 -0.3832
  108OSM    C1111074   6.208   0.947  11.050  0.1195  0.1884  0.0365
  108OSM   H11A11075   6.174   1.051  11.064 -0.8531 -0.1861  0.5021
  108OSM   H11B11076   6.121   0.886  11.018 -0.9145  1.8583 -0.3398
  108OSM      P11077   6.322   0.817  10.865  0.1742 -0.2837 -0.1128
  108OSM    O1311078   6.437   0.829  10.774 -0.3205  0.0672  0.0550
  108OSM    O1411079   6.321   0.707  10.962  0.5561  0.7352  0.5122
  108OSM    O1111080   6.193   0.811  10.774  0.3822 -0.1076 -0.7099
  108OSM    O1211081   6.310   0.952  10.949  0.5186 -0.4548 -0.0609
  108OSM    C1S11082   6.156   0.919  10.692  0.3131 -0.5915  0.0113
  108OSM    H1S11083   6.177   1.015  10.744  0.9429 -0.1989 -0.9600
  108OSM    H1T11084   6.047   0.915  10.675  0.7234 -0.8859 -2.9301
  108OSM     NF11085   6.188   1.035  10.476 -0.5945  0.0917  0.6517
  108OSM    HNF11086   6.146   1.035  10.386 -1.4958 -0.1514  1.0622
  108OSM    C2S11087   6.214   0.909  10.547 -0.2841 -0.7461 -0.7110
  108OSM    H2S11088   6.325   0.902  10.556 -0.4470 -1.4395  1.0051
  108OSM    C3S11089   6.159   0.788  10.473 -0.5258  0.4646 -0.4855
  108OSM    H3S11090   6.051   0.802  10.452 -0.5125  0.5720 -0.4832
  108OSM     O311091   6.167   0.660  10.542  0.6855 -0.3319 -0.1330
  108OSM    HO311092   6.170   0.686  10.634 -3.8253  0.0369  0.0339
  108OSM    C4S11093   6.224   0.786  10.334  0.2052 -1.0110  0.1481
  108OSM    H4S11094   6.187   0.868  10.272  0.4462  2.0871  3.8918
  108OSM    C5S11095   6.321   0.707  10.285 -0.1109  0.8845  0.8957
  108OSM    H5S11096   6.366   0.644  10.363  0.0717  1.3901  1.2040
  108OSM    C6S11097   6.383   0.726  10.146 -0.0951 -0.4974  0.7079
  108OSM    H6S11098   6.385   0.631  10.088  0.1027 -2.1432  3.3474
  108OSM    H6T11099   6.491   0.748  10.161 -0.2458  1.0781 -0.4155
  108OSM    C7S11100   6.331   0.832  10.044 -0.4445  0.1048  0.0415
  108OSM    H7S11101   6.286   0.913  10.104 -0.3521  0.2840 -0.1283
  108OSM    H7T11102   6.243   0.800   9.984 -0.1577 -0.2982 -0.1656
  108OSM    C8S11103   6.436   0.893   9.945 -0.0222  0.4272 -0.5351
  108OSM    H8S11104   6.479   0.809   9.886 -0.4881 -0.6904  0.6835
  108OSM    H8T11105   6.531   0.919   9.996  0.2765  1.0341 -1.3943
  108OSM    C9S11106   6.386   1.013   9.866  0.3073  0.0456  0.7604
  108OSM    H9S11107   6.478   1.055   9.821 -0.3579  1.1463  0.3931
  108OSM    H9T11108   6.336   1.085   9.935 -2.4599  1.6382 -2.7085
  108OSM   C10S11109   6.299   0.983   9.748 -0.1761  0.0483  0.6701
  108OSM   H10S11110   6.213   0.924   9.787 -0.4983  0.6839  0.9207
  108OSM   H10T11111   6.341   0.904   9.682 -0.8660  1.1578 -1.1178
  108OSM   C11S11112   6.262   1.101   9.661  0.0613  0.4211 -0.4965
  108OSM   H11S11113   6.358   1.138   9.618  1.2519 -0.2240  1.5337
  108OSM   H11T11114   6.200   1.174   9.717  1.3070  0.6903  0.5800
  108OSM   C12S11115   6.182   1.047   9.537 -0.5215  0.0923  0.9700
  108OSM   H12S11116   6.096   0.989   9.576  0.4914 -1.9279  0.2866
  108OSM   H12T11117   6.235   0.971   9.476 -4.0397 -0.0124 -2.0989
  108OSM   C13S11118   6.136   1.147   9.430  0.3757 -0.1702 -0.3122
  108OSM   H13S11119   6.082   1.230   9.479 -0.3642 -0.5956 -0.3912
  108OSM   H13T11120   6.061   1.100   9.364  1.3134  0.5213 -1.8840
  108OSM   C14S11121   6.238   1.200   9.331  0.2553 -0.2233 -0.3893
  108OSM   H14S11122   6.310   1.118   9.308  0.8889  0.2426 -0.0946
  108OSM   H14T11123   6.311   1.271   9.376  1.1243 -1.5480  0.3408
  108OSM   C15S11124   6.169   1.246   9.201  0.1412 -0.1021  0.4798
  108OSM   H15S11125   6.244   1.292   9.134 -2.4156 -0.2646 -2.6108
  108OSM   H15T11126   6.100   1.328   9.231  0.7562 -0.1844  2.1706
  108OSM   C16S11127   6.112   1.140   9.106  0.1531  0.1447  1.2175
  108OSM   H16S11128   6.050   1.074   9.171  2.2403  0.0143  3.1341
  108OSM   H16T11129   6.193   1.087   9.051 -1.3971  0.6676 -1.6784
  108OSM   C17S11130   6.008   1.190   9.001 -0.1552  1.4144 -0.9330
  108OSM   H17S11131   6.052   1.260   8.927  1.8244 -0.0191 -1.1348
  108OSM   H17T11132   5.929   1.249   9.053  0.6191  1.9192 -0.3093
  108OSM   C18S11133   5.942   1.078   8.911  0.2998 -0.0107  0.4091
  108OSM   H18S11134   6.010   0.998   8.872  0.4573  0.8737 -1.2001
  108OSM   H18T11135   5.900   1.134   8.825 -0.4595 -0.7361  0.3001
  108OSM   H18U11136   5.858   1.031   8.966 -1.3137  2.1748 -0.1460
  108OSM    C1F11137   6.236   1.149  10.516 -0.7546 -0.1578  0.0853
  108OSM     OF11138   6.321   1.159  10.604  0.5340 -0.1682  0.4927
  108OSM    C2F11139   6.176   1.269  10.451 -0.3443 -0.0270  0.1762
  108OSM    H2F11140   6.113   1.321  10.527 -1.8605 -2.5356  0.7111
  108OSM    H2G11141   6.116   1.228  10.367 -0.6166  0.8139 -0.0373
  108OSM    C3F11142   6.281   1.364  10.390  0.1945  0.8083 -0.3358
  108OSM    H3F11143   6.328   1.407  10.481 -0.3102  3.1429 -1.1552
  108OSM    H3G11144   6.220   1.444  10.343  0.0592  1.4363  0.8924
  108OSM    C4F11145   6.376   1.309  10.285  0.9578 -0.0102  0.3390
  108OSM    H4F11146   6.325   1.220  10.242  1.3386 -0.8553  1.5941
  108OSM    H4G11147   6.460   1.265  10.343  0.9454 -2.5127 -1.4571
  108OSM    C5F11148   6.424   1.411  10.187 -0.1702 -0.1900 -0.3247
  108OSM    H5F11149   6.496   1.364  10.117  1.5872 -0.5826  1.6984
  108OSM    H5G11150   6.475   1.494  10.240  1.1011  0.4445 -2.4678
  108OSM    C6F11151   6.316   1.474  10.097  0.0878 -0.1909 -0.6326
  108OSM    H6F11152   6.276   1.565  10.146  1.9967 -1.5227  3.6221
  108OSM    H6G11153   6.237   1.397  10.102  0.2797 -0.3315  0.4035
  108OSM    C7F11154   6.364   1.481   9.952  0.5767  0.7160  0.4191
  108OSM    H7F11155   6.395   1.385   9.904  0.9863  2.3050 -2.6515
  108OSM    H7G11156   6.453   1.548   9.955  2.3511 -1.4614 -1.0198
  108OSM    C8F11157   6.258   1.557   9.868 -0.3409 -0.4849  0.0205
  108OSM    H8F11158   6.315   1.622   9.798 -0.3687 -0.1502  0.3090
  108OSM    H8G11159   6.214   1.644   9.921 -0.8427  0.4511 -1.8627
  108OSM    C9F11160   6.158   1.466   9.805  0.2137  0.3383 -0.0432
  108OSM    H9F11161   6.116   1.393   9.875 -0.7547 -0.1892 -1.1570
  108OSM   C10F11162   6.126   1.465   9.679  0.0527  0.3008 -0.6696
  108OSM   H10F11163   6.046   1.397   9.645 -1.7459 -0.6442  4.9874
  108OSM   C11F11164   6.167   1.551   9.570 -0.1069 -0.5876  0.1176
  108OSM   H11F11165   6.258   1.511   9.521  0.4108 -0.9303  1.3322
  108OSM   H11G11166   6.197   1.648   9.615 -0.3582 -1.1169  1.4621
  108OSM   C12F11167   6.055   1.560   9.454 -0.6434 -0.1253 -0.3383
  108OSM   H12F11168   5.960   1.541   9.508 -1.5827 -0.2856 -2.0434
  108OSM   H12G11169   6.062   1.467   9.395 -1.2055 -3.7032  4.9206
  108OSM   C13F11170   6.069   1.682   9.368 -0.0503 -1.0012 -0.4784
  108OSM   H13F11171   6.179   1.694   9.356  0.3765 -3.6170  0.3311
  108OSM   H13G11172   6.035   1.772   9.424 -0.9302 -2.4538  1.3896
  108OSM   C14F11173   5.997   1.658   9.238  0.1503  0.5580  0.8813
  108OSM   H14F11174   5.891   1.635   9.263 -0.8394  0.8466 -2.7937
  108OSM   H14G11175   6.039   1.568   9.189 -1.8509  1.5656 -2.8658
  108OSM   C15F11176   6.010   1.778   9.139 -0.6755  1.0643  0.3565
  108OSM   H15F11177   6.118   1.788   9.114 -0.1552 -0.7167  1.7377
  108OSM   H15G11178   5.980   1.871   9.191 -0.7516  1.1182  0.2150
  108OSM   C16F11179   5.928   1.748   9.017  0.8581  0.3415 -0.3931
  108OSM   H16F11180   5.828   1.726   9.060  1.8456 -1.8527  0.8565
  108OSM   H16G11181   5.972   1.659   8.969  1.0578 -1.6000  3.2155
  108OSM   C17F11182   5.924   1.864   8.916  0.6007 -0.2308  0.3167
  108OSM   H17F11183   5.872   1.820   8.828  0.5758  0.9774 -0.2785
  108OSM   H17G11184   6.021   1.899   8.875 -0.3359 -0.2610 -1.9937
  108OSM   C18F11185   5.852   1.989   8.948  0.3080  0.1108 -0.3100
  108OSM   H18F11186   5.880   2.028   9.048 -1.5092  0.1313  0.2056
  108OSM   H18G11187   5.742   1.982   8.961  0.0960  4.5127  1.1229
  108OSM   H18H11188   5.867   2.071   8.874 -1.9427 -0.5416 -1.5239
  109OSM      N11189   6.761   2.202  10.791  0.3413 -0.5644 -0.0031
  109OSM    C1511190   6.756   2.099  10.897 -0.7074 -0.2174 -1.1308
  109OSM   H15A11191   6.669   2.037  10.882 -2.6138  1.9864  0.3973
  109OSM   H15B11192   6.758   2.145  10.995  0.6924 -1.2395 -0.6649
  109OSM   H15C11193   6.839   2.030  10.893 -0.4681 -0.0499  0.3491
  109OSM    C1411194   6.748   2.138  10.659  0.3338 -0.0498  0.8364
  109OSM   H14A11195   6.818   2.057  10.649  1.1859  0.8426 -0.5081
  109OSM   H14B11196   6.786   2.204  10.583  0.5382 -0.4176  0.6196
  109OSM   H14C11197   6.643   2.116  10.645  0.3007  0.6226  0.0184
  109OSM    C1311198   6.651   2.297  10.820  0.2865 -0.8537  1.0655
  109OSM   H13A11199   6.658   2.378  10.749  0.1298 -0.2323  1.7553
  109OSM   H13B11200   6.661   2.354  10.911  1.9953 -0.0268  0.3831
  109OSM   H13C11201   6.553   2.253  10.825  0.1578 -0.5720  1.0212
  109OSM    C1211202   6.893   2.275  10.813  1.0326  0.2059  0.1083
  109OSM   H12A11203   6.904   2.302  10.917 -0.0157  0.6145  0.1221
  109OSM   H12B11204   6.868   2.366  10.760 -2.0463 -1.4913 -1.4745
  109OSM    C1111205   7.019   2.209  10.759 -1.6104  0.2476  0.7236
  109OSM   H11A11206   7.020   2.199  10.648 -2.7333  0.4331  0.6881
  109OSM   H11B11207   7.025   2.102  10.789 -0.0464  0.0363 -0.2788
  109OSM      P11208   7.228   2.372  10.728  0.0872  0.5150  0.1180
  109OSM    O1311209   7.233   2.512  10.781  0.0064 -0.2270  0.1438
  109OSM    O1411210   7.355   2.294  10.729 -0.5339  0.5497 -0.4517
  109OSM    O1111211   7.168   2.370  10.588 -0.2668  0.2083 -0.0708
  109OSM    O1211212   7.124   2.290  10.810 -0.2279  0.0386  0.2751
  109OSM    C1S11213   7.256   2.395  10.478  0.4666 -0.2054  0.4960
  109OSM    H1S11214   7.334   2.315  10.477  1.8732  1.1589 -0.5877
  109OSM    H1T11215   7.308   2.493  10.483 -1.2545  0.6938  1.0417
  109OSM     NF11216   7.280   2.410  10.231  0.0279 -0.6771  0.4653
  109OSM    HNF11217   7.286   2.500  10.188 -0.5351 -1.3715 -1.0742
  109OSM    C2S11218   7.180   2.392  10.336 -0.2944 -0.3712 -0.4610
  109OSM    H2S11219   7.140   2.288  10.327 -1.0711 -0.0061 -1.4012
  109OSM    C3S11220   7.074   2.498  10.330 -0.0453 -0.5922  0.2765
  109OSM    H3S11221   7.135   2.589  10.348  0.3468 -1.2787  2.6898
  109OSM     O311222   6.981   2.487  10.444 -0.0821  0.0079  0.3926
  109OSM    HO311223   7.024   2.429  10.507 -1.0779  0.2622  1.3321
  109OSM    C4S11224   6.992   2.496  10.206  0.0157 -0.0133  0.1164
  109OSM    H4S11225   6.937   2.405  10.177 -1.4733  0.1782  2.1844
  109OSM    C5S11226   7.003   2.593  10.106 -0.8050  0.2291 -0.3629
  109OSM    H5S11227   7.053   2.691  10.118  0.2283 -0.2308 -0.9224
  109OSM    C6S11228   6.931   2.579   9.975 -0.3652 -0.1909 -0.3718
  109OSM    H6S11229   6.890   2.676   9.940 -0.0647 -0.1617 -0.6460
  109OSM    H6T11230   6.861   2.493   9.973  0.0566 -0.5611  0.6556
  109OSM    C7S11231   7.045   2.537   9.878 -0.7396  0.1067 -1.1065
  109OSM    H7S11232   7.087   2.444   9.922  0.9638  1.3221 -0.1332
  109OSM    H7T11233   7.129   2.609   9.884 -0.4782 -0.2796 -0.0032
  109OSM    C8S11234   7.008   2.538   9.727 -0.1393 -0.1885  0.2791
  109OSM    H8S11235   6.913   2.482   9.715 -0.3433  0.3029 -0.4275
  109OSM    H8T11236   7.080   2.477   9.669 -0.1160 -0.3181  0.4485
  109OSM    C9S11237   7.000   2.674   9.666  0.1475 -0.7247  0.4374
  109OSM    H9S11238   7.100   2.722   9.659 -0.1885 -0.0524  0.2096
  109OSM    H9T11239   6.930   2.740   9.721  0.7773  0.1168  0.2421
  109OSM   C10S11240   6.944   2.682   9.524 -0.5790  0.3472 -0.0776
  109OSM   H10S11241   6.972   2.787   9.502 -0.4101  0.7261  1.8743
  109OSM   H10T11242   6.838   2.651   9.520 -0.4141 -0.0449 -1.4408
  109OSM   C11S11243   7.017   2.594   9.413  0.1581 -0.1914 -0.0368
  109OSM   H11S11244   6.957   2.597   9.320 -0.0484  0.0203  0.1028
  109OSM   H11T11245   7.020   2.491   9.454  4.2135  0.3466  1.2902
  109OSM   C12S11246   7.168   2.624   9.381 -0.3083 -0.5249 -0.1836
  109OSM   H12S11247   7.196   2.566   9.290 -2.8202 -0.8642 -0.7618
  109OSM   H12T11248   7.237   2.590   9.461  2.4841 -0.4684 -2.4512
  109OSM   C13S11249   7.191   2.773   9.354  0.0015 -0.4366  0.1192
  109OSM   H13S11250   7.186   2.845   9.438  0.6355  0.2302 -0.4071
  109OSM   H13T11251   7.122   2.816   9.277 -1.2687  1.6228  2.3383
  109OSM   C14S11252   7.332   2.813   9.309 -0.1566 -0.1067  0.3296
  109OSM   H14S11253   7.359   2.766   9.212 -0.6040  3.5456 -1.6883
  109OSM   H14T11254   7.414   2.792   9.381  1.8386 -0.8312 -2.0907
  109OSM   C15S11255   7.356   2.959   9.277  0.1657 -0.7117  0.3945
  109OSM   H15S11256   7.329   3.022   9.365  0.6506 -0.8197  0.6253
  109OSM   H15T11257   7.288   2.992   9.196 -0.0445  0.9520  1.2286
  109OSM   C16S11258   7.502   2.992   9.237 -0.2354  0.1492  0.1672
  109OSM   H16S11259   7.532   2.927   9.153 -0.4433 -0.6473  0.7061
  109OSM   H16T11260   7.576   2.969   9.316  2.0285  0.8346 -1.6997
  109OSM   C17S11261   7.525   3.139   9.202  0.1666  0.3582  0.7304
  109OSM   H17S11262   7.484   3.190   9.291 -0.5027 -1.5478  1.5482
  109OSM   H17T11263   7.459   3.167   9.118 -1.5118 -1.5456  1.3560
  109OSM   C18S11264   7.673   3.168   9.162  0.2062  0.5735 -0.1489
  109OSM   H18S11265   7.753   3.155   9.238  1.3940 -0.8683 -1.6189
  109OSM   H18T11266   7.676   3.276   9.137 -0.9265  0.5519 -0.4134
  109OSM   H18U11267   7.705   3.109   9.074  0.9796  2.2158 -0.9710
  109OSM    C1F11268   7.372   2.320  10.197  0.1080 -0.1354 -0.2343
  109OSM     OF11269   7.387   2.217  10.261  0.7370  0.4777  0.3158
  109OSM    C2F11270   7.457   2.366  10.079 -0.7367  0.0777 -0.5882
  109OSM    H2F11271   7.548   2.401  10.132 -1.6490  1.9445 -0.2390
  109OSM    H2G11272   7.409   2.453  10.030 -0.3682  0.4995 -0.2066
  109OSM    C3F11273   7.500   2.260   9.979 -0.0365  0.5177  0.2575
  109OSM    H3F11274   7.414   2.210   9.928 -1.1173 -0.1300  2.6571
  109OSM    H3G11275   7.559   2.176  10.021 -1.7073 -1.6665 -1.5752
  109OSM    C4F11276   7.588   2.323   9.873  0.7612 -0.0071  0.5033
  109OSM    H4F11277   7.693   2.312   9.905  0.9901  0.4854 -0.0751
  109OSM    H4G11278   7.562   2.431   9.869  3.8198  0.7002 -1.1943
  109OSM    C5F11279   7.574   2.265   9.732 -0.0587 -0.1750 -0.6513
  109OSM    H5F11280   7.541   2.341   9.658 -1.1250 -0.2799 -0.2940
  109OSM    H5G11281   7.497   2.185   9.737 -0.9309  0.5594 -1.8550
  109OSM    C6F11282   7.707   2.198   9.692 -0.3604 -0.0621  1.0200
  109OSM    H6F11283   7.718   2.109   9.757 -0.0700 -0.9453 -0.2065
  109OSM    H6G11284   7.793   2.267   9.701  0.0889 -0.3398 -0.8320
  109OSM    C7F11285   7.692   2.158   9.544 -0.2673 -0.3242  0.2334
  109OSM    H7F11286   7.587   2.137   9.513  0.1690  2.0791 -3.1498
  109OSM    H7G11287   7.744   2.060   9.535 -0.2205 -0.4082  1.3421
  109OSM    C8F11288   7.747   2.255   9.437 -0.1707  0.4460 -0.5837
  109OSM    H8F11289   7.847   2.288   9.472 -0.5985  1.5650 -0.3812
  109OSM    H8G11290   7.679   2.342   9.450  0.0269  1.2385 -4.2114
  109OSM    C9F11291   7.749   2.198   9.296 -0.2508 -0.2187 -0.7998
  109OSM    H9F11292   7.848   2.159   9.270  0.7410  1.7668 -0.1016
  109OSM   C10F11293   7.644   2.204   9.208  0.2185  0.1577 -0.1274
  109OSM   H10F11294   7.662   2.169   9.105  1.6311 -1.6176  0.6977
  109OSM   C11F11295   7.508   2.267   9.235 -0.1030 -0.6956 -0.0444
  109OSM   H11F11296   7.512   2.306   9.339 -2.2726 -2.4176  0.7358
  109OSM   H11G11297   7.426   2.192   9.226 -1.2490  0.5600 -0.2249
  109OSM   C12F11298   7.487   2.383   9.131  0.0254  0.2895 -0.3877
  109OSM   H12F11299   7.555   2.468   9.155 -0.2942  0.2274  0.7830
  109OSM   H12G11300   7.386   2.426   9.151 -0.6235 -0.5627 -1.7916
  109OSM   C13F11301   7.479   2.350   8.982 -0.2263 -0.2968  0.7644
  109OSM   H13F11302   7.584   2.323   8.957 -0.0238 -0.2451  1.5764
  109OSM   H13G11303   7.446   2.443   8.931  1.2293  1.1289  2.3765
  109OSM   C14F11304   7.383   2.244   8.944 -0.1605 -0.6087  0.2274
  109OSM   H14F11305   7.283   2.292   8.946 -0.3270 -0.9731  1.7437
  109OSM   H14G11306   7.380   2.163   9.021  0.4358 -0.3442  0.5312
  109OSM   C15F11307   7.406   2.179   8.809 -0.0589  0.6681  0.4648
  109OSM   H15F11308   7.501   2.121   8.808 -1.0737 -1.0316  0.3555
  109OSM   H15G11309   7.417   2.247   8.722 -0.7240  1.9059  1.3285
  109OSM   C16F11310   7.299   2.083   8.774  0.4496  0.4961  0.3198
  109OSM   H16F11311   7.201   2.134   8.789 -0.1423 -0.6438  0.3742
  109OSM   H16G11312   7.291   1.999   8.846 -0.7512  1.0592  0.8609
  109OSM   C17F11313   7.306   2.033   8.626 -0.0906  0.4341  0.2094
  109OSM   H17F11314   7.408   2.033   8.583 -0.8422 -0.6905 -1.6411
  109OSM   H17G11315   7.239   2.099   8.567  1.5274  1.6718 -0.2538
  109OSM   C18F11316   7.248   1.890   8.612 -0.8277 -0.6937 -0.0465
  109OSM   H18F11317   7.150   1.883   8.665 -0.5902 -0.7897  0.3865
  109OSM   H18G11318   7.318   1.809   8.642 -2.5111 -1.5485  1.6704
  109OSM   H18H11319   7.218   1.863   8.509 -1.1388  1.3674 -0.5171
  110OSM      N11320   1.769   1.990  10.456 -0.9721  0.3230  0.1859
  110OSM    C1511321   1.714   2.111  10.527 -0.0394  0.1443  0.0934
  110OSM   H15A11322   1.748   2.117  10.630 -1.1890  0.0862  0.4802
  110OSM   H15B11323   1.606   2.108  10.528 -0.0564 -0.8394 -1.8664
  110OSM   H15C11324   1.729   2.204  10.475  0.0572 -0.0611 -0.2513
  110OSM    C1411325   1.691   1.982  10.333 -0.3493 -0.3420 -0.4446
  110OSM   H14A11326   1.728   1.903  10.270 -1.0815 -1.3668  0.4047
  110OSM   H14B11327   1.706   2.076  10.281 -0.1186 -1.2343 -2.0069
  110OSM   H14C11328   1.588   1.972  10.364  0.2481 -0.5021  1.5513
  110OSM    C1311329   1.909   2.016  10.420  0.2031 -0.5040  0.0557
  110OSM   H13A11330   1.959   2.060  10.505  2.9239  0.0381 -1.7601
  110OSM   H13B11331   1.918   2.087  10.340  2.9918  0.5784  1.2440
  110OSM   H13C11332   1.950   1.922  10.384  1.0504 -0.3035  0.4658
  110OSM    C1211333   1.736   1.869  10.544 -0.0358 -0.0071 -0.0592
  110OSM   H12A11334   1.759   1.771  10.505  1.5709 -0.3144  1.5674
  110OSM   H12B11335   1.630   1.870  10.565  0.0777 -2.8030  0.9463
  110OSM    C1111336   1.819   1.866  10.680 -0.3948 -0.1051  0.0380
  110OSM   H11A11337   1.807   1.969  10.721 -1.6061  1.3186 -3.6612
  110OSM   H11B11338   1.925   1.845  10.655  0.2374  3.0900 -0.2093
  110OSM      P11339   1.838   1.643  10.827  0.0230  0.2168 -0.1285
  110OSM    O1311340   1.968   1.689  10.881  0.0217  0.2235 -0.1410
  110OSM    O1411341   1.755   1.570  10.923 -0.3163  0.0626 -0.1039
  110OSM    O1111342   1.852   1.556  10.698  0.0595  0.6445  0.3713
  110OSM    O1211343   1.760   1.770  10.768 -0.4484  0.6462  0.3537
  110OSM    C1S11344   1.748   1.512  10.610  0.0385  0.2210 -0.0266
  110OSM    H1S11345   1.691   1.593  10.560 -0.4245  0.3233  0.6506
  110OSM    H1T11346   1.670   1.454  10.666  0.4411  0.4378  0.7704
  110OSM     NF11347   1.710   1.415  10.388  0.6645  0.9522 -0.3256
  110OSM    HNF11348   1.698   1.322  10.352  0.4482  0.4494  0.9978
  110OSM    C2S11349   1.798   1.423  10.504  0.2311  0.6240  0.6076
  110OSM    H2S11350   1.894   1.461  10.466  0.3127 -0.4684 -0.3256
  110OSM    C3S11351   1.830   1.281  10.572 -0.5414  0.5415 -0.1557
  110OSM    H3S11352   1.739   1.229  10.607 -0.7817  0.7911 -0.4146
  110OSM     O311353   1.911   1.293  10.685 -0.2837  0.2693  0.6949
  110OSM    HO311354   1.915   1.388  10.697 -0.3352  0.1463  1.6676
  110OSM    C4S11355   1.892   1.190  10.463 -0.2695 -0.0549  0.0627
  110OSM    H4S11356   1.817   1.145  10.397  0.6342 -0.0685 -0.9802
  110OSM    C5S11357   2.025   1.172  10.440  0.0038 -0.1516  0.1792
  110OSM    H5S11358   2.100   1.219  10.505 -0.1395 -0.8745  0.8809
  110OSM    C6S11359   2.086   1.090  10.327  0.5315  0.0523  0.1218
  110OSM    H6S11360   2.129   0.995  10.366  0.6930 -2.3408 -5.3177
  110OSM    H6T11361   2.173   1.135  10.274  0.4021  1.6207  1.2097
  110OSM    C7S11362   1.974   1.065  10.220  0.1515  0.2769 -0.1174
  110OSM    H7S11363   1.905   1.151  10.208 -2.5054 -1.6397  1.0221
  110OSM    H7T11364   1.917   0.978  10.257 -0.1567 -0.1219 -1.5110
  110OSM    C8S11365   2.030   1.036  10.082 -0.3287  0.0779  0.1365
  110OSM    H8S11366   2.082   0.940  10.103  2.5348  1.7566  0.9052
  110OSM    H8T11367   2.092   1.115  10.035  0.4640 -0.2720  0.5746
  110OSM    C9S11368   1.923   1.009   9.976  0.8221 -0.4388 -0.5135
  110OSM    H9S11369   1.857   0.925  10.006 -0.5916 -0.1069 -2.5216
  110OSM    H9T11370   1.958   0.985   9.873  2.3065  0.5184 -0.2480
  110OSM   C10S11371   1.826   1.125   9.963  0.2952  0.4999  0.7473
  110OSM   H10S11372   1.873   1.226   9.963 -0.1465  0.7022  0.8494
  110OSM   H10T11373   1.760   1.126  10.052 -1.5220 -1.0696 -0.5593
  110OSM   C11S11374   1.735   1.097   9.840 -0.1958 -0.6993  0.2801
  110OSM   H11S11375   1.689   0.996   9.849  1.0232 -1.1974  1.0523
  110OSM   H11T11376   1.792   1.098   9.745  0.0208 -2.1552  0.3817
  110OSM   C12S11377   1.618   1.202   9.834  0.3247 -0.5469 -0.1541
  110OSM   H12S11378   1.656   1.306   9.827  0.0563 -0.5225 -1.2321
  110OSM   H12T11379   1.555   1.189   9.925 -1.0635 -1.7978 -1.2677
  110OSM   C13S11380   1.510   1.186   9.724 -0.9804 -0.6471 -0.2755
  110OSM   H13S11381   1.429   1.254   9.757  0.1440  2.3807 -3.4986
  110OSM   H13T11382   1.474   1.081   9.726  1.8179 -1.7250 -2.4515
  110OSM   C14S11383   1.559   1.226   9.594 -0.9283 -0.1967 -0.2761
  110OSM   H14S11384   1.649   1.167   9.565 -0.4499  0.9747 -1.2375
  110OSM   H14T11385   1.592   1.332   9.588 -1.7153  0.1449  1.0562
  110OSM   C15S11386   1.464   1.210   9.468 -0.2137  1.1320  0.2889
  110OSM   H15S11387   1.378   1.280   9.459 -1.6458 -0.2554  2.6431
  110OSM   H15T11388   1.425   1.106   9.458  0.8385  0.7590 -0.0504
  110OSM   C16S11389   1.546   1.257   9.347  0.8383  0.1017  0.2184
  110OSM   H16S11390   1.649   1.215   9.346  0.4291 -0.9483  1.0809
  110OSM   H16T11391   1.564   1.366   9.354  1.1532  0.0480  0.2544
  110OSM   C17S11392   1.479   1.232   9.210  0.3129  0.0470 -0.2337
  110OSM   H17S11393   1.446   1.127   9.203 -2.4416  0.9410 -1.4437
  110OSM   H17T11394   1.541   1.248   9.119 -0.4598  1.7037 -0.5011
  110OSM   C18S11395   1.346   1.305   9.182 -0.7055 -0.3110  0.1961
  110OSM   H18S11396   1.270   1.286   9.261  0.6599 -0.4826  1.4716
  110OSM   H18T11397   1.294   1.279   9.088 -0.0441  0.1201 -0.2944
  110OSM   H18U11398   1.376   1.412   9.172 -0.3228 -0.3976  0.4334
  110OSM    C1F11399   1.676   1.521  10.314 -0.8603 -0.2821 -0.0746
  110OSM     OF11400   1.745   1.617  10.322 -0.3632  0.1033 -0.5281
  110OSM    C2F11401   1.566   1.509  10.210 -0.4493 -0.3015 -0.4519
  110OSM    H2F11402   1.516   1.608  10.194  1.3281  0.9057  1.2652
  110OSM    H2G11403   1.482   1.454  10.256  0.8399 -1.0471  1.0410
  110OSM    C3F11404   1.622   1.450  10.078 -0.0440  1.0176 -0.3106
  110OSM    H3F11405   1.546   1.455   9.997 -1.5704  1.0767  1.0949
  110OSM    H3G11406   1.659   1.345  10.088 -2.6556 -0.0529 -1.4966
  110OSM    C4F11407   1.747   1.517  10.024  0.4203 -0.5230 -1.3463
  110OSM    H4F11408   1.779   1.467   9.930 -2.0659 -2.5947 -1.1367
  110OSM    H4G11409   1.836   1.494  10.087 -0.2520 -0.7568 -0.4604
  110OSM    C5F11410   1.731   1.673  10.007 -0.1335 -0.1558  0.0133
  110OSM    H5F11411   1.833   1.716  10.017 -0.1167 -0.3664  0.7553
  110OSM    H5G11412   1.666   1.700  10.093  0.3283  2.3417 -0.3882
  110OSM    C6F11413   1.653   1.721   9.881 -0.4455  0.4963  0.0207
  110OSM    H6F11414   1.616   1.824   9.902  1.2794  0.9604  0.8941
  110OSM    H6G11415   1.571   1.647   9.868  1.3205 -1.3973 -0.6319
  110OSM    C7F11416   1.746   1.742   9.758  0.5600 -0.1082 -0.4709
  110OSM    H7F11417   1.850   1.738   9.796  0.0284 -1.4425  0.9354
  110OSM    H7G11418   1.734   1.844   9.716  1.5990  0.5521  0.8247
  110OSM    C8F11419   1.732   1.639   9.654 -0.1209 -0.2560 -0.1599
  110OSM    H8F11420   1.749   1.543   9.708  0.2480  0.9518  1.9051
  110OSM    H8G11421   1.811   1.641   9.576  0.9076  0.5626  0.8909
  110OSM    C9F11422   1.598   1.644   9.595 -0.1894  0.0111  0.0200
  110OSM    H9F11423   1.511   1.611   9.654  0.5191  0.5782  1.3939
  110OSM   C10F11424   1.580   1.677   9.466  0.0085  0.6209  0.1334
  110OSM   H10F11425   1.475   1.682   9.434 -0.0734 -0.4712  0.2311
  110OSM   C11F11426   1.689   1.706   9.370 -0.9903  1.1337 -0.0627
  110OSM   H11F11427   1.766   1.626   9.374 -1.3278  0.7344 -1.3069
  110OSM   H11G11428   1.743   1.793   9.414  0.2612  0.4114 -0.1296
  110OSM   C12F11429   1.642   1.744   9.231 -0.6612 -0.8928  0.0601
  110OSM   H12F11430   1.735   1.773   9.178 -0.6406 -0.9405  0.0701
  110OSM   H12G11431   1.567   1.825   9.245 -1.7020 -1.7577 -0.4173
  110OSM   C13F11432   1.572   1.631   9.158  0.2104 -0.2208 -0.2347
  110OSM   H13F11433   1.481   1.604   9.215  0.7100 -0.7503  0.3207
  110OSM   H13G11434   1.629   1.536   9.159 -1.1861 -1.0752 -0.8365
  110OSM   C14F11435   1.526   1.670   9.015 -0.4715 -0.7363  0.2058
  110OSM   H14F11436   1.619   1.697   8.961 -0.7739  0.1061  0.0972
  110OSM   H14G11437   1.472   1.767   9.016  0.2738 -0.3265  0.7213
  110OSM   C15F11438   1.464   1.547   8.933  0.2809 -0.0630 -0.0010
  110OSM   H15F11439   1.366   1.528   8.981 -1.2500  1.2566 -2.5474
  110OSM   H15G11440   1.530   1.457   8.937  1.3119  0.6720 -0.1869
  110OSM   C16F11441   1.456   1.586   8.785 -0.5992 -0.0766 -0.5769
  110OSM   H16F11442   1.546   1.644   8.758 -0.6670  0.4289  0.2841
  110OSM   H16G11443   1.376   1.662   8.770  0.2634  0.6880 -1.3526
  110OSM   C17F11444   1.425   1.467   8.693  0.3042 -0.3106  0.0177
  110OSM   H17F11445   1.346   1.407   8.743  1.3894 -0.0022  2.1703
  110OSM   H17G11446   1.514   1.403   8.679 -0.3826 -1.3960  0.5392
  110OSM   C18F11447   1.374   1.522   8.560  0.2723  0.8674  0.3478
  110OSM   H18F11448   1.440   1.597   8.513  0.5553  1.2702  1.3787
  110OSM   H18G11449   1.277   1.574   8.575 -0.1196 -0.5181  2.9662
  110OSM   H18H11450   1.359   1.431   8.497 -0.0933  1.2346 -0.1047
  111OSM      N11451   2.038   4.484  11.012 -0.8357 -0.0798 -0.3617
  111OSM    C1511452   1.980   4.591  11.107  0.1945  0.4031  1.2350
  111OSM   H15A11453   2.032   4.684  11.090  1.2429 -0.1202  1.4956
  111OSM   H15B11454   1.988   4.563  11.211  1.0077 -1.5444  0.6692
  111OSM   H15C11455   1.878   4.612  11.080  1.4336  1.7984 -2.8254
  111OSM    C1411456   2.189   4.478  11.036 -0.1611 -0.2898 -0.5671
  111OSM   H14A11457   2.245   4.435  10.955  1.5354 -0.8888  0.9087
  111OSM   H14B11458   2.209   4.409  11.117 -0.3356 -0.3143 -0.5439
  111OSM   H14C11459   2.237   4.573  11.052  0.9297 -0.4168 -2.8925
  111OSM    C1311460   1.982   4.352  11.058 -0.3210  0.4607  0.3156
  111OSM   H13A11461   2.001   4.268  10.993 -1.5942 -0.0864  0.6348
  111OSM   H13B11462   1.875   4.356  11.074 -0.5865  1.3812 -1.6076
  111OSM   H13C11463   2.020   4.321  11.154  0.0455  0.5118  0.1870
  111OSM    C1211464   2.013   4.528  10.873  0.7029  0.1900  0.3886
  111OSM   H12A11465   1.912   4.514  10.836  0.9183  1.0197 -0.5343
  111OSM   H12B11466   2.063   4.459  10.807 -1.2704 -1.0687  0.1683
  111OSM    C1111467   2.070   4.672  10.848 -0.1305  0.2071 -0.8065
  111OSM   H11A11468   2.101   4.694  10.744 -0.3524 -0.4348 -1.0058
  111OSM   H11B11469   2.169   4.686  10.898  0.3948 -1.2657 -1.4159
  111OSM      P11470   1.838   4.795  10.839 -0.0966 -0.0353  0.0491
  111OSM    O1311471   1.795   4.687  10.749 -0.2498  0.1710  0.2948
  111OSM    O1411472   1.750   4.821  10.953  0.4290  0.0355  0.1164
  111OSM    O1111473   1.854   4.933  10.763  0.4525 -0.8375 -0.2092
  111OSM    O1211474   1.981   4.769  10.896  0.0886 -0.1850  0.5241
  111OSM    C1S11475   1.946   4.935  10.650  0.4129  0.1019  0.0010
  111OSM    H1S11476   1.971   4.833  10.612 -2.0680 -0.9720  1.1632
  111OSM    H1T11477   2.036   4.997  10.672 -1.4324  2.8686 -0.0245
  111OSM     NF11478   1.949   4.969  10.414  0.2071 -0.1483  0.0654
  111OSM    HNF11479   2.031   5.023  10.396  1.5964 -2.4566 -0.7658
  111OSM    C2S11480   1.873   5.004  10.532  0.9787  1.0195  0.2102
  111OSM    H2S11481   1.765   4.978  10.523  0.7033  1.1915  2.7730
  111OSM    C3S11482   1.868   5.150  10.561  0.0771  0.0716 -1.1005
  111OSM    H3S11483   1.970   5.178  10.594 -0.7615  0.4709  1.1928
  111OSM     O311484   1.788   5.179  10.681  0.4562  0.3065 -0.4108
  111OSM    HO311485   1.780   5.095  10.727 -1.8275  0.0687 -1.1936
  111OSM    C4S11486   1.822   5.234  10.441 -0.2231 -0.3408  0.5353
  111OSM    H4S11487   1.907   5.260  10.375  1.1190 -1.5670  1.7324
  111OSM    C5S11488   1.694   5.255  10.408 -0.5326 -0.1293  0.4113
  111OSM    H5S11489   1.615   5.205  10.468  0.5497 -1.2543  0.9404
  111OSM    C6S11490   1.651   5.328  10.285  0.5308  0.3390  0.3538
  111OSM    H6S11491   1.730   5.390  10.236  1.5614 -0.9443  0.3591
  111OSM    H6T11492   1.563   5.390  10.311  0.4028  1.0256 -1.6727
  111OSM    C7S11493   1.603   5.220  10.188 -0.0208 -0.2447  0.9992
  111OSM    H7S11494   1.529   5.156  10.240  1.4573 -0.7708  2.4768
  111OSM    H7T11495   1.697   5.166  10.163 -0.0784  0.9417 -2.0963
  111OSM    C8S11496   1.519   5.283  10.077 -0.1563 -0.5394 -0.1205
  111OSM    H8S11497   1.433   5.341  10.115 -0.1584 -1.0190  0.6097
  111OSM    H8T11498   1.482   5.194  10.021 -1.4735  0.0595 -0.2048
  111OSM    C9S11499   1.604   5.378   9.990  0.2070  0.1408  0.4945
  111OSM    H9S11500   1.703   5.326   9.987 -0.9011 -2.0782  1.3244
  111OSM    H9T11501   1.611   5.478  10.040  0.1919  0.9636 -1.1277
  111OSM   C10S11502   1.542   5.411   9.854  0.0196 -1.0018  0.0826
  111OSM   H10S11503   1.448   5.469   9.868  1.7215  1.3389  2.1013
  111OSM   H10T11504   1.507   5.318   9.805 -0.9725  0.2192 -1.6062
  111OSM   C11S11505   1.648   5.476   9.764  0.2678 -0.0136  0.8274
  111OSM   H11S11506   1.745   5.421   9.769  0.3528  0.1799  1.3714
  111OSM   H11T11507   1.685   5.573   9.803  0.8654 -0.2493  0.8591
  111OSM   C12S11508   1.615   5.500   9.613 -0.3240 -0.3934 -0.7951
  111OSM   H12S11509   1.566   5.408   9.574 -1.7247 -0.7151  1.6113
  111OSM   H12T11510   1.711   5.515   9.558  0.1426  0.7424  0.3013
  111OSM   C13S11511   1.506   5.601   9.584  1.0070  0.2566  0.0722
  111OSM   H13S11512   1.540   5.690   9.642  3.0310  0.9137 -2.0241
  111OSM   H13T11513   1.406   5.567   9.618  0.8442  0.6631  0.0054
  111OSM   C14S11514   1.496   5.634   9.436 -0.6969 -0.0571 -0.1583
  111OSM   H14S11515   1.598   5.647   9.394  0.3149 -1.1373  1.8807
  111OSM   H14T11516   1.447   5.731   9.413 -0.3434  0.1601  0.0104
  111OSM   C15S11517   1.413   5.530   9.353  0.3486 -0.1414  0.8620
  111OSM   H15S11518   1.320   5.515   9.411  0.9631  0.0080  1.8845
  111OSM   H15T11519   1.475   5.437   9.354  1.9833  0.9381  2.6502
  111OSM   C16S11520   1.390   5.581   9.209  0.1385  0.2369 -0.6106
  111OSM   H16S11521   1.489   5.601   9.162 -0.7945  2.7896 -1.6208
  111OSM   H16T11522   1.335   5.677   9.221 -0.5743 -0.3419  0.8304
  111OSM   C17S11523   1.316   5.491   9.106 -0.2681  0.6940  0.1662
  111OSM   H17S11524   1.323   5.528   9.001  0.7398  2.1332  0.7364
  111OSM   H17T11525   1.206   5.500   9.123 -0.8428 -1.4958 -2.0148
  111OSM   C18S11526   1.355   5.340   9.102  0.3592  0.0877  0.7214
  111OSM   H18S11527   1.338   5.296   9.202  0.5943 -0.2818  0.5965
  111OSM   H18T11528   1.462   5.321   9.079  0.1453  0.1992 -0.4027
  111OSM   H18U11529   1.293   5.299   9.019 -0.5560  2.3808  0.2133
  111OSM    C1F11530   1.916   4.857  10.340 -0.5474  0.2162 -0.0022
  111OSM     OF11531   1.834   4.777  10.385  0.0244  0.1680  0.1623
  111OSM    C2F11532   1.976   4.844  10.205  0.4593  0.9048  0.4580
  111OSM    H2F11533   1.992   4.734  10.198 -1.8775  0.4161  2.2172
  111OSM    H2G11534   2.075   4.893  10.192  0.4420  0.3808 -1.9672
  111OSM    C3F11535   1.884   4.883  10.092 -0.6286  0.1192 -0.7090
  111OSM    H3F11536   1.826   4.967  10.137  0.7382  0.5173  0.3430
  111OSM    H3G11537   1.817   4.795  10.080 -0.8764  0.1273  0.6012
  111OSM    C4F11538   1.958   4.920   9.966  0.1139 -0.4876  0.1203
  111OSM    H4F11539   2.015   4.831   9.935 -0.2169 -0.9408  0.7940
  111OSM    H4G11540   2.027   5.004   9.991  0.1636 -0.9257  1.5018
  111OSM    C5F11541   1.856   4.965   9.860 -0.4440 -0.2452  0.2545
  111OSM    H5F11542   1.817   5.064   9.893  1.0593  0.8339 -1.1778
  111OSM    H5G11543   1.766   4.900   9.852 -0.2790 -0.7240  1.9603
  111OSM    C6F11544   1.929   4.973   9.718  0.1915 -0.7002  0.4239
  111OSM    H6F11545   1.950   4.873   9.677  1.5910 -0.8034  1.3640
  111OSM    H6G11546   2.021   5.035   9.716  0.4861 -1.1697 -0.4087
  111OSM    C7F11547   1.826   5.021   9.609 -0.7840  0.1297  0.3588
  111OSM    H7F11548   1.826   5.131   9.619  1.6158  0.1612  0.2899
  111OSM    H7G11549   1.728   4.975   9.636 -0.1271 -1.1180  0.6711
  111OSM    C8F11550   1.868   4.960   9.471  0.5510 -0.0965  0.2222
  111OSM    H8F11551   1.894   4.852   9.474  1.7557  0.1480 -0.7384
  111OSM    H8G11552   1.965   5.011   9.449  0.0583  0.4971 -0.5706
  111OSM    C9F11553   1.755   4.983   9.368 -0.0505  0.1548 -0.0101
  111OSM    H9F11554   1.673   4.910   9.367 -0.1015  0.2149 -0.9034
  111OSM   C10F11555   1.759   5.074   9.266  0.1196 -0.0555 -0.2497
  111OSM   H10F11556   1.666   5.063   9.207  1.1935 -0.5398 -1.8706
  111OSM   C11F11557   1.858   5.176   9.227 -0.1323 -0.0930  0.0968
  111OSM   H11F11558   1.910   5.140   9.136  1.2893  0.7608  0.5572
  111OSM   H11G11559   1.936   5.183   9.305 -0.5652  1.8452  0.3812
  111OSM   C12F11560   1.799   5.317   9.205  0.3613 -0.4153  0.5381
  111OSM   H12F11561   1.746   5.336   9.301 -2.5496 -1.4752 -0.7939
  111OSM   H12G11562   1.716   5.311   9.131 -0.3805 -0.0934  1.3290
  111OSM   C13F11563   1.893   5.425   9.160 -0.1960 -0.0272 -0.8908
  111OSM   H13F11564   1.962   5.447   9.244 -1.6077  2.1812 -0.2662
  111OSM   H13G11565   1.832   5.512   9.128 -0.4683 -0.2597 -1.0099
  111OSM   C14F11566   1.991   5.397   9.042 -0.4037 -0.5885  0.2599
  111OSM   H14F11567   2.061   5.317   9.073  1.7520  1.0439 -0.3272
  111OSM   H14G11568   2.059   5.482   9.025  0.0306 -1.2064 -1.2049
  111OSM   C15F11569   1.928   5.354   8.907  0.1004 -0.1704 -0.3113
  111OSM   H15F11570   1.873   5.446   8.880  2.4803  1.9065  1.6403
  111OSM   H15G11571   1.870   5.259   8.910 -0.2688 -0.0769 -2.9667
  111OSM   C16F11572   2.027   5.335   8.787  0.1219  0.5675  0.4122
  111OSM   H16F11573   2.098   5.256   8.822  1.3155  2.4435  2.4142
  111OSM   H16G11574   2.091   5.424   8.770 -1.8936  1.8322 -0.7060
  111OSM   C17F11575   1.957   5.300   8.657  0.2452 -0.5231  0.2920
  111OSM   H17F11576   1.888   5.385   8.639  0.2968 -0.6976 -0.7887
  111OSM   H17G11577   1.906   5.202   8.670  0.8872 -0.9681 -0.5157
  111OSM   C18F11578   2.048   5.281   8.536  0.1993  0.2613 -0.1101
  111OSM   H18F11579   1.982   5.248   8.453  2.9070 -1.2826 -1.7560
  111OSM   H18G11580   2.129   5.206   8.551  1.1583  0.6537 -3.0620
  111OSM   H18H11581   2.104   5.368   8.495  0.2902  0.3501  0.2032
  112OSM      N11582   2.673   3.195  11.331  0.1294  0.1430  0.1991
  112OSM    C1511583   2.817   3.173  11.305 -0.8881  0.5129  0.1722
  112OSM   H15A11584   2.842   3.131  11.209  1.0316 -2.3358  1.8349
  112OSM   H15B11585   2.864   3.108  11.377 -0.0411  1.6702  0.6758
  112OSM   H15C11586   2.868   3.267  11.312 -1.3026  0.7277  0.3455
  112OSM    C1411587   2.656   3.237  11.474 -0.1603 -0.2248 -0.4683
  112OSM   H14A11588   2.736   3.301  11.506  1.0610 -1.7589 -0.4159
  112OSM   H14B11589   2.631   3.152  11.536 -0.5684  0.8084  0.8236
  112OSM   H14C11590   2.566   3.296  11.486 -0.2230 -0.4244  0.0601
  112OSM    C1311591   2.629   3.298  11.232 -0.0745 -0.0228  0.4871
  112OSM   H13A11592   2.523   3.314  11.246 -0.1773  1.8256 -1.9336
  112OSM   H13B11593   2.659   3.285  11.129  2.7454  2.5647  0.8893
  112OSM   H13C11594   2.669   3.396  11.255  1.0432 -0.1965 -0.6640
  112OSM    C1211595   2.589   3.072  11.307  0.4845 -0.7576 -0.3636
  112OSM   H12A11596   2.497   3.094  11.358  0.7339  0.3936 -0.4034
  112OSM   H12B11597   2.642   2.995  11.360  1.9093 -1.7681 -3.1536
  112OSM    C1111598   2.576   3.015  11.163 -0.8481 -0.8632 -0.2470
  112OSM   H11A11599   2.530   3.084  11.089  1.6444  0.9610 -0.1348
  112OSM   H11B11600   2.518   2.921  11.168 -0.1510 -1.1757  2.4151
  112OSM      P11601   2.789   2.876  11.140  0.1808 -0.2288  0.2755
  112OSM    O1311602   2.930   2.920  11.146  0.9606 -0.3677  0.2441
  112OSM    O1411603   2.736   2.812  11.262  0.7083  0.5448  0.1336
  112OSM    O1111604   2.775   2.785  11.008 -0.1742 -0.8098  0.5677
  112OSM    O1211605   2.701   2.999  11.103  0.8347 -0.2931  0.3250
  112OSM    C1S11606   2.810   2.843  10.882 -0.3174  0.0901 -0.2843
  112OSM    H1S11607   2.918   2.869  10.889  0.1043 -1.7643  0.4954
  112OSM    H1T11608   2.756   2.939  10.872  1.0324  0.6801 -2.0690
  112OSM     NF11609   2.829   2.830  10.643  0.5790  0.6453 -0.1360
  112OSM    HNF11610   2.777   2.892  10.585 -0.6825  0.6358  0.9728
  112OSM    C2S11611   2.770   2.761  10.759 -0.9393 -0.8949  0.1808
  112OSM    H2S11612   2.818   2.663  10.779  0.8996  0.2833  1.6811
  112OSM    C3S11613   2.620   2.732  10.749  0.4805  0.2075  0.3141
  112OSM    H3S11614   2.572   2.832  10.757 -0.2713 -0.0254 -1.0350
  112OSM     O311615   2.568   2.656  10.858  0.0251  0.3011 -0.5207
  112OSM    HO311616   2.616   2.686  10.935 -2.3685 -0.0396  1.1574
  112OSM    C4S11617   2.588   2.665  10.621  0.4800  0.3565  0.0545
  112OSM    H4S11618   2.564   2.726  10.533 -1.0012 -2.3204 -1.4695
  112OSM    C5S11619   2.577   2.533  10.597 -0.0066 -0.1757  0.0204
  112OSM    H5S11620   2.608   2.467  10.680 -3.1012  0.6944  1.9672
  112OSM    C6S11621   2.539   2.468  10.465  0.5048 -0.4149 -0.1541
  112OSM    H6S11622   2.457   2.393  10.472  0.7723 -0.7116 -0.1922
  112OSM    H6T11623   2.630   2.422  10.420  0.3367  0.5146 -1.4848
  112OSM    C7S11624   2.489   2.573  10.361 -0.0651 -0.3137  0.0899
  112OSM    H7S11625   2.580   2.630  10.331  0.9015 -2.9390 -2.2516
  112OSM    H7T11626   2.421   2.647  10.408  0.8238  1.4774 -1.3595
  112OSM    C8S11627   2.453   2.501  10.237 -0.0731  0.0120 -0.0237
  112OSM    H8S11628   2.349   2.463  10.245  0.0213  0.0317  1.4423
  112OSM    H8T11629   2.524   2.418  10.217 -2.4470 -1.6431 -1.7440
  112OSM    C9S11630   2.461   2.599  10.114  0.9848  0.1917 -0.9862
  112OSM    H9S11631   2.563   2.622  10.078  0.4543  1.5622 -1.6621
  112OSM    H9T11632   2.419   2.701  10.130 -2.1128 -1.3455  1.1600
  112OSM   C10S11633   2.387   2.545   9.991 -0.3805 -0.6673  0.1874
  112OSM   H10S11634   2.287   2.514  10.028 -0.5784  1.2041  1.2951
  112OSM   H10T11635   2.435   2.456   9.945  0.1372  0.7720 -2.1106
  112OSM   C11S11636   2.375   2.654   9.894  0.3603 -0.5057  0.2754
  112OSM   H11S11637   2.473   2.706   9.890 -0.2172  0.6773  1.2943
  112OSM   H11T11638   2.297   2.728   9.923  0.4716  0.3243 -1.4350
  112OSM   C12S11639   2.329   2.599   9.757  0.4552 -0.3344  0.6705
  112OSM   H12S11640   2.224   2.565   9.765  0.0967  0.5547 -0.0933
  112OSM   H12T11641   2.372   2.499   9.735 -0.8471 -0.5613 -1.0260
  112OSM   C13S11642   2.341   2.701   9.645  0.0383 -0.1099 -0.0425
  112OSM   H13S11643   2.431   2.765   9.644 -0.4589  0.6997  2.8148
  112OSM   H13T11644   2.264   2.781   9.650  0.3523  0.2263 -0.6046
  112OSM   C14S11645   2.318   2.636   9.506 -0.1769 -0.9301 -0.6574
  112OSM   H14S11646   2.216   2.598   9.487  0.0463 -1.3780 -0.9565
  112OSM   H14T11647   2.394   2.556   9.494 -0.2203 -0.8479 -1.5452
  112OSM   C15S11648   2.352   2.732   9.383 -0.7175 -0.6968  1.0527
  112OSM   H15S11649   2.460   2.757   9.386 -0.6271 -1.1804  2.8485
  112OSM   H15T11650   2.292   2.825   9.378  3.3214  1.9214 -1.2978
  112OSM   C16S11651   2.326   2.669   9.245 -0.5739 -0.4300  0.1380
  112OSM   H16S11652   2.334   2.559   9.248 -0.2865 -0.4294 -0.5766
  112OSM   H16T11653   2.409   2.699   9.178  0.8584  0.8748  2.4085
  112OSM   C17S11654   2.187   2.710   9.181 -0.1884 -0.2209 -0.5221
  112OSM   H17S11655   2.177   2.821   9.184 -0.2984 -0.2241 -0.8125
  112OSM   H17T11656   2.105   2.681   9.249  1.3825  0.0301  1.5368
  112OSM   C18S11657   2.163   2.658   9.037 -0.4931 -0.1088  0.3892
  112OSM   H18S11658   2.054   2.638   9.025 -1.0819  2.3851  1.3287
  112OSM   H18T11659   2.222   2.566   9.015  1.5636  1.7197 -2.0203
  112OSM   H18U11660   2.192   2.739   8.967 -1.4303 -1.1172 -1.2007
  112OSM    C1F11661   2.964   2.834  10.625  0.3878  0.2296  0.4957
  112OSM     OF11662   3.051   2.768  10.681  0.6716  0.4149 -0.4943
  112OSM    C2F11663   3.012   2.930  10.521 -0.4330  0.9159  0.0659
  112OSM    H2F11664   3.016   3.032  10.565 -2.0755 -0.1948  2.9353
  112OSM    H2G11665   2.936   2.939  10.441 -0.4039  0.8963  0.0356
  112OSM    C3F11666   3.147   2.904  10.451  0.0379  0.2751  0.4796
  112OSM    H3F11667   3.156   2.800  10.413 -2.5452  0.5213 -0.8981
  112OSM    H3G11668   3.227   2.922  10.526 -1.2134 -0.0640  1.9065
  112OSM    C4F11669   3.169   2.985  10.325  0.2517 -0.2724  0.0433
  112OSM    H4F11670   3.181   3.095  10.339 -3.2842  0.4958 -2.6121
  112OSM    H4G11671   3.078   2.977  10.263 -0.0881  0.9761  0.3711
  112OSM    C5F11672   3.292   2.932  10.247 -0.3449 -0.4350  0.0305
  112OSM    H5F11673   3.283   2.822  10.232 -0.0586 -0.1928 -1.9271
  112OSM    H5G11674   3.385   2.942  10.308  0.4486 -0.8089 -1.1166
  112OSM    C6F11675   3.298   3.002  10.109 -0.7449 -0.3874 -0.5425
  112OSM    H6F11676   3.209   2.970  10.051 -1.7179  4.1987 -1.7391
  112OSM    H6G11677   3.382   2.942  10.066  0.5550  0.0346  1.3244
  112OSM    C7F11678   3.340   3.150  10.117 -0.1352  0.7557 -0.4736
  112OSM    H7F11679   3.444   3.154  10.158  0.7058  2.4316 -2.6892
  112OSM    H7G11680   3.274   3.210  10.182 -0.8799 -0.6105  0.0562
  112OSM    C8F11681   3.342   3.215   9.978 -0.3825 -0.1429  0.3175
  112OSM    H8F11682   3.251   3.198   9.916  0.3099 -0.5523 -0.6000
  112OSM    H8G11683   3.419   3.160   9.919 -0.7550  1.7412 -2.0238
  112OSM    C9F11684   3.366   3.366   9.984  0.0316 -0.0919 -0.3844
  112OSM    H9F11685   3.273   3.415  10.015  0.9930  0.0443  2.4759
  112OSM   C10F11686   3.478   3.433   9.953  0.2355 -0.0334  0.0375
  112OSM   H10F11687   3.468   3.542   9.950 -2.6108 -0.2437  0.1945
  112OSM   C11F11688   3.613   3.368   9.899 -0.1599 -0.3133  0.2595
  112OSM   H11F11689   3.618   3.257   9.905  0.4843 -0.2173  1.7340
  112OSM   H11G11690   3.689   3.411   9.967  0.2867 -0.8528  0.1054
  112OSM   C12F11691   3.643   3.415   9.752  0.5645  0.0989  0.3037
  112OSM   H12F11692   3.751   3.406   9.731  0.5903 -0.8233  0.7944
  112OSM   H12G11693   3.602   3.517   9.739  0.1110 -0.3423 -1.9494
  112OSM   C13F11694   3.562   3.320   9.650  0.3111 -0.8609  0.9495
  112OSM   H13F11695   3.460   3.333   9.693 -0.1433  0.2949 -0.4334
  112OSM   H13G11696   3.601   3.217   9.655 -0.1668 -1.0505  0.7397
  112OSM   C14F11697   3.572   3.377   9.503  0.3582 -0.0872 -0.0664
  112OSM   H14F11698   3.662   3.441   9.486  0.1635  0.2904  0.3255
  112OSM   H14G11699   3.486   3.445   9.489  0.5582 -0.0140 -0.9491
  112OSM   C15F11700   3.561   3.268   9.399  1.2423 -0.3401  0.3043
  112OSM   H15F11701   3.526   3.309   9.302  0.1706 -0.7327  0.5198
  112OSM   H15G11702   3.469   3.209   9.419  0.3864 -0.6649 -4.1731
  112OSM   C16F11703   3.672   3.171   9.390 -0.3482 -0.1779  0.4174
  112OSM   H16F11704   3.667   3.096   9.473  0.2916 -0.0986  0.5322
  112OSM   H16G11705   3.770   3.221   9.400 -0.4093  0.3502 -1.4775
  112OSM   C17F11706   3.659   3.098   9.261  0.4024 -0.0950  0.2642
  112OSM   H17F11707   3.631   3.165   9.177  1.9053  1.4429  0.9500
  112OSM   H17G11708   3.571   3.034   9.284  0.3505  0.3327  1.3129
  112OSM   C18F11709   3.776   3.007   9.218  0.7067  0.5757  0.2938
  112OSM   H18F11710   3.835   2.963   9.301  0.8915  1.1883  0.4900
  112OSM   H18G11711   3.836   3.072   9.150  1.4930  1.5023  1.8315
  112OSM   H18H11712   3.733   2.931   9.149  1.5898 -0.0285  0.3996
  113OSM      N11713   6.511   5.787  11.172  0.1163  0.4765  0.3994
  113OSM    C1511714   6.635   5.774  11.263 -0.2471  0.1007  0.3123
  113OSM   H15A11715   6.599   5.756  11.363 -2.1082  0.8499 -0.2038
  113OSM   H15B11716   6.699   5.862  11.268  1.0432 -0.8153  0.1093
  113OSM   H15C11717   6.699   5.693  11.232  1.4075  1.7164 -0.6041
  113OSM    C1411718   6.449   5.652  11.151 -0.1866  0.4743 -0.5943
  113OSM   H14A11719   6.400   5.636  11.246 -1.1256  0.2852 -1.1067
  113OSM   H14B11720   6.523   5.575  11.138 -0.8679  0.1200 -2.4547
  113OSM   H14C11721   6.376   5.651  11.071 -1.0876  2.5519  0.1745
  113OSM    C1311722   6.421   5.883  11.236 -0.6755 -0.7967 -0.0170
  113OSM   H13A11723   6.450   5.987  11.230 -0.8032 -0.7479  0.2059
  113OSM   H13B11724   6.400   5.858  11.339  2.1236  1.9714  1.3162
  113OSM   H13C11725   6.319   5.877  11.200 -0.7206 -2.3777  0.3365
  113OSM    C1211726   6.574   5.836  11.041 -0.2637  0.7499 -0.4593
  113OSM   H12A11727   6.642   5.759  11.008 -1.7778 -0.4363 -0.8766
  113OSM   H12B11728   6.627   5.928  11.061 -1.5749  1.3742  0.1989
  113OSM    C1111729   6.476   5.851  10.910 -0.4272  0.1892 -0.4189
  113OSM   H11A11730   6.437   5.748  10.895  2.0686 -1.1319  1.5858
  113OSM   H11B11731   6.538   5.871  10.820  0.1625  2.0464  0.3827
  113OSM      P11732   6.222   5.921  10.941  0.0092  0.4523  0.1187
  113OSM    O1311733   6.197   5.777  10.924 -0.7373  0.4702 -0.4271
  113OSM    O1411734   6.176   5.989  11.059 -0.0940  1.0332  0.5241
  113OSM    O1111735   6.152   5.997  10.817 -0.1745 -0.2278 -0.3187
  113OSM    O1211736   6.377   5.945  10.927  0.0745  0.7707 -0.2212
  113OSM    C1S11737   6.218   6.079  10.721  0.5073  0.1594  0.3774
  113OSM    H1S11738   6.263   6.009  10.647 -0.3912 -0.5047  0.4482
  113OSM    H1T11739   6.294   6.149  10.762  1.0016  0.1372 -0.4997
  113OSM     NF11740   6.165   6.217  10.516 -0.5805 -0.0858 -0.4154
  113OSM    HNF11741   6.210   6.306  10.503 -0.3406 -0.0717  0.5071
  113OSM    C2S11742   6.119   6.174  10.646 -0.5479 -0.3714  0.6569
  113OSM    H2S11743   6.026   6.117  10.626 -0.8703 -1.2833  4.2843
  113OSM    C3S11744   6.075   6.285  10.743 -0.2231 -0.2492  0.4162
  113OSM    H3S11745   6.157   6.330  10.804 -0.4106 -0.9185  1.1600
  113OSM     O311746   5.990   6.243  10.848  0.8928  0.5495 -0.0359
  113OSM    HO311747   6.001   6.147  10.851 -0.4240  0.3823 -0.1969
  113OSM    C4S11748   5.999   6.390  10.672 -0.4894  0.3911  0.0774
  113OSM    H4S11749   5.894   6.379  10.641 -0.3094 -0.0975 -0.3769
  113OSM    C5S11750   6.055   6.506  10.633 -0.2892  0.4808  0.1807
  113OSM    H5S11751   6.162   6.525  10.650 -0.1444  1.5212 -1.7944
  113OSM    C6S11752   5.971   6.612  10.562  0.2634  0.4900 -0.4641
  113OSM    H6S11753   5.975   6.699  10.630  2.3819 -1.3450  1.8418
  113OSM    H6T11754   5.864   6.581  10.565  0.7189 -1.5307 -2.6493
  113OSM    C7S11755   6.021   6.644  10.424 -0.3070 -0.3796  0.0068
  113OSM    H7S11756   5.962   6.722  10.371 -0.8240 -0.1201  0.9529
  113OSM    H7T11757   5.997   6.549  10.371 -1.4215 -0.0162 -0.1513
  113OSM    C8S11758   6.167   6.687  10.411  0.1830 -0.0323 -0.1019
  113OSM    H8S11759   6.232   6.597  10.411 -0.7584 -0.7382 -1.9384
  113OSM    H8T11760   6.193   6.741  10.504 -0.1892 -0.0069 -0.0123
  113OSM    C9S11761   6.178   6.785  10.290 -0.3021  0.1659 -0.0073
  113OSM    H9S11762   6.281   6.827  10.290 -0.0417 -0.4576 -2.0276
  113OSM    H9T11763   6.120   6.874  10.323  0.4028  0.3682  0.7033
  113OSM   C10S11764   6.125   6.749  10.151 -0.2641  0.1928 -0.1048
  113OSM   H10S11765   6.014   6.741  10.154 -0.2158 -0.1961  1.6539
  113OSM   H10T11766   6.165   6.648  10.131  0.5475  0.6309 -0.7349
  113OSM   C11S11767   6.140   6.860  10.049  0.9157 -0.4881  0.1852
  113OSM   H11S11768   6.245   6.849  10.016  0.1702 -0.7588 -2.1429
  113OSM   H11T11769   6.130   6.963  10.088  1.4113  0.1130 -1.2567
  113OSM   C12S11770   6.053   6.844   9.924 -0.1650 -0.3630  0.9963
  113OSM   H12S11771   5.944   6.847   9.943 -0.0945 -0.8017  1.4936
  113OSM   H12T11772   6.080   6.744   9.884  0.5511 -0.2881  1.2765
  113OSM   C13S11773   6.078   6.957   9.814  0.1222  0.1388  0.3025
  113OSM   H13S11774   6.175   7.011   9.815  1.2145 -1.7705  0.3153
  113OSM   H13T11775   6.006   7.033   9.851  0.8783  2.0071 -1.9217
  113OSM   C14S11776   6.050   6.901   9.665 -0.1330 -0.2162 -0.1987
  113OSM   H14S11777   5.947   6.861   9.654 -0.4924  0.2993  1.1654
  113OSM   H14T11778   6.120   6.816   9.652  1.0775  0.5660  1.0579
  113OSM   C15S11779   6.090   7.015   9.562 -0.3742  0.0544 -0.0854
  113OSM   H15S11780   6.179   7.072   9.596  0.7946 -1.7181 -0.0530
  113OSM   H15T11781   6.008   7.087   9.543 -1.9167 -1.7121 -0.2924
  113OSM   C16S11782   6.124   6.951   9.430  0.0406  0.1653  0.4346
  113OSM   H16S11783   6.039   6.883   9.405 -1.6552  2.3418  0.0654
  113OSM   H16T11784   6.218   6.892   9.432 -0.8124 -1.2119  1.7771
  113OSM   C17S11785   6.125   7.042   9.303  0.0513  0.0537  0.3859
  113OSM   H17S11786   6.196   7.128   9.307 -1.7022  1.6489 -1.4756
  113OSM   H17T11787   6.032   7.103   9.299  0.1012  0.3222  2.4980
  113OSM   C18S11788   6.138   6.945   9.184  0.5313 -0.1550  0.4451
  113OSM   H18S11789   6.221   6.872   9.192  0.8585  0.3614  2.1060
  113OSM   H18T11790   6.143   7.007   9.092  2.3678  0.3277  0.8506
  113OSM   H18U11791   6.050   6.879   9.177  1.8363 -1.7375 -1.5857
  113OSM    C1F11792   6.159   6.126  10.422  0.0487  0.0386  0.0960
  113OSM     OF11793   6.086   6.030  10.421  0.3541  0.2728 -0.4447
  113OSM    C2F11794   6.253   6.135  10.308 -0.0255  0.1826  0.0195
  113OSM    H2F11795   6.336   6.062  10.321  0.5714  0.6999 -0.8957
  113OSM    H2G11796   6.303   6.234  10.304 -0.8605  0.6022  0.0163
  113OSM    C3F11797   6.192   6.114  10.173 -0.0031  0.1185 -0.2317
  113OSM    H3F11798   6.096   6.170  10.162 -0.0608  0.0723  0.0397
  113OSM    H3G11799   6.150   6.011  10.169 -2.1109  0.9299 -0.1413
  113OSM    C4F11800   6.285   6.151  10.065 -0.0383 -0.4014  0.1229
  113OSM    H4F11801   6.385   6.107  10.081  0.6701  1.0601 -0.2091
  113OSM    H4G11802   6.287   6.262  10.071 -1.7356 -0.0666 -3.8682
  113OSM    C5F11803   6.229   6.114   9.931  0.5542  0.4228  0.2748
  113OSM    H5F11804   6.135   6.169   9.910  0.1673 -1.7361 -4.1287
  113OSM    H5G11805   6.198   6.008   9.937  0.2825  0.4714 -0.2781
  113OSM    C6F11806   6.316   6.132   9.812  0.4955  0.8408 -0.3514
  113OSM    H6F11807   6.291   6.054   9.737 -2.3557  0.6974  0.7096
  113OSM    H6G11808   6.422   6.110   9.838  0.3401 -0.4457 -0.7480
  113OSM    C7F11809   6.297   6.272   9.748 -0.2029  1.0826  0.0385
  113OSM    H7F11810   6.344   6.341   9.820  0.7196  2.1677 -1.5753
  113OSM    H7G11811   6.186   6.279   9.743 -0.1414  1.1815 -1.5001
  113OSM    C8F11812   6.369   6.292   9.615  0.4551 -0.0229 -0.0341
  113OSM    H8F11813   6.480   6.279   9.622  0.7113  0.7921 -2.2115
  113OSM    H8G11814   6.362   6.399   9.586  1.3640 -0.5016 -2.0516
  113OSM    C9F11815   6.345   6.205   9.492 -1.4639  0.4955 -0.2914
  113OSM    H9F11816   6.360   6.096   9.497 -2.6905  0.2843 -1.0216
  113OSM   C10F11817   6.293   6.240   9.371 -0.9369 -0.2827 -0.4295
  113OSM   H10F11818   6.272   6.172   9.288 -1.7328 -0.4963 -0.0554
  113OSM   C11F11819   6.244   6.378   9.340  0.0336  0.3434 -1.0629
  113OSM   H11F11820   6.206   6.435   9.427  0.0612 -2.6986  1.0395
  113OSM   H11G11821   6.151   6.359   9.282 -0.6291 -2.5077  0.7860
  113OSM   C12F11822   6.330   6.479   9.257  0.1016 -0.5954  0.5377
  113OSM   H12F11823   6.420   6.505   9.317  0.2642 -1.8141  0.8483
  113OSM   H12G11824   6.266   6.570   9.251 -1.0390 -1.2090  2.9090
  113OSM   C13F11825   6.366   6.424   9.118  0.0610  0.1496 -0.3284
  113OSM   H13F11826   6.273   6.397   9.064  0.2395  1.0320 -1.1013
  113OSM   H13G11827   6.435   6.337   9.120  1.0456  0.8380 -2.6379
  113OSM   C14F11828   6.427   6.536   9.024  0.2560  0.0178  0.0068
  113OSM   H14F11829   6.517   6.580   9.073 -0.0978  1.5405 -0.6872
  113OSM   H14G11830   6.358   6.622   9.012  0.3212  0.2477  1.1653
  113OSM   C15F11831   6.465   6.480   8.889  0.2880  0.3034  0.2239
  113OSM   H15F11832   6.476   6.556   8.808  3.3015 -1.8096 -1.4617
  113OSM   H15G11833   6.381   6.412   8.864  1.0878 -0.4456 -0.4554
  113OSM   C16F11834   6.599   6.410   8.890 -0.4279 -0.1624  0.4234
  113OSM   H16F11835   6.591   6.306   8.928  1.3484 -0.6477 -0.4834
  113OSM   H16G11836   6.674   6.458   8.956  0.7404 -1.9021  0.4004
  113OSM   C17F11837   6.666   6.397   8.749  0.4129  0.3183 -0.2931
  113OSM   H17F11838   6.777   6.396   8.762  0.5677  0.6204 -1.4951
  113OSM   H17G11839   6.632   6.485   8.690  0.6735  0.1721 -0.6667
  113OSM   C18F11840   6.618   6.277   8.668  0.0839  0.7050  0.4251
  113OSM   H18F11841   6.509   6.254   8.668  0.0281  0.9612 -0.3252
  113OSM   H18G11842   6.675   6.188   8.702 -1.8497 -0.2553  1.2854
  113OSM   H18H11843   6.644   6.287   8.561  0.0482 -0.2596  0.3207
  114OSM      N11844   1.625   2.265  11.414 -0.1338 -0.6186 -0.2549
  114OSM    C1511845   1.509   2.181  11.467 -0.9431  0.8797 -0.7229
  114OSM   H15A11846   1.412   2.214  11.431 -1.6164 -3.9956 -3.8905
  114OSM   H15B11847   1.519   2.206  11.571  2.1101  1.1224 -1.0263
  114OSM   H15C11848   1.508   2.075  11.446  3.5940  0.3163  1.3044
  114OSM    C1411849   1.611   2.401  11.470  0.1883  0.4635  0.0969
  114OSM   H14A11850   1.514   2.440  11.443 -0.0021  0.8571  1.2987
  114OSM   H14B11851   1.688   2.462  11.425  0.4498 -1.8288 -2.6783
  114OSM   H14C11852   1.620   2.403  11.578  4.2921  0.9955 -0.1753
  114OSM    C1311853   1.757   2.206  11.470 -0.0641  0.1234  0.2990
  114OSM   H13A11854   1.759   2.103  11.437 -3.5857  0.3785 -0.8333
  114OSM   H13B11855   1.758   2.197  11.578  0.6697  1.3723  0.4077
  114OSM   H13C11856   1.842   2.261  11.430 -1.3422  0.8537 -1.4751
  114OSM    C1211857   1.624   2.254  11.262  0.6256  0.5516 -0.2757
  114OSM   H12A11858   1.537   2.305  11.222  0.7136  0.5571 -0.4613
  114OSM   H12B11859   1.609   2.150  11.237  2.4902  0.4340 -0.9990
  114OSM    C1111860   1.748   2.299  11.178  1.1000 -0.1301 -0.1759
  114OSM   H11A11861   1.738   2.269  11.072  0.8727 -2.7026  0.5554
  114OSM   H11B11862   1.840   2.250  11.216 -0.4918 -0.1670  3.8540
  114OSM      P11863   1.696   2.550  11.088  0.3959  0.1639 -0.0648
  114OSM    O1311864   1.553   2.532  11.075 -0.3995  0.3296 -0.5710
  114OSM    O1411865   1.740   2.683  11.137  0.4226  0.0814  0.1612
  114OSM    O1111866   1.769   2.516  10.958  0.1759  0.5047  0.2507
  114OSM    O1211867   1.763   2.442  11.186  0.6516  0.1730 -0.0859
  114OSM    C1S11868   1.723   2.521  10.823 -0.0743  0.0193 -0.5516
  114OSM    H1S11869   1.621   2.565  10.815 -0.3002  0.3783  3.1863
  114OSM    H1T11870   1.712   2.417  10.784 -0.7919  0.1159 -0.6165
  114OSM     NF11871   1.772   2.579  10.593  0.3386  0.0947 -0.0208
  114OSM    HNF11872   1.833   2.536  10.527 -0.1568  0.1065 -0.4984
  114OSM    C2S11873   1.820   2.597  10.730  0.1460  0.4052  0.1961
  114OSM    H2S11874   1.810   2.703  10.763  0.0241  0.2759  0.5781
  114OSM    C3S11875   1.971   2.557  10.752  0.5212 -0.3045  0.3604
  114OSM    H3S11876   1.981   2.450  10.724 -0.7579 -0.8665  1.9767
  114OSM     O311877   2.021   2.578  10.885  0.5443  0.5686 -0.1628
  114OSM    HO311878   1.949   2.547  10.940  1.0548 -1.5694 -0.6193
  114OSM    C4S11879   2.059   2.626  10.654 -0.4453  0.1398 -0.9061
  114OSM    H4S11880   2.086   2.572  10.562  2.7257  0.8920 -0.4624
  114OSM    C5S11881   2.107   2.744  10.670 -0.3490  0.4312 -0.6728
  114OSM    H5S11882   2.088   2.808  10.757  1.3480  1.3135 -0.9251
  114OSM    C6S11883   2.191   2.804  10.558 -0.5728 -0.4673 -0.2553
  114OSM    H6S11884   2.299   2.806  10.584 -0.8713  0.2341  0.9611
  114OSM    H6T11885   2.156   2.909  10.547  0.0862 -0.2512 -0.2801
  114OSM    C7S11886   2.170   2.743  10.415 -0.2206  0.5872 -0.5879
  114OSM    H7S11887   2.062   2.731  10.391 -0.0698 -0.9932 -0.5343
  114OSM    H7T11888   2.218   2.643  10.411 -0.5985  0.4295 -1.1379
  114OSM    C8S11889   2.221   2.837  10.300 -0.5124  0.3447 -0.3275
  114OSM    H8S11890   2.218   2.775  10.207  2.8427 -3.4221  1.8924
  114OSM    H8T11891   2.328   2.849  10.328 -0.3488 -0.0344 -0.7669
  114OSM    C9S11892   2.135   2.965  10.268  0.1362  0.1039 -0.1053
  114OSM    H9S11893   2.112   3.015  10.365  2.3321  0.6342  0.1667
  114OSM    H9T11894   2.047   2.929  10.211  0.4280  1.7513 -1.6733
  114OSM   C10S11895   2.204   3.063  10.169 -0.7403 -0.3555 -0.8731
  114OSM   H10S11896   2.298   3.090  10.221 -1.5743 -1.1713  1.1472
  114OSM   H10T11897   2.162   3.162  10.141  2.7140  1.2122 -0.7625
  114OSM   C11S11898   2.245   2.993  10.042  0.3818  0.1223  1.3860
  114OSM   H11S11899   2.150   2.978   9.986  0.4787  2.4276  0.5602
  114OSM   H11T11900   2.293   2.896  10.065 -0.3793 -0.7315 -0.5254
  114OSM   C12S11901   2.321   3.093   9.945  0.6980  0.5016 -0.7064
  114OSM   H12S11902   2.412   3.126   9.999  2.5914 -2.1948 -2.1098
  114OSM   H12T11903   2.261   3.186   9.935  0.2777  0.4623  1.3968
  114OSM   C13S11904   2.365   3.039   9.812 -0.1725  0.2417 -0.5159
  114OSM   H13S11905   2.285   2.971   9.777  1.8396 -2.5196  0.1407
  114OSM   H13T11906   2.462   2.991   9.835 -0.3749 -0.0137 -0.1911
  114OSM   C14S11907   2.391   3.141   9.692  0.2184 -0.0990  0.0664
  114OSM   H14S11908   2.315   3.221   9.703 -0.3031 -0.4551 -0.9213
  114OSM   H14T11909   2.387   3.079   9.600 -1.9703 -2.5508  1.7192
  114OSM   C15S11910   2.530   3.206   9.698  0.6387 -0.3168  0.4864
  114OSM   H15S11911   2.612   3.131   9.699 -0.6373 -1.7256  0.4424
  114OSM   H15T11912   2.528   3.273   9.786  1.3405 -0.7759  0.8521
  114OSM   C16S11913   2.535   3.288   9.564  0.5742 -0.5293  0.0167
  114OSM   H16S11914   2.455   3.365   9.560  0.5827 -0.5889 -1.6465
  114OSM   H16T11915   2.535   3.217   9.478 -1.8287  0.4205 -0.8096
  114OSM   C17S11916   2.663   3.364   9.538 -0.2393  0.0209 -0.1656
  114OSM   H17S11917   2.757   3.305   9.548  0.0273  0.6239  1.1406
  114OSM   H17T11918   2.662   3.447   9.612  2.4716 -0.3155  0.3222
  114OSM   C18S11919   2.662   3.429   9.401 -0.3864 -0.1954 -0.0975
  114OSM   H18S11920   2.699   3.355   9.327 -0.5785  1.0070 -1.4020
  114OSM   H18T11921   2.726   3.516   9.379  1.3696 -1.9443 -2.1541
  114OSM   H18U11922   2.559   3.452   9.367 -0.3796 -1.7370 -1.2443
  114OSM    C1F11923   1.669   2.638  10.536 -0.4464  0.0256  0.1118
  114OSM     OF11924   1.598   2.716  10.601 -0.0728 -0.4394 -0.4004
  114OSM    C2F11925   1.656   2.626  10.390  0.1460  0.4850  1.2763
  114OSM    H2F11926   1.556   2.669  10.365  0.3855  0.2179 -0.2188
  114OSM    H2G11927   1.645   2.520  10.359 -0.6711  1.1262 -0.7479
  114OSM    C3F11928   1.756   2.699  10.294 -0.3900 -0.0596 -0.3380
  114OSM    H3F11929   1.857   2.657  10.312  0.1183  1.4697  0.4876
  114OSM    H3G11930   1.761   2.810  10.307 -0.5729  0.0975 -1.5965
  114OSM    C4F11931   1.739   2.664  10.148 -0.3087 -0.5368  0.4101
  114OSM    H4F11932   1.639   2.687  10.107  0.3276 -0.5648 -1.2117
  114OSM    H4G11933   1.762   2.559  10.120 -2.8656 -1.2788  0.9508
  114OSM    C5F11934   1.834   2.754  10.074 -0.9886  0.5583 -0.3924
  114OSM    H5F11935   1.939   2.750  10.109 -0.4804 -0.6855 -1.9803
  114OSM    H5G11936   1.790   2.856  10.082 -0.6167  0.7607 -0.9147
  114OSM    C6F11937   1.847   2.720   9.919 -0.4698 -0.5874 -0.0449
  114OSM    H6F11938   1.751   2.730   9.864 -1.4166  0.5881  1.7676
  114OSM    H6G11939   1.894   2.621   9.903  0.8763  0.2559 -1.4784
  114OSM    C7F11940   1.947   2.821   9.854 -0.9368 -0.2220 -0.6178
  114OSM    H7F11941   2.051   2.786   9.872 -1.0229  0.5089  1.5341
  114OSM    H7G11942   1.932   2.921   9.901 -3.3248 -0.5949 -0.5292
  114OSM    C8F11943   1.919   2.840   9.707 -0.0859 -0.1093 -0.3957
  114OSM    H8F11944   1.978   2.926   9.667 -2.5368  1.2365 -1.2184
  114OSM    H8G11945   1.814   2.869   9.689 -0.6463 -2.5677 -1.3713
  114OSM    C9F11946   1.952   2.711   9.632  1.1554  0.0391 -0.6202
  114OSM    H9F11947   2.049   2.667   9.660 -0.0080 -0.3865  3.0402
  114OSM   C10F11948   1.872   2.663   9.538  1.0955  0.0139 -0.6034
  114OSM   H10F11949   1.909   2.566   9.502  0.1674 -0.7211  0.3785
  114OSM   C11F11950   1.744   2.726   9.485  0.4195  0.3441  0.5262
  114OSM   H11F11951   1.764   2.826   9.441 -0.8600  0.1013 -0.6383
  114OSM   H11G11952   1.667   2.756   9.559 -2.3090  0.6039 -2.3236
  114OSM   C12F11953   1.677   2.650   9.370 -0.1285 -0.3500  0.3494
  114OSM   H12F11954   1.583   2.703   9.344 -0.4408 -1.0837 -0.0356
  114OSM   H12G11955   1.645   2.545   9.390  0.4351 -0.7557 -0.8681
  114OSM   C13F11956   1.761   2.658   9.245  0.2236  0.0206 -0.0598
  114OSM   H13F11957   1.860   2.615   9.274  0.5525 -0.4038 -1.7492
  114OSM   H13G11958   1.790   2.760   9.212  0.4093 -0.6429 -2.0341
  114OSM   C14F11959   1.725   2.569   9.127  0.1334 -0.0405 -0.5456
  114OSM   H14F11960   1.735   2.461   9.151 -1.3659 -0.0603  0.0096
  114OSM   H14G11961   1.799   2.571   9.044 -0.5921 -0.3577 -1.2063
  114OSM   C15F11962   1.578   2.591   9.068 -0.1576  0.7809 -0.3262
  114OSM   H15F11963   1.557   2.698   9.046 -1.2962  0.5535 -0.3661
  114OSM   H15G11964   1.494   2.557   9.132  1.1953 -0.7777  0.6601
  114OSM   C16F11965   1.561   2.516   8.922 -0.2725  0.4776  0.5769
  114OSM   H16F11966   1.458   2.512   8.880 -0.7238  0.0513  1.7194
  114OSM   H16G11967   1.592   2.411   8.939  1.4159  0.8486 -0.1131
  114OSM   C17F11968   1.653   2.569   8.809 -0.3375 -0.0312  0.0727
  114OSM   H17F11969   1.758   2.542   8.829 -0.5808  0.9110  2.7998
  114OSM   H17G11970   1.649   2.680   8.815  0.3503 -0.0326  0.5695
  114OSM   C18F11971   1.616   2.527   8.664 -0.1215 -0.3017 -0.3444
  114OSM   H18F11972   1.509   2.544   8.637  0.0286 -1.3074 -1.5845
  114OSM   H18G11973   1.643   2.420   8.649  3.7860  0.2164  2.2616
  114OSM   H18H11974   1.680   2.588   8.598  1.2064 -1.6616 -0.3433
  115OSM      N11975   5.182   1.904  10.954 -1.0666 -0.3357  0.2744
  115OSM    C1511976   5.126   1.795  10.873  0.1431 -0.3776 -0.5090
  115OSM   H15A11977   5.026   1.825  10.844  0.1339  1.5977  1.4200
  115OSM   H15B11978   5.110   1.703  10.927 -0.3163 -0.6583 -1.1171
  115OSM   H15C11979   5.181   1.769  10.784 -1.4310 -0.9266 -1.3462
  115OSM    C1411980   5.185   2.037  10.883 -1.2303 -0.1868  0.7121
  115OSM   H14A11981   5.218   2.022  10.782 -0.9106  0.4253  0.7291
  115OSM   H14B11982   5.239   2.110  10.941 -1.4785  0.9965 -0.5278
  115OSM   H14C11983   5.092   2.090  10.872 -1.0144 -0.1984 -1.2513
  115OSM    C1311984   5.093   1.932  11.067 -0.3628  0.0966 -0.5249
  115OSM   H13A11985   4.994   1.965  11.038  1.0986  5.7017  0.2339
  115OSM   H13B11986   5.141   1.994  11.141 -1.2054  0.1478 -0.0170
  115OSM   H13C11987   5.082   1.836  11.115  1.9205  0.4338  0.7181
  115OSM    C1211988   5.321   1.860  11.002  0.2704  0.3373  0.0019
  115OSM   H12A11989   5.371   1.845  10.908 -2.4679 -0.3009 -1.4078
  115OSM   H12B11990   5.316   1.763  11.048 -0.2766  0.1964 -0.3551
  115OSM    C1111991   5.410   1.943  11.102  0.1679 -0.0381 -0.0682
  115OSM   H11A11992   5.486   1.870  11.137  0.3018 -0.4647 -1.2252
  115OSM   H11B11993   5.344   1.967  11.188  0.4851 -0.8181  0.3958
  115OSM      P11994   5.593   2.049  10.944 -0.2704 -0.0534  0.0403
  115OSM    O1311995   5.617   2.185  10.901 -0.1068 -0.0508  0.1196
  115OSM    O1411996   5.708   1.976  11.003  0.2829  0.0411  0.9703
  115OSM    O1111997   5.533   1.958  10.824 -0.3251 -0.4475 -0.5995
  115OSM    O1211998   5.459   2.060  11.041 -0.2494  0.7743 -0.4001
  115OSM    C1S11999   5.507   2.016  10.695 -0.0322  0.1579 -0.2247
  115OSM    H1S12000   5.581   2.097  10.676 -0.0035  0.5158  1.3678
  115OSM    H1T12001   5.406   2.062  10.690 -0.6786 -1.1904  0.0189
  115OSM     NF12002   5.487   1.951  10.444 -0.9269 -0.0853 -0.1955
  115OSM    HNF12003   5.407   1.913  10.399 -0.3511  0.6744 -1.8842
  115OSM    C2S12004   5.517   1.902  10.583 -0.2271  0.1126 -0.2339
  115OSM    H2S12005   5.624   1.872  10.592  0.2321  1.5952 -0.6529
  115OSM    C3S12006   5.435   1.768  10.612  0.4454  0.7110 -0.1576
  115OSM    H3S12007   5.328   1.792  10.625  0.6215  0.7692  1.2549
  115OSM     O312008   5.465   1.722  10.737  0.1303 -0.0178  0.5584
  115OSM    HO312009   5.507   1.795  10.782 -0.0435 -0.9642  2.3067
  115OSM    C4S12010   5.448   1.650  10.514 -0.1221  0.1331  0.5279
  115OSM    H4S12011   5.370   1.643  10.437 -0.6847 -1.1602  1.1983
  115OSM    C5S12012   5.544   1.550  10.507 -0.6850  1.3528 -0.1100
  115OSM    H5S12013   5.621   1.531  10.583  1.2291 -1.6295 -2.6622
  115OSM    C6S12014   5.557   1.442  10.409 -0.9291 -0.5264 -0.4676
  115OSM    H6S12015   5.551   1.346  10.464 -1.4413  1.2375  2.6750
  115OSM    H6T12016   5.658   1.465  10.367 -0.0243 -0.8750  1.4525
  115OSM    C7S12017   5.444   1.436  10.296  0.1224 -0.2318 -0.3443
  115OSM    H7S12018   5.438   1.533  10.243  0.0814 -0.8627 -1.4960
  115OSM    H7T12019   5.349   1.418  10.351 -0.4266  2.8475 -0.2195
  115OSM    C8S12020   5.480   1.320  10.199  0.0304  0.2975  0.2943
  115OSM    H8S12021   5.490   1.222  10.251 -0.2203  0.6869  1.0927
  115OSM    H8T12022   5.576   1.340  10.148 -0.2424 -1.1239 -0.8267
  115OSM    C9S12023   5.376   1.303  10.087 -0.2068 -0.1250 -0.1461
  115OSM    H9S12024   5.279   1.292  10.139 -1.2875  1.4078 -1.7438
  115OSM    H9T12025   5.395   1.213  10.025 -0.2710 -0.1941 -0.0637
  115OSM   C10S12026   5.371   1.411   9.978 -0.1030 -0.0827  0.2714
  115OSM   H10S12027   5.470   1.445   9.942 -1.3851 -0.3799 -3.7295
  115OSM   H10T12028   5.328   1.497  10.033  0.7192 -0.1407  1.0304
  115OSM   C11S12029   5.291   1.383   9.857 -0.0998  0.4251 -0.3430
  115OSM   H11S12030   5.183   1.369   9.878  0.1710 -1.1926  0.0486
  115OSM   H11T12031   5.320   1.285   9.814  0.1022 -0.3628  1.4999
  115OSM   C12S12032   5.297   1.497   9.756  0.2256 -0.0634  0.2582
  115OSM   H12S12033   5.400   1.513   9.715 -0.4278  1.0795 -1.0029
  115OSM   H12T12034   5.268   1.590   9.809 -1.0436  0.0416 -0.6066
  115OSM   C13S12035   5.216   1.489   9.624  0.4557  0.1680 -0.4577
  115OSM   H13S12036   5.106   1.478   9.629  0.7224 -3.1529 -0.7970
  115OSM   H13T12037   5.247   1.391   9.581 -1.7020 -2.0059  2.6914
  115OSM   C14S12038   5.256   1.587   9.516  0.2738 -0.1580 -0.3286
  115OSM   H14S12039   5.367   1.587   9.514  0.2646  0.1039 -2.9533
  115OSM   H14T12040   5.236   1.690   9.553 -0.1583 -0.7645  1.1673
  115OSM   C15S12041   5.185   1.570   9.379 -0.8484 -0.5613  0.1071
  115OSM   H15S12042   5.080   1.605   9.388 -0.0440  2.9091 -2.7097
  115OSM   H15T12043   5.170   1.465   9.348  0.4323 -0.3491 -1.2965
  115OSM   C16S12044   5.258   1.645   9.265  0.6279  0.1073 -0.4721
  115OSM   H16S12045   5.354   1.592   9.246  0.0908 -0.0513 -2.8962
  115OSM   H16T12046   5.281   1.745   9.308 -1.1362  1.0161 -1.6075
  115OSM   C17S12047   5.172   1.668   9.130  0.9063 -0.1803 -0.7479
  115OSM   H17S12048   5.228   1.739   9.065  1.1052 -0.1090 -0.4961
  115OSM   H17T12049   5.078   1.725   9.146  0.2733 -0.4165 -3.3025
  115OSM   C18S12050   5.131   1.542   9.049 -0.1168  0.2301 -0.3614
  115OSM   H18S12051   5.052   1.582   8.982  0.3044 -0.7667 -1.4606
  115OSM   H18T12052   5.083   1.474   9.121  2.3153  0.6405  1.7431
  115OSM   H18U12053   5.212   1.495   8.990 -0.0768 -0.5070  0.2770
  115OSM    C1F12054   5.541   2.061  10.399  0.5242  0.3125  0.0382
  115OSM     OF12055   5.640   2.118  10.452 -0.2237  0.1480  0.0572
  115OSM    C2F12056   5.485   2.112  10.270 -0.4426  0.3690 -0.2628
  115OSM    H2F12057   5.397   2.179  10.284 -0.6199  0.2756 -0.8875
  115OSM    H2G12058   5.450   2.019  10.220  0.0335  0.5985 -1.0359
  115OSM    C3F12059   5.583   2.175  10.176 -0.1466  0.2749  0.3700
  115OSM    H3F12060   5.662   2.102  10.149  0.9292  1.3714  0.5293
  115OSM    H3G12061   5.637   2.256  10.230 -0.6957 -0.1163  1.5333
  115OSM    C4F12062   5.506   2.224  10.050 -0.2826  0.1010  0.1625
  115OSM    H4F12063   5.408   2.245  10.099 -1.2757  0.2412 -1.8193
  115OSM    H4G12064   5.487   2.141   9.979  3.4340  0.8345 -1.7633
  115OSM    C5F12065   5.574   2.336   9.973  0.8632 -0.5764  0.1317
  115OSM    H5F12066   5.650   2.283   9.912 -0.8909 -2.9042 -0.1002
  115OSM    H5G12067   5.607   2.406  10.052 -1.3047  1.0011 -0.3067
  115OSM    C6F12068   5.483   2.426   9.877 -0.4564  0.1410 -0.8235
  115OSM    H6F12069   5.557   2.499   9.839  2.9435 -2.7003  0.1411
  115OSM    H6G12070   5.406   2.476   9.940 -0.8809 -0.0169 -1.2093
  115OSM    C7F12071   5.430   2.341   9.760  0.7639 -0.0998 -0.0289
  115OSM    H7F12072   5.364   2.261   9.799 -0.2010 -0.3739 -2.1208
  115OSM    H7G12073   5.517   2.295   9.709  1.5972  0.8803  0.4763
  115OSM    C8F12074   5.356   2.431   9.660 -0.2615 -0.2092  0.1751
  115OSM    H8F12075   5.434   2.508   9.639 -0.8774 -0.1243 -1.9318
  115OSM    H8G12076   5.275   2.491   9.706 -0.3563 -0.2726  0.0892
  115OSM    C9F12077   5.314   2.361   9.535 -0.1094  0.1386 -0.1917
  115OSM    H9F12078   5.281   2.257   9.550 -2.4339  0.4771 -2.5710
  115OSM   C10F12079   5.315   2.405   9.407 -0.0983  0.4142 -0.1649
  115OSM   H10F12080   5.293   2.344   9.319  1.2211 -0.9897  0.4486
  115OSM   C11F12081   5.368   2.536   9.368 -0.2224 -0.6522  0.2818
  115OSM   H11F12082   5.382   2.614   9.446 -0.0435  0.8095 -1.1629
  115OSM   H11G12083   5.312   2.592   9.289 -2.4754  0.1439  2.4002
  115OSM   C12F12084   5.515   2.525   9.327 -0.5013 -0.3500  0.8582
  115OSM   H12F12085   5.531   2.471   9.231 -2.5571 -0.8652  0.7826
  115OSM   H12G12086   5.573   2.470   9.404 -0.3904 -0.7383  0.5000
  115OSM   C13F12087   5.586   2.668   9.324 -0.9331  0.2370 -0.5305
  115OSM   H13F12088   5.693   2.637   9.322 -0.7894  0.4037  2.4079
  115OSM   H13G12089   5.564   2.709   9.424  0.0929  1.2813 -0.7236
  115OSM   C14F12090   5.521   2.760   9.216 -0.5512 -0.0249  0.1939
  115OSM   H14F12091   5.548   2.865   9.238  0.1720  0.0583 -1.0726
  115OSM   H14G12092   5.410   2.748   9.221 -0.5107  0.2151  2.3000
  115OSM   C15F12093   5.568   2.728   9.074  0.1421  0.0480  0.7087
  115OSM   H15F12094   5.538   2.625   9.046  1.3935 -0.0723 -0.2386
  115OSM   H15G12095   5.679   2.722   9.070  0.0465 -2.0877  0.5075
  115OSM   C16F12096   5.523   2.815   8.966  0.1755 -0.3678 -0.0031
  115OSM   H16F12097   5.569   2.913   8.990 -0.7371  0.1171 -0.2036
  115OSM   H16G12098   5.413   2.822   8.956  0.1669  1.1966  1.0746
  115OSM   C17F12099   5.567   2.763   8.821  0.0667  0.4128 -0.4245
  115OSM   H17F12100   5.497   2.682   8.792 -0.7943  0.4601  1.4053
  115OSM   H17G12101   5.665   2.715   8.843 -0.3009 -0.4024 -0.5550
  115OSM   C18F12102   5.567   2.867   8.701  0.2181  0.0967  0.2838
  115OSM   H18F12103   5.595   2.810   8.610 -1.1217 -2.4534  1.3909
  115OSM   H18G12104   5.640   2.950   8.711  0.1046  0.1779  0.4360
  115OSM   H18H12105   5.468   2.914   8.683  1.4538  1.3156 -3.8733
  116OSM      N12106   1.237   5.529  10.961  0.0377 -0.3606  0.0713
  116OSM    C1512107   1.270   5.673  10.947  0.3407  0.6164  0.5972
  116OSM   H15A12108   1.248   5.710  10.848 -3.4957  1.9869  1.8953
  116OSM   H15B12109   1.371   5.704  10.972  0.8353 -0.9808  0.6100
  116OSM   H15C12110   1.207   5.727  11.016  0.2395  0.4267  0.6520
  116OSM    C1412111   1.295   5.473  11.089 -0.4098  0.2677 -0.3667
  116OSM   H14A12112   1.306   5.366  11.088  3.2517  0.6023 -0.7586
  116OSM   H14B12113   1.237   5.510  11.173  2.6699 -1.0633  2.4248
  116OSM   H14C12114   1.389   5.523  11.104  0.8517 -2.1943  0.0766
  116OSM    C1312115   1.093   5.487  10.951  0.5977 -0.3089  0.3194
  116OSM   H13A12116   1.090   5.388  10.997  0.8834  0.2885  1.6535
  116OSM   H13B12117   1.053   5.500  10.852  0.7303 -0.9301  0.1780
  116OSM   H13C12118   1.034   5.541  11.024 -0.5851 -2.5453  1.1019
  116OSM    C1212119   1.313   5.459  10.849 -0.3967 -0.0294  0.1755
  116OSM   H12A12120   1.418   5.471  10.868 -0.7154 -0.4801  2.2597
  116OSM   H12B12121   1.285   5.510  10.757  1.8715  0.8335 -0.0760
  116OSM    C1112122   1.286   5.303  10.820  0.0859  0.1999  0.3339
  116OSM   H11A12123   1.362   5.265  10.748 -0.9570 -1.7586  0.2222
  116OSM   H11B12124   1.186   5.290  10.773  0.4630  0.2004 -0.4668
  116OSM      P12125   1.251   5.080  10.946 -0.0643 -0.0718 -0.0994
  116OSM    O1312126   1.325   5.007  11.049 -0.0126 -0.8617  0.1859
  116OSM    O1412127   1.103   5.063  10.963 -0.4815  0.0433 -0.2445
  116OSM    O1112128   1.286   5.024  10.807  0.0067  0.4928 -0.0853
  116OSM    O1212129   1.296   5.233  10.945  0.7257 -0.1904  0.1847
  116OSM    C1S12130   1.337   4.892  10.783  0.3401 -0.0551 -0.2026
  116OSM    H1S12131   1.277   4.816  10.837 -0.6022  0.5371 -0.4044
  116OSM    H1T12132   1.444   4.888  10.815 -0.2445 -0.4808  1.7740
  116OSM     NF12133   1.361   4.711  10.616  0.1087 -0.6002  0.1946
  116OSM    HNF12134   1.453   4.678  10.597 -0.6379 -0.9193 -2.9748
  116OSM    C2S12135   1.330   4.853  10.636  0.4249 -0.4996 -0.5326
  116OSM    H2S12136   1.224   4.867  10.605  0.2275  1.3684  0.8769
  116OSM    C3S12137   1.427   4.948  10.553 -0.1376  0.3739  0.3338
  116OSM    H3S12138   1.532   4.939  10.588 -0.0397  1.2495  0.2681
  116OSM     O312139   1.406   5.087  10.572 -0.3102  0.3104 -0.1671
  116OSM    HO312140   1.346   5.096  10.647  0.0774  1.5321 -0.0047
  116OSM    C4S12141   1.413   4.918  10.412  0.1166  0.2508 -0.2097
  116OSM    H4S12142   1.307   4.907  10.382  0.2724  2.0024 -1.4009
  116OSM    C5S12143   1.516   4.893  10.324  0.8941  0.0788  0.2854
  116OSM    H5S12144   1.619   4.897  10.360  0.6720  0.0733  0.9249
  116OSM    C6S12145   1.515   4.854  10.178  0.2842  0.1662  1.0532
  116OSM    H6S12146   1.556   4.752  10.168  3.0621  1.3086  0.4211
  116OSM    H6T12147   1.587   4.915  10.119  0.5050 -0.9069  0.2054
  116OSM    C7S12148   1.380   4.855  10.115 -0.0868  0.2627  0.5610
  116OSM    H7S12149   1.333   4.956  10.121  2.0216  1.3854 -1.2015
  116OSM    H7T12150   1.323   4.777  10.171 -0.5840  0.5724  0.4893
  116OSM    C8S12151   1.381   4.808   9.966  0.5693 -0.0533 -0.1193
  116OSM    H8S12152   1.285   4.762   9.935  1.1638 -1.6836  0.3835
  116OSM    H8T12153   1.464   4.737   9.945  1.3553  0.4577  1.1929
  116OSM    C9S12154   1.410   4.935   9.872  0.5359  0.3461 -0.5457
  116OSM    H9S12155   1.501   4.993   9.900  0.8690 -0.3497 -0.1683
  116OSM    H9T12156   1.317   4.994   9.883  0.9610  1.2953 -1.8222
  116OSM   C10S12157   1.429   4.905   9.723 -0.5413  0.6901  0.0240
  116OSM   H10S12158   1.371   4.821   9.681 -0.2234  0.8748 -0.7802
  116OSM   H10T12159   1.532   4.866   9.707 -0.3097  1.1579  0.3648
  116OSM   C11S12160   1.412   5.033   9.635  0.1653 -0.0500 -0.3221
  116OSM   H11S12161   1.483   5.110   9.673 -1.7738  2.1544 -1.0854
  116OSM   H11T12162   1.308   5.069   9.650  0.3349  0.7248 -0.9594
  116OSM   C12S12163   1.439   5.011   9.487  0.2862 -0.0115 -0.0080
  116OSM   H12S12164   1.490   4.912   9.484 -1.7849 -1.1594  1.0334
  116OSM   H12T12165   1.504   5.096   9.457 -0.8962  1.3906  1.3007
  116OSM   C13S12166   1.310   5.002   9.410 -0.5453 -0.3716  0.0146
  116OSM   H13S12167   1.245   5.090   9.430  0.1559  0.1449  0.0460
  116OSM   H13T12168   1.245   4.920   9.446 -1.3636  0.4448  0.4180
  116OSM   C14S12169   1.332   5.000   9.267 -0.2120  0.1398  0.8606
  116OSM   H14S12170   1.393   5.088   9.236  0.3165 -0.8662 -1.0376
  116OSM   H14T12171   1.236   5.025   9.215 -0.2531  2.4210  1.9745
  116OSM   C15S12172   1.385   4.868   9.208  0.4763  1.0792  0.0070
  116OSM   H15S12173   1.337   4.781   9.259  0.6850  0.2532 -1.1874
  116OSM   H15T12174   1.492   4.866   9.236  0.7943 -2.0458 -1.1932
  116OSM   C16S12175   1.357   4.863   9.055 -0.4458  0.1239  0.8931
  116OSM   H16S12176   1.248   4.850   9.043  0.0747 -1.1736 -2.9406
  116OSM   H16T12177   1.403   4.765   9.029  2.5931  2.1532 -1.8696
  116OSM   C17S12178   1.427   4.973   8.972  0.3479 -0.0013  0.7498
  116OSM   H17S12179   1.522   4.995   9.024  0.5002 -0.7441  0.7910
  116OSM   H17T12180   1.380   5.073   8.966  0.7704  0.1447 -0.3335
  116OSM   C18S12181   1.464   4.920   8.834  0.4771  0.0362 -0.5857
  116OSM   H18S12182   1.379   4.936   8.764  0.7802  0.0364 -0.9558
  116OSM   H18T12183   1.490   4.812   8.835 -1.6148 -0.5087  2.6388
  116OSM   H18U12184   1.549   4.982   8.798 -0.3466  1.4953 -0.0587
  116OSM    C1F12185   1.265   4.618  10.647  0.7545 -0.7699 -0.0598
  116OSM     OF12186   1.161   4.652  10.697  0.7865 -0.2428  0.6208
  116OSM    C2F12187   1.286   4.472  10.636 -0.0299  0.4041  0.2257
  116OSM    H2F12188   1.306   4.439  10.740 -0.7868  0.6416  0.4535
  116OSM    H2G12189   1.370   4.450  10.566 -1.3691  1.2506 -1.7260
  116OSM    C3F12190   1.161   4.413  10.576  0.4051  0.2944  0.4042
  116OSM    H3F12191   1.071   4.460  10.621  1.6999  1.5568  1.7362
  116OSM    H3G12192   1.171   4.302  10.581  0.1834  0.2302 -0.4623
  116OSM    C4F12193   1.145   4.433  10.424  0.3315  0.1182  0.3576
  116OSM    H4F12194   1.232   4.377  10.384 -1.8319 -1.4335 -2.3706
  116OSM    H4G12195   1.152   4.533  10.377 -1.8716  0.3440  0.4760
  116OSM    C5F12196   1.027   4.354  10.380  0.3280 -0.2971 -0.2114
  116OSM    H5F12197   0.931   4.389  10.424 -1.7439 -3.9367 -1.6039
  116OSM    H5G12198   1.034   4.249  10.417 -0.1588  0.3250  1.6761
  116OSM    C6F12199   1.013   4.352  10.232  0.1430 -0.5239  0.4865
  116OSM    H6F12200   1.122   4.352  10.209 -0.2328 -0.9235 -1.3512
  116OSM    H6G12201   0.989   4.444  10.176 -1.4791  0.4023  2.6022
  116OSM    C7F12202   0.934   4.228  10.175 -0.3038  0.0638  0.4661
  116OSM    H7F12203   0.832   4.218  10.220  0.2975  1.8545  2.2854
  116OSM    H7G12204   0.996   4.140  10.202  0.8604  0.6932 -0.1345
  116OSM    C8F12205   0.914   4.249  10.021 -0.1333 -0.4601  0.1949
  116OSM    H8F12206   1.017   4.255   9.979 -0.4466 -0.5416 -0.6037
  116OSM    H8G12207   0.869   4.350  10.008 -1.1776 -1.0166 -0.6182
  116OSM    C9F12208   0.842   4.154   9.926  0.6089  0.6435  0.0653
  116OSM    H9F12209   0.764   4.097   9.978 -0.0627  0.4627 -1.1229
  116OSM   C10F12210   0.863   4.128   9.798 -0.2352  0.0448 -0.1997
  116OSM   H10F12211   0.798   4.059   9.741  1.9138 -0.5588 -1.9992
  116OSM   C11F12212   0.963   4.201   9.713  0.8522  0.0095  0.1177
  116OSM   H11F12213   1.061   4.153   9.734  0.8412 -0.3711 -0.6908
  116OSM   H11G12214   0.966   4.308   9.744 -0.4013  0.1792 -0.3367
  116OSM   C12F12215   0.916   4.210   9.564  0.3565  0.1194  0.5511
  116OSM   H12F12216   0.825   4.272   9.549 -0.2734 -1.0069 -0.3050
  116OSM   H12G12217   0.907   4.104   9.533 -2.0543 -0.0672  1.8042
  116OSM   C13F12218   1.023   4.275   9.469 -0.5454 -0.0367 -0.8778
  116OSM   H13F12219   1.117   4.218   9.481 -0.0439  1.0553  0.5493
  116OSM   H13G12220   1.045   4.379   9.503  0.3032 -0.4845 -0.0560
  116OSM   C14F12221   0.974   4.277   9.324  0.0108 -0.4195  0.0080
  116OSM   H14F12222   0.870   4.312   9.307 -0.2808 -1.3175 -0.0758
  116OSM   H14G12223   0.981   4.174   9.284  0.9906 -0.1128 -0.6297
  116OSM   C15F12224   1.068   4.357   9.236 -0.3933  0.3378  0.0150
  116OSM   H15F12225   1.169   4.311   9.240 -0.9178 -0.7222  1.6852
  116OSM   H15G12226   1.091   4.457   9.278  4.1995 -1.7851  2.8869
  116OSM   C16F12227   1.024   4.368   9.090  0.0578 -0.3538 -0.1239
  116OSM   H16F12228   0.915   4.386   9.101 -0.0474 -1.3739  0.5093
  116OSM   H16G12229   1.042   4.275   9.032  1.6873  1.2374 -2.3252
  116OSM   C17F12230   1.083   4.486   9.008  0.2405 -0.0876  0.4706
  116OSM   H17F12231   1.193   4.473   9.020  0.5723  0.4325 -1.7492
  116OSM   H17G12232   1.059   4.592   9.029 -0.2085 -0.5165  2.1481
  116OSM   C18F12233   1.062   4.473   8.851 -0.1941 -0.6932 -0.1184
  116OSM   H18F12234   1.098   4.566   8.801  1.3862 -0.6162  1.1303
  116OSM   H18G12235   0.954   4.463   8.828 -0.0958 -0.7029 -0.5819
  116OSM   H18H12236   1.120   4.386   8.812 -0.3716 -1.8338  2.1392
  117OSM      N12237   5.568   6.090  11.239 -0.9196  0.0779  0.3003
  117OSM    C1512238   5.622   6.233  11.245 -0.2327  0.7263 -0.3801
  117OSM   H15A12239   5.637   6.279  11.341  1.3254  1.4612 -0.9559
  117OSM   H15B12240   5.571   6.316  11.199  0.6873  1.4137 -0.1785
  117OSM   H15C12241   5.721   6.236  11.202 -0.4003  1.1286 -0.7345
  117OSM    C1412242   5.658   6.002  11.319  0.2999  0.2850  0.3632
  117OSM   H14A12243   5.626   5.899  11.326  0.6093  0.1540 -0.1079
  117OSM   H14B12244   5.680   6.035  11.419 -2.3292 -1.1428  1.4594
  117OSM   H14C12245   5.751   5.982  11.268  0.5885 -0.1933  1.0777
  117OSM    C1312246   5.427   6.090  11.295 -0.5881  0.3618 -0.0482
  117OSM   H13A12247   5.357   6.108  11.215  1.0727 -0.2798 -1.6942
  117OSM   H13B12248   5.420   6.172  11.365 -1.6804  0.0636  0.2047
  117OSM   H13C12249   5.418   5.988  11.330  1.4395  0.1172 -0.1978
  117OSM    C1212250   5.558   6.052  11.085  0.6704 -0.3749  0.3532
  117OSM   H12A12251   5.477   6.115  11.048  0.6865 -0.7537 -0.3434
  117OSM   H12B12252   5.513   5.954  11.086 -2.5626  1.0407  0.4123
  117OSM    C1112253   5.696   6.042  11.003  0.6348 -0.0657  0.7360
  117OSM   H11A12254   5.749   6.139  11.004  0.1905  0.1847  0.1281
  117OSM   H11B12255   5.666   6.030  10.897  0.6798 -0.0694  0.7246
  117OSM      P12256   5.728   5.784  11.011  0.0074 -0.3518 -0.3944
  117OSM    O1312257   5.838   5.698  11.071  0.3742 -0.3416 -0.6506
  117OSM    O1412258   5.592   5.756  11.054 -0.3023  0.4855 -0.1689
  117OSM    O1112259   5.748   5.788  10.855 -0.1045 -0.1979  0.1024
  117OSM    O1212260   5.766   5.931  11.054  0.6851  0.3418 -0.1841
  117OSM    C1S12261   5.877   5.803  10.798  1.0645 -0.1570  0.0291
  117OSM    H1S12262   5.950   5.733  10.844 -0.6485 -0.6549  2.0832
  117OSM    H1T12263   5.914   5.905  10.822  1.2055  0.0196 -0.9313
  117OSM     NF12264   6.000   5.803  10.575  0.0273 -0.2281  0.2500
  117OSM    HNF12265   6.001   5.878  10.509  0.6652  0.1362  0.6609
  117OSM    C2S12266   5.870   5.786  10.644  0.3117  0.7478 -0.4404
  117OSM    H2S12267   5.840   5.679  10.637  2.4152 -0.0887  2.5853
  117OSM    C3S12268   5.753   5.872  10.578  0.3044 -0.5726 -0.2276
  117OSM    H3S12269   5.780   5.977  10.602 -0.7550 -0.3169 -0.0986
  117OSM     O312270   5.628   5.838  10.634 -0.1324  0.5013 -0.7943
  117OSM    HO312271   5.650   5.790  10.714  0.0248  0.0153 -1.1257
  117OSM    C4S12272   5.749   5.849  10.429 -0.7253  0.0178  0.2464
  117OSM    H4S12273   5.700   5.755  10.400  0.1732 -0.5682  0.6356
  117OSM    C5S12274   5.796   5.922  10.328  0.0227  0.0265 -0.1121
  117OSM    H5S12275   5.865   6.003  10.356 -1.6746  2.0285 -1.4732
  117OSM    C6S12276   5.785   5.890  10.178 -1.0632 -0.6317 -0.2741
  117OSM    H6S12277   5.764   5.986  10.126 -1.1687  0.1204  1.1323
  117OSM    H6T12278   5.693   5.832  10.154 -2.9402  2.0240  0.1991
  117OSM    C7S12279   5.919   5.821  10.132 -0.1499 -0.0653 -0.0755
  117OSM    H7S12280   5.930   5.728  10.191 -2.2856  0.7311  1.6426
  117OSM    H7T12281   6.005   5.885  10.159 -0.2847  0.3997 -0.7452
  117OSM    C8S12282   5.931   5.792   9.979  1.2404  0.3964 -0.5459
  117OSM    H8S12283   5.847   5.723   9.953 -0.5127  1.5485  1.8158
  117OSM    H8T12284   6.025   5.739   9.952  0.0428 -1.5387 -1.0852
  117OSM    C9S12285   5.921   5.923   9.897  0.1903  0.0384  0.5005
  117OSM    H9S12286   5.988   5.998   9.946  2.2565 -0.0172 -2.0985
  117OSM    H9T12287   5.818   5.963   9.896  0.2648  0.2309 -2.6228
  117OSM   C10S12288   5.971   5.895   9.756  0.1926  0.0269  0.2990
  117OSM   H10S12289   6.049   5.817   9.767  0.7245  0.1354 -2.3399
  117OSM   H10T12290   6.021   5.982   9.708 -2.2968  0.5269 -1.4919
  117OSM   C11S12291   5.856   5.825   9.672  0.4266  0.7489  0.6523
  117OSM   H11S12292   5.764   5.886   9.664 -0.3863 -0.4754  0.5692
  117OSM   H11T12293   5.838   5.726   9.719  3.2333 -0.0423  0.1156
  117OSM   C12S12294   5.898   5.819   9.520  0.6343 -0.3581  0.1943
  117OSM   H12S12295   5.843   5.739   9.466 -2.1870  1.1704  0.7446
  117OSM   H12T12296   6.006   5.793   9.524  0.8042  0.6569  2.5068
  117OSM   C13S12297   5.886   5.958   9.445 -0.1262 -0.2386 -0.1299
  117OSM   H13S12298   5.925   6.036   9.514 -0.7920  1.1061 -1.2442
  117OSM   H13T12299   5.782   5.976   9.413 -0.6517 -1.6638  0.7290
  117OSM   C14S12300   5.976   5.967   9.316  0.0911 -0.4990 -0.6330
  117OSM   H14S12301   5.984   5.866   9.270  0.7485 -0.4062 -0.7218
  117OSM   H14T12302   6.072   6.008   9.354  1.7671 -1.6959 -3.4300
  117OSM   C15S12303   5.915   6.055   9.208  0.9384  0.2222  0.3592
  117OSM   H15S12304   5.900   6.155   9.254  0.1351  0.2438  0.0649
  117OSM   H15T12305   5.814   6.014   9.186 -0.1010  1.6205  2.4529
  117OSM   C16S12306   6.005   6.073   9.087  0.5265 -0.2602  0.1743
  117OSM   H16S12307   6.030   5.980   9.033 -2.5631 -0.3203 -1.2210
  117OSM   H16T12308   6.101   6.116   9.124  2.4235 -2.4853 -2.0301
  117OSM   C17S12309   5.943   6.175   8.991  0.1559  0.1040  0.4704
  117OSM   H17S12310   5.901   6.262   9.045  0.4806  2.0284 -2.2652
  117OSM   H17T12311   5.856   6.129   8.940 -0.0846 -0.3474  1.2944
  117OSM   C18S12312   6.036   6.215   8.879  0.4002 -0.0541  0.9145
  117OSM   H18S12313   6.140   6.233   8.912  1.6104 -1.5513 -1.8767
  117OSM   H18T12314   5.996   6.314   8.847  0.4723 -0.4439 -0.4035
  117OSM   H18U12315   6.033   6.149   8.790 -0.5538 -0.0575  0.9382
  117OSM    C1F12316   6.106   5.717  10.596 -0.7662 -0.7115  0.0441
  117OSM     OF12317   6.082   5.608  10.640  0.0954 -0.0474 -0.2903
  117OSM    C2F12318   6.247   5.770  10.553 -0.4286  0.0328  0.0541
  117OSM    H2F12319   6.308   5.782  10.645  1.0516  0.0014 -0.9118
  117OSM    H2G12320   6.240   5.868  10.501 -0.9597  0.2721  0.5671
  117OSM    C3F12321   6.319   5.666  10.458 -0.0196 -0.1268 -0.3274
  117OSM    H3F12322   6.302   5.560  10.487  0.3728 -0.4018 -1.0873
  117OSM    H3G12323   6.426   5.684  10.481 -0.0999  0.0381 -0.0735
  117OSM    C4F12324   6.284   5.685  10.303  0.5489 -0.0156 -0.6843
  117OSM    H4F12325   6.289   5.792  10.273 -1.1500 -0.5057 -2.8274
  117OSM    H4G12326   6.180   5.655  10.281  0.6766 -0.4146 -0.7523
  117OSM    C5F12327   6.383   5.603  10.215  0.4843 -0.0246  0.4582
  117OSM    H5F12328   6.385   5.503  10.262 -1.9465 -0.6215 -0.6221
  117OSM    H5G12329   6.482   5.646  10.239  0.2643  1.3526 -0.9743
  117OSM    C6F12330   6.337   5.606  10.066  0.2442  0.3395  0.4632
  117OSM    H6F12331   6.233   5.572  10.047  0.5820 -0.2514 -0.3360
  117OSM    H6G12332   6.401   5.533  10.013 -0.7614 -1.8383  2.1384
  117OSM    C7F12333   6.345   5.738   9.976 -0.4209 -0.4253  0.0718
  117OSM    H7F12334   6.438   5.787  10.012 -1.1873  1.1160 -0.0120
  117OSM    H7G12335   6.260   5.806   9.996 -0.9605 -1.6360  1.9543
  117OSM    C8F12336   6.380   5.696   9.828  0.3416  0.4129 -0.1097
  117OSM    H8F12337   6.484   5.655   9.834 -0.3934 -1.3860  0.6504
  117OSM    H8G12338   6.393   5.799   9.788 -0.6446 -0.4436 -2.7504
  117OSM    C9F12339   6.286   5.620   9.754  0.2111 -0.0327  0.4441
  117OSM    H9F12340   6.214   5.567   9.818  1.8167  0.4555  2.6981
  117OSM   C10F12341   6.267   5.636   9.625  0.6168  0.0372 -0.0141
  117OSM   H10F12342   6.208   5.565   9.565 -0.0829  1.1865 -0.7345
  117OSM   C11F12343   6.337   5.729   9.525 -0.4552  0.2612 -0.3318
  117OSM   H11F12344   6.419   5.791   9.565 -1.5257  1.0864  0.6214
  117OSM   H11G12345   6.264   5.802   9.482 -0.9136 -0.1900 -0.3305
  117OSM   C12F12346   6.381   5.647   9.402  0.4230  0.4679 -0.2645
  117OSM   H12F12347   6.428   5.551   9.431  1.1878  0.0178 -2.8843
  117OSM   H12G12348   6.456   5.710   9.351 -0.0521  0.9720 -0.3452
  117OSM   C13F12349   6.263   5.622   9.302 -0.1461  0.4348  0.0103
  117OSM   H13F12350   6.217   5.722   9.284 -1.1939 -0.3228 -1.6052
  117OSM   H13G12351   6.192   5.549   9.345  2.7099 -2.1153  0.5398
  117OSM   C14F12352   6.305   5.560   9.170  0.6460 -0.6230 -0.1672
  117OSM   H14F12353   6.347   5.459   9.188  2.5600 -0.0770 -1.4271
  117OSM   H14G12354   6.390   5.617   9.127  0.9083 -2.1684 -1.7470
  117OSM   C15F12355   6.203   5.567   9.057  0.5041  0.2034  0.5595
  117OSM   H15F12356   6.195   5.676   9.041  0.7905  0.0367 -0.8281
  117OSM   H15G12357   6.101   5.534   9.087  0.6449  1.3278  2.2871
  117OSM   C16F12358   6.251   5.513   8.922 -0.1151 -0.3270  0.5093
  117OSM   H16F12359   6.273   5.405   8.937  2.4664  0.4356  2.6003
  117OSM   H16G12360   6.347   5.563   8.899  0.5301 -0.8912  1.9261
  117OSM   C17F12361   6.158   5.533   8.809  0.2872  0.1239 -0.4958
  117OSM   H17F12362   6.131   5.640   8.799  1.2644  0.3547 -0.7079
  117OSM   H17G12363   6.064   5.479   8.834  1.7195 -1.6812  1.2119
  117OSM   C18F12364   6.206   5.477   8.669  0.4647  0.3099  0.2297
  117OSM   H18F12365   6.250   5.375   8.677  2.5070  1.0631 -0.9483
  117OSM   H18G12366   6.279   5.544   8.619  0.2148  0.1817 -0.3054
  117OSM   H18H12367   6.119   5.474   8.600 -0.7145  2.2218  1.5614
  118OSM      N12368   6.322   6.589  11.067  0.5102 -0.2824  0.2322
  118OSM    C1512369   6.188   6.531  11.024  1.0105 -0.5228  0.2144
  118OSM   H15A12370   6.124   6.613  10.997  3.0599  1.3420  0.9245
  118OSM   H15B12371   6.141   6.478  11.106  0.3882 -1.6312 -0.8450
  118OSM   H15C12372   6.201   6.476  10.932 -0.6487  1.7535 -1.4492
  118OSM    C1412373   6.304   6.662  11.200 -0.3223 -0.7825 -0.1218
  118OSM   H14A12374   6.397   6.700  11.239  0.0817  0.2666 -2.0210
  118OSM   H14B12375   6.254   6.602  11.274  0.3427  0.2006  1.1535
  118OSM   H14C12376   6.243   6.751  11.185  1.0957  0.1186 -0.6096
  118OSM    C1312377   6.423   6.485  11.090  0.3052  0.0354 -0.1452
  118OSM   H13A12378   6.384   6.399  11.141  2.1224 -0.1826  0.9007
  118OSM   H13B12379   6.506   6.529  11.143 -0.5617  1.8263 -0.2311
  118OSM   H13C12380   6.451   6.443  10.994  0.1135  0.4455 -0.3817
  118OSM    C1212381   6.376   6.684  10.962 -0.4250 -0.3909 -0.6625
  118OSM   H12A12382   6.419   6.634  10.877  1.6684  1.2386 -0.5999
  118OSM   H12B12383   6.457   6.743  11.003  0.2755 -0.0682 -2.4817
  118OSM    C1112384   6.270   6.785  10.907 -0.4835 -0.5840  0.3470
  118OSM   H11A12385   6.190   6.730  10.854  0.7498 -0.5646 -1.5746
  118OSM   H11B12386   6.327   6.845  10.833  0.7821 -0.0860  1.7105
  118OSM      P12387   6.052   6.906  10.990  0.1223  0.2085  0.1155
  118OSM    O1312388   5.962   6.788  11.000  0.4837  0.3942  0.6098
  118OSM    O1412389   6.030   7.012  11.096  0.0121  0.6856 -0.6145
  118OSM    O1112390   6.034   6.964  10.840 -0.2533  0.3858 -0.2323
  118OSM    O1212391   6.205   6.871  11.007  0.0896  0.0952 -0.0195
  118OSM    C1S12392   6.128   7.062  10.779  0.9169  0.2791  0.8111
  118OSM    H1S12393   6.233   7.028  10.790  1.5943  1.5597 -1.2855
  118OSM    H1T12394   6.120   7.162  10.826 -0.2503  0.3851  0.3965
  118OSM     NF12395   6.204   7.140  10.562  0.1255  0.2524  0.4571
  118OSM    HNF12396   6.200   7.232  10.526  0.3043 -0.5184 -1.6098
  118OSM    C2S12397   6.090   7.080  10.626  0.3408  0.3254  0.1471
  118OSM    H2S12398   6.078   6.975  10.592  2.7287 -0.0564  0.4096
  118OSM    C3S12399   5.961   7.166  10.604  0.5560  0.7884 -0.2002
  118OSM    H3S12400   5.981   7.273  10.623 -0.1913  1.3445 -2.4110
  118OSM     O312401   5.850   7.137  10.692 -0.0940 -0.5440 -0.3818
  118OSM    HO312402   5.894   7.095  10.766  0.0351  0.9013  0.3659
  118OSM    C4S12403   5.925   7.162  10.457 -0.5488  0.3988 -0.7983
  118OSM    H4S12404   5.900   7.064  10.413 -0.2236  0.3104 -0.7911
  118OSM    C5S12405   5.915   7.268  10.380  0.3395  0.1477 -0.1490
  118OSM    H5S12406   5.933   7.368  10.422 -1.9864  1.0861 -1.3346
  118OSM    C6S12407   5.883   7.256  10.235 -0.0880  0.1870  0.6366
  118OSM    H6S12408   5.813   7.338  10.208 -0.0424 -0.2327 -0.7754
  118OSM    H6T12409   5.832   7.161  10.211 -1.2830  0.7428  0.9399
  118OSM    C7S12410   6.009   7.280  10.157  0.2188  0.1809 -0.3984
  118OSM    H7S12411   6.084   7.199  10.170  0.6991  0.8522  1.1447
  118OSM    H7T12412   6.066   7.371  10.186 -1.2131  0.2763  2.1946
  118OSM    C8S12413   5.988   7.304  10.012 -0.4008  0.4970  0.6548
  118OSM    H8S12414   5.944   7.406  10.010  0.1290  0.8534  3.7811
  118OSM    H8T12415   5.915   7.234   9.967 -1.5242  1.1363  1.4453
  118OSM    C9S12416   6.123   7.316   9.936 -0.8386 -0.1190 -0.1274
  118OSM    H9S12417   6.164   7.215   9.915 -0.4405  0.1949 -0.8672
  118OSM    H9T12418   6.190   7.373  10.004  0.9045 -1.5913 -0.5694
  118OSM   C10S12419   6.104   7.393   9.797  0.6159  0.1056  0.9352
  118OSM   H10S12420   6.058   7.491   9.819 -0.5906 -0.9310  3.1208
  118OSM   H10T12421   6.029   7.342   9.733 -0.2800  1.1265  1.1725
  118OSM   C11S12422   6.225   7.410   9.700 -0.0908  0.1086 -0.1748
  118OSM   H11S12423   6.267   7.307   9.692 -1.1527 -0.3714  0.2768
  118OSM   H11T12424   6.295   7.477   9.753 -0.3333  0.0831  0.1801
  118OSM   C12S12425   6.199   7.477   9.564  0.2738 -0.4097  0.1920
  118OSM   H12S12426   6.293   7.523   9.527 -0.3089  2.9288  2.5930
  118OSM   H12T12427   6.137   7.567   9.585 -0.9251 -0.7858 -1.6317
  118OSM   C13S12428   6.130   7.396   9.453 -0.2303 -0.2765 -0.8973
  118OSM   H13S12429   6.030   7.364   9.489 -1.6671  1.9009 -2.7806
  118OSM   H13T12430   6.192   7.308   9.428 -1.1189 -1.4622  0.9152
  118OSM   C14S12431   6.119   7.484   9.324  0.5432 -0.3189 -0.8050
  118OSM   H14S12432   6.213   7.543   9.321  1.0219 -0.8578  2.0257
  118OSM   H14T12433   6.027   7.546   9.334 -2.6335 -4.0545 -4.7897
  118OSM   C15S12434   6.094   7.395   9.205 -0.2987 -0.2131  0.5636
  118OSM   H15S12435   6.001   7.339   9.229 -1.7952  0.9567 -2.3183
  118OSM   H15T12436   6.178   7.323   9.207 -0.3825 -0.5939 -3.9719
  118OSM   C16S12437   6.078   7.458   9.064 -0.5913  0.5598  0.3070
  118OSM   H16S12438   6.165   7.522   9.037 -0.7206  0.2880 -0.8056
  118OSM   H16T12439   5.993   7.528   9.056  0.0393  1.6662  2.8061
  118OSM   C17S12440   6.042   7.355   8.956 -0.2437 -0.5600  0.4745
  118OSM   H17S12441   6.006   7.406   8.864  1.4005 -0.7635 -0.3058
  118OSM   H17T12442   5.960   7.296   9.002  0.4299 -1.7187  0.2109
  118OSM   C18S12443   6.156   7.262   8.912  0.0059 -0.2794  0.2999
  118OSM   H18S12444   6.239   7.317   8.863  1.1274 -1.5108  0.7972
  118OSM   H18T12445   6.125   7.190   8.834  0.4103 -0.1009 -0.0331
  118OSM   H18U12446   6.195   7.203   8.998  0.0142  0.1882  0.6178
  118OSM    C1F12447   6.313   7.071  10.527  0.7930 -0.7787  0.0159
  118OSM     OF12448   6.344   6.962  10.572 -0.2915 -0.5387 -0.5860
  118OSM    C2F12449   6.413   7.159  10.452  0.7561  0.1905  0.2004
  118OSM    H2F12450   6.516   7.137  10.486  0.6028  1.9437  1.8593
  118OSM    H2G12451   6.392   7.267  10.468  0.3406 -0.1772  2.2339
  118OSM    C3F12452   6.403   7.110  10.299 -0.4410  0.6856  0.1137
  118OSM    H3F12453   6.303   7.145  10.266  0.8655  2.6595 -1.8750
  118OSM    H3G12454   6.416   7.000  10.297 -0.4052  0.6955 -0.5134
  118OSM    C4F12455   6.505   7.167  10.197  0.0391  0.0038  1.1926
  118OSM    H4F12456   6.607   7.157  10.240  1.7348  0.0787 -2.6212
  118OSM    H4G12457   6.489   7.277  10.195  1.2608  0.1864  1.3938
  118OSM    C5F12458   6.478   7.099  10.061  0.8301  0.0490 -1.2088
  118OSM    H5F12459   6.369   7.113  10.041  0.5124  1.1772  1.1858
  118OSM    H5G12460   6.497   6.990  10.068 -0.3869 -0.2026 -1.6444
  118OSM    C6F12461   6.558   7.154   9.942  0.5749  0.3367  0.6540
  118OSM    H6F12462   6.667   7.147   9.964  0.8227  3.4083  0.7026
  118OSM    H6G12463   6.551   7.265   9.945  0.4792  0.3299  0.6595
  118OSM    C7F12464   6.533   7.097   9.805 -0.2521  0.7562  0.3254
  118OSM    H7F12465   6.443   7.146   9.762 -0.4636 -0.3003 -0.4294
  118OSM    H7G12466   6.500   6.992   9.818 -2.3191  1.2457 -0.8682
  118OSM    C8F12467   6.660   7.108   9.715 -0.1192  0.9237 -0.2169
  118OSM    H8F12468   6.621   7.064   9.621  0.2511  0.1265 -0.0034
  118OSM    H8G12469   6.738   7.041   9.757 -0.0416  1.6575  0.8176
  118OSM    C9F12470   6.699   7.249   9.699  0.5076  0.1513 -0.1211
  118OSM    H9F12471   6.782   7.282   9.762  0.6493  0.0936 -0.2769
  118OSM   C10F12472   6.651   7.335   9.609 -0.3391 -0.7245 -0.6050
  118OSM   H10F12473   6.708   7.429   9.611 -2.2014  0.4271 -0.1371
  118OSM   C11F12474   6.541   7.318   9.502  0.2946 -0.2760  0.0621
  118OSM   H11F12475   6.440   7.348   9.535  0.0249  0.0784 -1.0444
  118OSM   H11G12476   6.528   7.216   9.458 -0.7570 -1.1183  2.2899
  118OSM   C12F12477   6.585   7.395   9.372 -0.0859 -0.4074  0.7557
  118OSM   H12F12478   6.509   7.365   9.296  0.5832 -0.4823  0.1195
  118OSM   H12G12479   6.682   7.369   9.325 -0.0473 -1.3492  1.3420
  118OSM   C13F12480   6.575   7.546   9.382 -0.0796 -0.3305 -0.1755
  118OSM   H13F12481   6.625   7.597   9.467 -1.1604  2.9672 -1.4517
  118OSM   H13G12482   6.468   7.573   9.386  0.0673  0.2515 -0.1834
  118OSM   C14F12483   6.640   7.620   9.259  0.1374  0.2754 -0.1906
  118OSM   H14F12484   6.751   7.624   9.262  0.1275  2.8152 -1.4797
  118OSM   H14G12485   6.608   7.725   9.275 -0.9802  0.2572 -2.1971
  118OSM   C15F12486   6.592   7.576   9.119  0.5662 -0.2071 -0.2343
  118OSM   H15F12487   6.485   7.557   9.143  0.4811  1.5902  0.9622
  118OSM   H15G12488   6.633   7.480   9.083 -2.2099 -1.5850  0.1621
  118OSM   C16F12489   6.623   7.686   9.014 -0.1811  0.5223 -0.3814
  118OSM   H16F12490   6.615   7.641   8.913 -0.2720  0.8500 -0.5205
  118OSM   H16G12491   6.731   7.708   9.026 -0.4171 -0.0091  3.3179
  118OSM   C17F12492   6.534   7.802   9.028 -0.1040 -0.5061  0.9489
  118OSM   H17F12493   6.546   7.852   9.127  0.3151 -0.9350  1.1225
  118OSM   H17G12494   6.429   7.771   9.015 -0.1362 -0.4714  1.1190
  118OSM   C18F12495   6.572   7.903   8.921  0.1426  0.2014  0.3029
  118OSM   H18F12496   6.555   7.859   8.821 -0.8784 -2.5824  1.6173
  118OSM   H18G12497   6.677   7.937   8.930  0.9822 -1.9923 -0.9331
  118OSM   H18H12498   6.516   7.998   8.932 -2.0086 -1.2476  2.6202
  119OSM      N12499   1.099   6.203  11.537  0.5299 -0.2502 -0.4599
  119OSM    C1512500   1.202   6.313  11.521  0.6205 -0.4491 -0.1427
  119OSM   H15A12501   1.268   6.318  11.606  0.1113  0.0813  0.2257
  119OSM   H15B12502   1.153   6.409  11.518  1.2245 -0.1224  0.4350
  119OSM   H15C12503   1.263   6.296  11.433  1.3054 -0.0460  0.2540
  119OSM    C1412504   1.169   6.074  11.522 -0.2826 -1.1045 -0.9374
  119OSM   H14A12505   1.257   6.069  11.584 -0.7424 -0.2168 -0.2157
  119OSM   H14B12506   1.210   6.080  11.422  0.8644  1.0145 -0.3518
  119OSM   H14C12507   1.099   5.992  11.524  0.5673 -1.8102  1.4971
  119OSM    C1312508   1.042   6.209  11.679 -0.3938 -0.7284  0.1690
  119OSM   H13A12509   1.120   6.189  11.751  0.7101 -1.3414 -1.1611
  119OSM   H13B12510   0.959   6.141  11.692 -0.9733 -0.0301  0.1375
  119OSM   H13C12511   1.002   6.308  11.694  0.8723 -0.2388  0.3670
  119OSM    C1212512   0.988   6.223  11.433 -0.5885 -0.9796  0.9598
  119OSM   H12A12513   0.917   6.297  11.467 -0.4385 -1.1902  1.7508
  119OSM   H12B12514   0.931   6.131  11.432 -0.1410 -1.2908 -2.3152
  119OSM    C1112515   1.029   6.253  11.282 -0.2742 -0.1714  0.3364
  119OSM   H11A12516   1.075   6.352  11.302 -0.2497 -0.1567  0.2102
  119OSM   H11B12517   0.936   6.263  11.223  0.1323 -0.6031 -0.3869
  119OSM      P12518   1.211   6.194  11.110  0.1219  0.2266  0.4843
  119OSM    O1312519   1.291   6.309  11.161  0.2567  0.0094  0.0996
  119OSM    O1412520   1.292   6.077  11.068  0.0975  0.1289  0.4391
  119OSM    O1112521   1.120   6.243  10.987 -0.0033  0.2848  0.3817
  119OSM    O1212522   1.110   6.147  11.225  0.0065 -0.1040 -0.4014
  119OSM    C1S12523   1.018   6.151  10.947 -0.2395 -0.0021 -0.1623
  119OSM    H1S12524   0.936   6.160  11.022  0.3876 -3.0738  0.9296
  119OSM    H1T12525   1.053   6.046  10.943  2.8957  0.9056  2.0719
  119OSM     NF12526   0.829   6.109  10.779 -0.3928  0.3317  0.3350
  119OSM    HNF12527   0.854   6.026  10.729  0.5812  0.5561  0.4341
  119OSM    C2S12528   0.950   6.191  10.808 -0.0824  0.7593  0.3884
  119OSM    H2S12529   0.907   6.292  10.822  0.8587  1.1155  0.7157
  119OSM    C3S12530   1.051   6.195  10.689 -0.1909  0.0784  0.0789
  119OSM    H3S12531   1.088   6.093  10.666 -0.0473  0.3232 -0.7922
  119OSM     O312532   1.164   6.280  10.719 -0.2991  0.1442  0.1142
  119OSM    HO312533   1.165   6.290  10.815  1.9766 -0.1606  0.1359
  119OSM    C4S12534   0.983   6.236  10.560  0.0057 -0.4057  0.0021
  119OSM    H4S12535   0.962   6.148  10.497 -2.3095  0.9995 -1.2631
  119OSM    C5S12536   0.955   6.362  10.518  0.2767 -0.3678 -0.1723
  119OSM    H5S12537   0.986   6.444  10.586 -0.2969  1.0234 -1.5727
  119OSM    C6S12538   0.897   6.391  10.380 -0.3315  0.4228 -0.2196
  119OSM    H6S12539   0.969   6.430  10.305 -0.2006  0.5798 -0.0114
  119OSM    H6T12540   0.824   6.472  10.395 -2.8872 -1.8241 -0.1292
  119OSM    C7S12541   0.812   6.271  10.314  0.6490 -0.2167  0.0420
  119OSM    H7S12542   0.727   6.239  10.378  2.4950 -2.0562  1.6642
  119OSM    H7T12543   0.884   6.187  10.302  0.6625 -0.5399  2.2373
  119OSM    C8S12544   0.748   6.305  10.179 -0.0213  1.1261  0.2080
  119OSM    H8S12545   0.703   6.215  10.133  0.8374  1.1089 -0.6242
  119OSM    H8T12546   0.831   6.340  10.114 -0.4345  1.0548 -0.3564
  119OSM    C9S12547   0.640   6.414  10.186 -0.1536 -0.1651 -0.0396
  119OSM    H9S12548   0.675   6.501  10.126 -0.2468  0.9964  1.5528
  119OSM    H9T12549   0.616   6.448  10.289  0.0793 -0.0302 -0.0273
  119OSM   C10S12550   0.510   6.363  10.134  0.4423  0.3167 -0.0581
  119OSM   H10S12551   0.432   6.436  10.163  1.0431  1.3309 -0.9465
  119OSM   H10T12552   0.483   6.266  10.181  0.8333  0.4692  0.4855
  119OSM   C11S12553   0.504   6.359   9.980  0.1505 -0.2514 -0.1677
  119OSM   H11S12554   0.578   6.282   9.951 -0.9679 -0.6667 -2.0083
  119OSM   H11T12555   0.540   6.457   9.940  1.8459 -0.2031  1.3954
  119OSM   C12S12556   0.363   6.300   9.948  1.0229 -0.4128  0.1216
  119OSM   H12S12557   0.294   6.384   9.967  1.8085  0.5311 -1.1026
  119OSM   H12T12558   0.339   6.211  10.010 -2.4457 -1.2488 -2.2770
  119OSM   C13S12559   0.346   6.260   9.802 -0.1859 -0.3997 -0.1126
  119OSM   H13S12560   0.389   6.161   9.776 -0.0221 -0.6919  1.2009
  119OSM   H13T12561   0.415   6.328   9.748  0.6722  1.2798  2.9906
  119OSM   C14S12562   0.203   6.269   9.736  0.9037 -0.0305 -0.2245
  119OSM   H14S12563   0.155   6.364   9.771  0.2937 -0.0042 -1.1218
  119OSM   H14T12564   0.134   6.186   9.762 -1.4590  1.7011 -0.7297
  119OSM   C15S12565   0.212   6.258   9.584 -0.6015 -0.0358 -0.3788
  119OSM   H15S12566   0.249   6.156   9.560  0.4317  0.1452  0.4163
  119OSM   H15T12567   0.290   6.327   9.546  0.2421 -1.1815 -0.7643
  119OSM   C16S12568   0.088   6.285   9.501  0.0147 -1.1604 -0.4396
  119OSM   H16S12569   0.004   6.226   9.544 -0.4482 -0.5297 -0.4633
  119OSM   H16T12570   0.104   6.260   9.394  0.6152  0.8965 -0.8548
  119OSM   C17S12571   0.041   6.431   9.515  0.1963  0.3329 -0.0194
  119OSM   H17S12572   0.122   6.502   9.488  1.6124 -0.2520  2.5575
  119OSM   H17T12573   0.025   6.454   9.622  0.9718 -1.9894  0.6088
  119OSM   C18S12574  -0.086   6.465   9.432  0.2007  0.0996 -0.0358
  119OSM   H18S12575  -0.173   6.404   9.465 -0.4524 -0.0314 -1.9102
  119OSM   H18T12576  -0.079   6.457   9.321 -1.7362  1.1477 -0.2775
  119OSM   H18U12577  -0.113   6.573   9.440  2.7123  0.9512 -2.2556
  119OSM    C1F12578   0.724   6.116  10.858 -0.5534  0.0487 -0.3546
  119OSM     OF12579   0.725   6.185  10.964  0.1931 -0.0022 -0.0480
  119OSM    C2F12580   0.610   6.027  10.815  0.3626  0.1514  0.5508
  119OSM    H2F12581   0.579   5.956  10.894  1.1955 -0.9249 -0.0770
  119OSM    H2G12582   0.635   5.960  10.730  1.6221 -0.3588  1.3196
  119OSM    C3F12583   0.484   6.112  10.774 -0.2689 -0.0850 -0.5244
  119OSM    H3F12584   0.451   6.157  10.870  1.6291  0.9602 -0.3371
  119OSM    H3G12585   0.402   6.045  10.742 -0.4634 -0.8974  1.6105
  119OSM    C4F12586   0.508   6.231  10.676 -0.2510 -0.4493  0.5692
  119OSM    H4F12587   0.557   6.184  10.588 -0.2236 -1.8468  1.3193
  119OSM    H4G12588   0.566   6.317  10.714  0.7833 -1.5101  1.4324
  119OSM    C5F12589   0.366   6.269  10.623  0.0175  0.5510  0.0579
  119OSM    H5F12590   0.315   6.315  10.710  0.2649 -0.1225  0.5645
  119OSM    H5G12591   0.306   6.180  10.594 -0.4402  0.0605  2.3756
  119OSM    C6F12592   0.367   6.366  10.505  0.7486 -0.1751  1.4706
  119OSM    H6F12593   0.404   6.317  10.413  0.2563 -2.7001  2.5554
  119OSM    H6G12594   0.436   6.450  10.528  0.4071  0.3114  0.7342
  119OSM    C7F12595   0.235   6.447  10.487 -0.0213 -0.6278 -0.1767
  119OSM    H7F12596   0.252   6.529  10.414  1.3039  1.0869  2.0075
  119OSM    H7G12597   0.195   6.477  10.586  3.8488 -0.2615  1.3626
  119OSM    C8F12598   0.118   6.360  10.432 -0.5157  0.1143 -0.4409
  119OSM    H8F12599   0.019   6.407  10.451 -0.0110  0.6313  0.9563
  119OSM    H8G12600   0.105   6.274  10.501 -2.3484 -1.2802 -2.4583
  119OSM    C9F12601   0.124   6.318  10.289 -0.6168 -0.4192  0.5558
  119OSM    H9F12602   0.202   6.244  10.267 -0.8578 -0.0730 -1.4915
  119OSM   C10F12603   0.038   6.348  10.194  0.0005  0.3674  0.6939
  119OSM   H10F12604   0.054   6.294  10.100 -1.0605  1.6383 -0.2245
  119OSM   C11F12605  -0.079   6.445  10.200  0.3144 -0.5816 -0.0261
  119OSM   H11F12606  -0.070   6.508  10.109  0.7188 -0.7260 -0.0888
  119OSM   H11G12607  -0.080   6.515  10.286  0.8524 -0.8132  0.1694
  119OSM   C12F12608  -0.227   6.387  10.196  0.2672  0.1155 -0.0350
  119OSM   H12F12609  -0.235   6.313  10.278 -0.5921 -2.1348 -2.1022
  119OSM   H12G12610  -0.244   6.334  10.100  0.0785  0.7925 -0.3817
  119OSM   C13F12611  -0.324   6.501  10.216 -0.6470  0.2057  0.8503
  119OSM   H13F12612  -0.320   6.551  10.315 -0.5513  1.9952 -0.0355
  119OSM   H13G12613  -0.427   6.459  10.216 -0.8045  0.5805  1.4742
  119OSM   C14F12614  -0.325   6.611  10.107 -0.2524 -0.4143 -0.3229
  119OSM   H14F12615  -0.225   6.659  10.108 -0.4625  0.0242 -0.1808
  119OSM   H14G12616  -0.403   6.688  10.123 -0.6502 -0.9578  0.4149
  119OSM   C15F12617  -0.352   6.562   9.962  0.0006  0.4447  0.0851
  119OSM   H15F12618  -0.460   6.536   9.962 -0.7073  3.1125 -2.5533
  119OSM   H15G12619  -0.292   6.475   9.928  1.6464  2.1494 -1.5383
  119OSM   C16F12620  -0.325   6.680   9.867  0.3149 -0.2275 -0.5154
  119OSM   H16F12621  -0.237   6.736   9.904  0.4609 -0.1861 -0.9278
  119OSM   H16G12622  -0.414   6.747   9.876  0.4522  0.2879 -2.7628
  119OSM   C17F12623  -0.294   6.643   9.718 -0.0389 -0.4127  0.5424
  119OSM   H17F12624  -0.243   6.546   9.706  0.7147  0.0759 -0.2389
  119OSM   H17G12625  -0.225   6.721   9.680  0.5172 -0.8453  0.6555
  119OSM   C18F12626  -0.422   6.660   9.631 -0.3797  0.0875  0.3681
  119OSM   H18F12627  -0.471   6.756   9.655 -3.4557 -1.7065  1.6289
  119OSM   H18G12628  -0.499   6.584   9.656  1.2003 -1.1534  1.6001
  119OSM   H18H12629  -0.395   6.653   9.523 -1.1304 -1.6557  0.2671
  120OSM      N12630   6.780   3.089  10.873 -0.2730  0.4270 -0.4391
  120OSM    C1512631   6.814   2.942  10.864 -0.1146  0.6041 -0.0034
  120OSM   H15A12632   6.814   2.896  10.961 -0.6642 -0.9336 -0.7074
  120OSM   H15B12633   6.911   2.932  10.817 -0.1833 -0.3307  0.0483
  120OSM   H15C12634   6.745   2.886  10.802  0.1451 -1.0247  1.1636
  120OSM    C1412635   6.830   3.142  11.001  0.1570  0.6663  0.0651
  120OSM   H14A12636   6.806   3.092  11.093 -2.4667  0.8220 -0.5070
  120OSM   H14B12637   6.792   3.242  11.015 -2.2226 -0.3123  0.7652
  120OSM   H14C12638   6.938   3.146  11.009  0.2358  0.0075 -0.6507
  120OSM    C1312639   6.830   3.175  10.771  0.2026  0.3929  0.2577
  120OSM   H13A12640   6.766   3.260  10.754 -0.9934 -0.3982  0.7443
  120OSM   H13B12641   6.839   3.123  10.676  2.9056 -0.1278  0.7676
  120OSM   H13C12642   6.933   3.206  10.780  0.3852  0.7531 -2.4481
  120OSM    C1212643   6.629   3.094  10.875 -0.0267 -0.2401  0.1612
  120OSM   H12A12644   6.595   3.184  10.923  0.4201  0.5015 -0.8952
  120OSM   H12B12645   6.596   3.005  10.926 -1.2047 -0.2519 -0.6196
  120OSM    C1112646   6.562   3.077  10.738 -0.0823  0.4832 -0.2690
  120OSM   H11A12647   6.592   3.143  10.655  1.2316  0.0158 -0.1728
  120OSM   H11B12648   6.456   3.105  10.760 -1.1352 -1.8391 -2.1280
  120OSM      P12649   6.469   2.834  10.698  0.7155 -0.0825  0.1721
  120OSM    O1312650   6.509   2.706  10.751  0.8169  0.7537  0.0999
  120OSM    O1412651   6.347   2.903  10.759 -1.0213  0.1364  0.0174
  120OSM    O1112652   6.448   2.811  10.543  0.5298  0.2454 -0.8021
  120OSM    O1212653   6.589   2.939  10.694  0.3073 -0.4698 -0.2482
  120OSM    C1S12654   6.402   2.913  10.451  0.8069 -0.8960  0.0672
  120OSM    H1S12655   6.458   3.007  10.473  0.8348 -0.7290 -0.7190
  120OSM    H1T12656   6.296   2.942  10.466  0.5462 -1.2671 -0.9983
  120OSM     NF12657   6.450   2.969  10.201 -0.0804  0.5025 -0.1075
  120OSM    HNF12658   6.379   2.972  10.131  0.0332 -2.1351 -0.3909
  120OSM    C2S12659   6.431   2.863  10.304  0.5333  0.0281 -0.1471
  120OSM    H2S12660   6.525   2.805  10.311  0.1945 -0.7777 -1.8956
  120OSM    C3S12661   6.309   2.766  10.264  0.3035  0.0831 -0.1433
  120OSM    H3S12662   6.211   2.815  10.245  0.7705  0.7899 -0.7591
  120OSM     O312663   6.274   2.668  10.364 -0.4580 -0.3562 -0.5369
  120OSM    HO312664   6.344   2.675  10.430 -0.0196  2.1641 -1.1760
  120OSM    C4S12665   6.354   2.695  10.144  0.6860 -0.4821 -0.1734
  120OSM    H4S12666   6.345   2.758  10.054  1.5999  1.9189  1.3748
  120OSM    C5S12667   6.421   2.577  10.137  0.0447  0.7798 -0.0300
  120OSM    H5S12668   6.448   2.523  10.228  0.5364  0.4743 -0.3563
  120OSM    C6S12669   6.464   2.507  10.015  0.7611  0.6359 -0.0265
  120OSM    H6S12670   6.442   2.399  10.028 -0.5150  1.2956  4.2375
  120OSM    H6T12671   6.574   2.497  10.005  0.7383  0.0103  0.2906
  120OSM    C7S12672   6.428   2.564   9.876  0.3705 -0.0381  0.0351
  120OSM    H7S12673   6.458   2.671   9.863  0.4636 -0.0119  0.4620
  120OSM    H7T12674   6.317   2.568   9.876  0.3381 -0.0844  2.5014
  120OSM    C8S12675   6.486   2.479   9.768 -0.0819 -0.9003 -0.3385
  120OSM    H8S12676   6.458   2.372   9.780 -1.7829 -0.3203  1.1753
  120OSM    H8T12677   6.596   2.490   9.773 -0.0129 -1.7255  0.0284
  120OSM    C9S12678   6.439   2.516   9.623 -0.0786  0.0460  0.3056
  120OSM    H9S12679   6.329   2.518   9.614  0.0696  0.1444 -1.8213
  120OSM    H9T12680   6.470   2.437   9.551  1.4291  1.4925 -0.6682
  120OSM   C10S12681   6.492   2.640   9.562 -0.2997  0.3993 -0.9603
  120OSM   H10S12682   6.602   2.652   9.572 -0.4747  0.1530  1.5574
  120OSM   H10T12683   6.456   2.733   9.611  0.6978  1.2417 -1.8002
  120OSM   C11S12684   6.475   2.663   9.412 -0.4149  0.6024 -0.4706
  120OSM   H11S12685   6.524   2.763   9.403  1.7681 -0.2978  1.0980
  120OSM   H11T12686   6.369   2.680   9.382 -0.5236 -1.7176 -1.5177
  120OSM   C12S12687   6.536   2.553   9.325  0.4187 -0.4096  0.3712
  120OSM   H12S12688   6.463   2.475   9.296 -1.3517  1.6825 -0.9073
  120OSM   H12T12689   6.618   2.505   9.382  0.3831 -0.0830  0.6995
  120OSM   C13S12690   6.604   2.619   9.198  0.0182  0.4617 -0.8238
  120OSM   H13S12691   6.697   2.677   9.216 -0.9831  1.7283  0.3472
  120OSM   H13T12692   6.524   2.684   9.156 -0.7234 -1.6505 -2.7999
  120OSM   C14S12693   6.629   2.515   9.092  0.7152  0.5570 -0.9336
  120OSM   H14S12694   6.535   2.458   9.077  0.5077  0.3846  0.8450
  120OSM   H14T12695   6.717   2.454   9.122  1.7765  1.0058 -3.0769
  120OSM   C15S12696   6.680   2.569   8.956  0.5872 -0.1425 -0.1733
  120OSM   H15S12697   6.775   2.626   8.967  0.2096  0.2427  1.1432
  120OSM   H15T12698   6.594   2.630   8.922 -0.6149 -1.6277  0.1214
  120OSM   C16S12699   6.723   2.464   8.854 -0.2748  0.2310 -0.0520
  120OSM   H16S12700   6.661   2.373   8.866  2.1645 -1.5686 -0.7264
  120OSM   H16T12701   6.826   2.428   8.874  0.6090  2.5270 -0.3032
  120OSM   C17S12702   6.714   2.497   8.709  0.2063 -0.0650  0.4651
  120OSM   H17S12703   6.745   2.409   8.649  0.9756  0.1399  0.5525
  120OSM   H17T12704   6.799   2.562   8.677 -0.5184  0.7309  0.1256
  120OSM   C18S12705   6.573   2.539   8.653 -0.1960  0.9968 -0.9609
  120OSM   H18S12706   6.488   2.487   8.703  0.1510 -0.9280 -2.2943
  120OSM   H18T12707   6.552   2.508   8.548 -0.9946  0.4628 -0.6545
  120OSM   H18U12708   6.559   2.649   8.655 -0.1286  0.9893 -0.0166
  120OSM    C1F12709   6.558   3.047  10.195 -0.0122  0.5181 -1.3874
  120OSM     OF12710   6.645   3.053  10.287  0.2586 -0.6128  0.1575
  120OSM    C2F12711   6.586   3.120  10.066 -0.5784  0.0094 -0.2409
  120OSM    H2F12712   6.692   3.153  10.068  0.1482 -2.2347  0.4140
  120OSM    H2G12713   6.519   3.207  10.054  0.3657  0.9178  0.9168
  120OSM    C3F12714   6.543   3.039   9.937  0.7938 -0.3384  0.2709
  120OSM    H3F12715   6.441   2.994   9.940  0.9712 -0.6496  1.6641
  120OSM    H3G12716   6.612   2.953   9.921 -0.8794 -1.4486 -1.2001
  120OSM    C4F12717   6.553   3.127   9.813 -0.1902  0.5090  0.9824
  120OSM    H4F12718   6.649   3.181   9.803 -0.7614  1.1106 -1.7609
  120OSM    H4G12719   6.476   3.207   9.818 -1.2848 -0.5086  0.5968
  120OSM    C5F12720   6.539   3.054   9.682  0.3269 -0.1074 -0.3816
  120OSM    H5F12721   6.450   2.988   9.681 -0.3513  0.7853  0.5985
  120OSM    H5G12722   6.624   2.981   9.682 -1.2703 -2.0326  1.2261
  120OSM    C6F12723   6.551   3.145   9.563  0.8797 -0.6830  0.0606
  120OSM    H6F12724   6.647   3.202   9.558  0.1229  0.4530 -2.6423
  120OSM    H6G12725   6.465   3.215   9.562 -0.4989 -2.3559 -1.6223
  120OSM    C7F12726   6.535   3.057   9.435  0.5347  0.0468 -0.0998
  120OSM    H7F12727   6.439   3.004   9.452  0.7490 -1.0883 -2.2371
  120OSM    H7G12728   6.610   2.975   9.436  1.6427  1.0478  2.8260
  120OSM    C8F12729   6.539   3.135   9.299 -0.1826 -0.3628  0.7122
  120OSM    H8F12730   6.485   3.231   9.310  0.2058  0.1345 -1.5448
  120OSM    H8G12731   6.488   3.061   9.235  1.6306 -1.5473  0.6042
  120OSM    C9F12732   6.684   3.161   9.265 -0.2385  0.2562  0.2313
  120OSM    H9F12733   6.734   3.246   9.313  1.8315  0.1875 -1.7222
  120OSM   C10F12734   6.746   3.101   9.163  0.3666 -0.2305 -0.1260
  120OSM   H10F12735   6.849   3.137   9.148  0.5977 -0.8389  0.0085
  120OSM   C11F12736   6.699   2.992   9.068 -0.2915 -0.2852  0.7493
  120OSM   H11F12737   6.600   2.947   9.090 -0.6206  0.0090 -0.1187
  120OSM   H11G12738   6.771   2.909   9.070  1.6090  1.3392  1.2364
  120OSM   C12F12739   6.695   3.047   8.925  0.3356 -0.2073  0.7177
  120OSM   H12F12740   6.631   3.138   8.929 -1.5068 -1.5403  2.1549
  120OSM   H12G12741   6.638   2.977   8.860  0.0967  1.7187 -1.2277
  120OSM   C13F12742   6.832   3.090   8.869  0.6700  1.0725  0.8460
  120OSM   H13F12743   6.872   3.162   8.944 -1.1157 -1.3915  4.3302
  120OSM   H13G12744   6.821   3.144   8.772  0.3181 -2.4518 -1.1499
  120OSM   C14F12745   6.929   2.964   8.860 -0.5086  0.3125  0.2051
  120OSM   H14F12746   6.968   2.944   8.758  1.1954 -1.0352  1.1061
  120OSM   H14G12747   6.862   2.877   8.872 -1.5722  1.0500 -0.2501
  120OSM   C15F12748   7.061   2.969   8.951  0.0792 -0.5120  0.3769
  120OSM   H15F12749   7.022   2.951   9.053  1.3716  1.6724  1.2727
  120OSM   H15G12750   7.107   3.069   8.933 -0.4975  0.0752  2.1069
  120OSM   C16F12751   7.161   2.858   8.903 -0.2373 -0.2606 -0.4245
  120OSM   H16F12752   7.262   2.880   8.943 -0.0661 -1.3862 -0.2299
  120OSM   H16G12753   7.171   2.854   8.793  1.6253 -0.3931 -0.2601
  120OSM   C17F12754   7.119   2.723   8.958  0.4890 -0.0680 -0.5645
  120OSM   H17F12755   7.031   2.691   8.898 -0.3670 -0.0987  0.6893
  120OSM   H17G12756   7.083   2.742   9.062  1.3999 -2.2772  0.1706
  120OSM   C18F12757   7.233   2.624   8.957  0.2086 -0.1931  0.2705
  120OSM   H18F12758   7.263   2.593   8.854 -0.1566  2.9924 -0.8341
  120OSM   H18G12759   7.210   2.532   9.016 -0.4132 -1.4468 -1.8598
  120OSM   H18H12760   7.322   2.675   9.000  0.4427 -1.9457  1.9157
  121OSM      N12761   4.791   6.326  10.822 -0.8129 -0.4039  0.0825
  121OSM    C1512762   4.742   6.216  10.911 -0.5694 -0.6875  0.0270
  121OSM   H15A12763   4.683   6.146  10.854  0.0274 -0.0794 -1.3794
  121OSM   H15B12764   4.691   6.245  11.002  0.4289  1.4482 -0.0492
  121OSM   H15C12765   4.825   6.160  10.949  0.4665  0.1747 -0.9205
  121OSM    C1412766   4.674   6.397  10.772 -0.6540 -0.4570  0.2025
  121OSM   H14A12767   4.707   6.478  10.708 -0.1152 -1.0320 -0.2489
  121OSM   H14B12768   4.620   6.439  10.856  0.6418  0.2926  0.6900
  121OSM   H14C12769   4.619   6.321  10.720 -1.2633 -1.9902  2.9823
  121OSM    C1312770   4.876   6.418  10.906 -0.2468 -0.4951  0.2482
  121OSM   H13A12771   4.909   6.505  10.851 -1.6314  1.7121  2.7639
  121OSM   H13B12772   4.963   6.373  10.951  0.5293 -1.0767 -1.7672
  121OSM   H13C12773   4.817   6.463  10.985  0.5064 -0.5811  0.8654
  121OSM    C1212774   4.864   6.254  10.705  0.1866  0.1742  0.3091
  121OSM   H12A12775   4.896   6.334  10.639  0.5346  1.1195  1.6011
  121OSM   H12B12776   4.788   6.192  10.660 -1.8980  2.0361  1.1760
  121OSM    C1112777   4.982   6.163  10.743  0.0504  0.0866  0.4727
  121OSM   H11A12778   5.044   6.222  10.814  2.2328  0.2974 -1.5460
  121OSM   H11B12779   5.048   6.138  10.657 -0.4559 -1.5005  0.5311
  121OSM      P12780   4.998   5.959  10.923 -0.3660 -0.3574 -0.0908
  121OSM    O1312781   4.964   6.045  11.042  0.3066  0.1421 -0.4846
  121OSM    O1412782   4.950   5.820  10.919  0.0030  0.1413 -0.7556
  121OSM    O1112783   5.148   5.970  10.900 -0.4439 -0.4835 -0.5658
  121OSM    O1212784   4.930   6.035  10.798 -0.9280  0.1928  1.1100
  121OSM    C1S12785   5.227   5.893  10.812 -0.0448 -0.1858  0.1082
  121OSM    H1S12786   5.183   5.804  10.761  0.9528 -0.2596 -0.6359
  121OSM    H1T12787   5.308   5.845  10.871 -0.0830 -0.3930 -0.0108
  121OSM     NF12788   5.360   5.899  10.606  0.0919 -0.4711 -0.3468
  121OSM    HNF12789   5.459   5.886  10.617 -0.0873 -1.6792 -0.0208
  121OSM    C2S12790   5.295   5.984  10.703 -0.0649 -0.0702  0.2306
  121OSM    H2S12791   5.213   6.036  10.649 -1.2082 -3.2563 -1.1959
  121OSM    C3S12792   5.389   6.082  10.775 -0.1611  0.2052 -0.6656
  121OSM    H3S12793   5.482   6.025  10.799  0.0738  0.5480 -0.7620
  121OSM     O312794   5.351   6.147  10.898 -0.8390 -0.5625 -0.0105
  121OSM    HO312795   5.276   6.092  10.921 -0.0409 -1.3039  0.8738
  121OSM    C4S12796   5.424   6.193  10.681 -0.1950 -0.4008 -0.1418
  121OSM    H4S12797   5.338   6.248  10.641  0.7847  1.8264  0.7177
  121OSM    C5S12798   5.548   6.245  10.654 -0.4073  0.1958 -0.1157
  121OSM    H5S12799   5.638   6.191  10.689 -0.7401  0.2128  0.7918
  121OSM    C6S12800   5.573   6.366  10.562 -0.1184 -0.2445 -0.9231
  121OSM    H6S12801   5.618   6.454  10.613 -2.3896 -1.9815  4.3581
  121OSM    H6T12802   5.479   6.406  10.518 -0.6696  0.8168  1.1455
  121OSM    C7S12803   5.661   6.327  10.436  0.6377  0.6335 -0.5834
  121OSM    H7S12804   5.630   6.226  10.403  2.2350 -0.3625  0.8745
  121OSM    H7T12805   5.765   6.324  10.474  0.8903 -0.1088 -1.3061
  121OSM    C8S12806   5.669   6.431  10.323  0.1426  0.7265 -0.4098
  121OSM    H8S12807   5.696   6.533  10.359  0.5856  0.8680 -1.1449
  121OSM    H8T12808   5.575   6.439  10.264  0.4523  1.0631 -0.8502
  121OSM    C9S12809   5.786   6.400  10.228 -0.1215  0.5347  0.2563
  121OSM    H9S12810   5.768   6.292  10.210 -1.3477  0.8904 -0.7299
  121OSM    H9T12811   5.885   6.408  10.278  0.5316 -1.0201 -0.7502
  121OSM   C10S12812   5.774   6.472  10.101 -0.2420 -0.2524  0.9262
  121OSM   H10S12813   5.761   6.582  10.113  0.5309  0.2237 -2.1221
  121OSM   H10T12814   5.678   6.447  10.050 -0.6951  1.9484  0.6592
  121OSM   C11S12815   5.879   6.435   9.998  0.0952  0.0109 -0.2667
  121OSM   H11S12816   5.885   6.325  10.005 -1.9758  0.0416  2.4593
  121OSM   H11T12817   5.978   6.474  10.031  0.7439  0.2850 -2.4479
  121OSM   C12S12818   5.855   6.479   9.855  0.8315  0.0200 -0.4969
  121OSM   H12S12819   5.857   6.590   9.852  0.5691  0.0147 -0.8948
  121OSM   H12T12820   5.763   6.431   9.816  0.4192  0.8695 -0.5919
  121OSM   C13S12821   5.971   6.423   9.773 -0.2484  1.2038  0.1813
  121OSM   H13S12822   5.990   6.316   9.797 -0.3161  1.3816  1.0158
  121OSM   H13T12823   6.057   6.484   9.805 -0.1364  0.6053  1.0411
  121OSM   C14S12824   5.937   6.444   9.622 -0.8395  0.7076 -1.0329
  121OSM   H14S12825   5.844   6.394   9.588 -0.7304 -0.0272 -0.2616
  121OSM   H14T12826   6.021   6.395   9.568 -1.1295  0.4186 -1.2235
  121OSM   C15S12827   5.928   6.585   9.574 -0.1098 -0.1280  0.6167
  121OSM   H15S12828   6.027   6.633   9.562 -0.3652  0.7494  1.9348
  121OSM   H15T12829   5.863   6.638   9.646  0.5438 -0.3089  1.3384
  121OSM   C16S12830   5.854   6.616   9.441  0.1717 -0.3387 -0.0689
  121OSM   H16S12831   5.855   6.724   9.415  1.6023 -0.9952 -3.0091
  121OSM   H16T12832   5.748   6.585   9.448  0.3549 -1.2536 -1.2163
  121OSM   C17S12833   5.911   6.552   9.322  0.1423 -0.4989  0.8501
  121OSM   H17S12834   5.918   6.442   9.330  0.8966 -0.6504 -1.4672
  121OSM   H17T12835   6.018   6.578   9.308  0.0127 -1.2348 -1.8178
  121OSM   C18S12836   5.838   6.590   9.193  0.0073 -0.5677 -0.0548
  121OSM   H18S12837   5.887   6.549   9.102 -2.5157  0.8237 -2.0991
  121OSM   H18T12838   5.838   6.701   9.181  0.8182 -0.7277 -1.7439
  121OSM   H18U12839   5.730   6.567   9.194  0.1897 -1.5109 -1.2100
  121OSM    C1F12840   5.292   5.831  10.520 -0.5139  0.4333 -0.1308
  121OSM     OF12841   5.174   5.829  10.524 -0.2585  0.1661 -0.1868
  121OSM    C2F12842   5.368   5.759  10.411  0.8063 -0.1118 -0.2822
  121OSM    H2F12843   5.432   5.679  10.453  1.1141  0.6311  0.6605
  121OSM    H2G12844   5.439   5.836  10.375  0.8165  0.6709  1.3662
  121OSM    C3F12845   5.274   5.700  10.301  0.5801 -0.1080 -0.8778
  121OSM    H3F12846   5.200   5.770  10.256 -0.5512 -0.6763  0.0579
  121OSM    H3G12847   5.204   5.624  10.343  1.5698 -0.6607 -0.1961
  121OSM    C4F12848   5.354   5.629  10.194 -0.7788 -0.1005 -0.4077
  121OSM    H4F12849   5.302   5.539  10.152 -1.4280  0.6860 -1.3093
  121OSM    H4G12850   5.444   5.581  10.239 -0.9350 -1.3167 -1.3643
  121OSM    C5F12851   5.406   5.727  10.084  0.4540  0.0728  0.1766
  121OSM    H5F12852   5.505   5.682  10.060  0.5124  1.0585 -1.4977
  121OSM    H5G12853   5.417   5.827  10.130 -1.5412  0.5078 -0.2548
  121OSM    C6F12854   5.312   5.724   9.963 -0.1563 -0.0096  0.0497
  121OSM    H6F12855   5.208   5.734   9.999  0.1899 -0.6974  1.2693
  121OSM    H6G12856   5.327   5.633   9.901  1.9825  2.4741 -3.2458
  121OSM    C7F12857   5.333   5.833   9.862 -0.3959  0.3349 -0.0287
  121OSM    H7F12858   5.308   5.928   9.915 -2.6338  0.3232 -1.0151
  121OSM    H7G12859   5.257   5.816   9.784  0.2678 -2.6907 -0.0719
  121OSM    C8F12860   5.475   5.830   9.801 -0.3554  0.1799 -0.6037
  121OSM    H8F12861   5.554   5.816   9.878 -0.6890 -5.5458 -1.0971
  121OSM    H8G12862   5.497   5.923   9.744 -1.8883  1.3249  0.6339
  121OSM    C9F12863   5.492   5.722   9.700  0.6245 -0.1160  0.7647
  121OSM    H9F12864   5.531   5.623   9.728  0.9281 -0.0734  0.5029
  121OSM   C10F12865   5.476   5.736   9.572  0.0053 -0.2725 -0.5353
  121OSM   H10F12866   5.510   5.657   9.504  2.0041 -1.9684  2.3487
  121OSM   C11F12867   5.423   5.869   9.506  0.8140 -0.2931  0.1478
  121OSM   H11F12868   5.498   5.950   9.515  0.6464 -0.4073  3.0551
  121OSM   H11G12869   5.335   5.909   9.562  0.3363 -1.7398  0.4545
  121OSM   C12F12870   5.399   5.856   9.359  0.5371  0.1479 -0.2883
  121OSM   H12F12871   5.345   5.947   9.324 -0.1511  0.0823  0.5798
  121OSM   H12G12872   5.325   5.773   9.353  0.4912  0.1602  0.0725
  121OSM   C13F12873   5.530   5.832   9.272  0.4061 -0.4045 -0.8918
  121OSM   H13F12874   5.593   5.743   9.296  0.6517 -0.3756 -1.4190
  121OSM   H13G12875   5.591   5.924   9.286 -0.8552  0.6448 -2.1493
  121OSM   C14F12876   5.494   5.812   9.124  0.0246 -0.3055  0.6935
  121OSM   H14F12877   5.430   5.892   9.082 -2.0421 -2.7721 -1.0051
  121OSM   H14G12878   5.432   5.721   9.107 -0.1751  0.1067 -0.7884
  121OSM   C15F12879   5.634   5.803   9.049  0.9084  0.1704  1.0088
  121OSM   H15F12880   5.701   5.749   9.119  0.0447 -1.4749  0.5912
  121OSM   H15G12881   5.666   5.908   9.032  0.8930  0.6547  3.7406
  121OSM   C16F12882   5.631   5.725   8.913 -0.0972  0.2650  0.3272
  121OSM   H16F12883   5.581   5.772   8.826 -2.9104 -1.5273  0.9108
  121OSM   H16G12884   5.571   5.635   8.938 -2.2329  1.8946  1.2445
  121OSM   C17F12885   5.772   5.696   8.863  0.1773 -1.0026 -1.4625
  121OSM   H17F12886   5.798   5.589   8.879  0.8611 -0.3261  2.3239
  121OSM   H17G12887   5.845   5.759   8.919  1.3948 -0.9866 -3.0316
  121OSM   C18F12888   5.787   5.723   8.715 -0.3483  0.4591  0.1841
  121OSM   H18F12889   5.782   5.833   8.702  3.0241  0.6554 -0.0375
  121OSM   H18G12890   5.708   5.678   8.650  0.8553 -1.8777  0.2789
  121OSM   H18H12891   5.888   5.691   8.680  0.0204 -0.6991  2.2386
  122OSM      N12892   6.061   3.852  11.133 -0.0608  0.5303  0.5595
  122OSM    C1512893   6.092   3.863  11.280  1.2250  0.3509  0.4068
  122OSM   H15A12894   6.042   3.948  11.324 -0.0492 -0.3418  0.3146
  122OSM   H15B12895   6.198   3.870  11.298  0.5156  2.4739  4.2060
  122OSM   H15C12896   6.058   3.774  11.330 -0.3643  0.1881 -0.9167
  122OSM    C1412897   6.143   3.750  11.065 -0.1440 -0.2380  0.2845
  122OSM   H14A12898   6.134   3.650  11.104 -1.7534 -1.5301 -3.1607
  122OSM   H14B12899   6.247   3.777  11.074  0.1413 -0.7250 -1.3491
  122OSM   H14C12900   6.113   3.739  10.962 -1.3199  1.5561  0.4108
  122OSM    C1312901   5.920   3.799  11.127 -0.0240 -0.0317  0.5109
  122OSM   H13A12902   5.913   3.693  11.151  1.7862 -0.4651 -0.7611
  122OSM   H13B12903   5.873   3.807  11.030  0.0059  1.5032  0.6117
  122OSM   H13C12904   5.865   3.866  11.191 -0.6037 -0.0366  0.0262
  122OSM    C1212905   6.072   3.988  11.073 -0.2512  0.2722  0.1419
  122OSM   H12A12906   5.998   4.052  11.118  0.6042  0.1677  1.7297
  122OSM   H12B12907   6.039   3.991  10.970 -1.5934 -0.8185  0.5243
  122OSM    C1112908   6.206   4.048  11.067 -0.6904  1.0075 -0.1306
  122OSM   H11A12909   6.249   4.052  11.169  1.1528  0.7585 -0.8718
  122OSM   H11B12910   6.186   4.154  11.041 -1.9820  1.0194  0.8884
  122OSM      P12911   6.286   4.000  10.819 -0.5436 -0.0855  0.1248
  122OSM    O1312912   6.353   3.890  10.749 -0.3603 -0.4703 -0.4109
  122OSM    O1412913   6.143   4.016  10.775 -0.4294  0.4752  0.1202
  122OSM    O1112914   6.364   4.138  10.798 -0.0499  0.2161  0.2032
  122OSM    O1212915   6.297   3.979  10.979  0.2401  0.1449 -0.0874
  122OSM    C1S12916   6.455   4.165  10.692 -0.6238  0.2057 -0.4049
  122OSM    H1S12917   6.535   4.089  10.703 -2.2324 -1.5032 -0.2988
  122OSM    H1T12918   6.503   4.262  10.718 -0.5630  0.4067 -1.2577
  122OSM     NF12919   6.517   4.168  10.456  1.0605  0.6002  0.2403
  122OSM    HNF12920   6.543   4.259  10.425  0.7648  0.4713 -0.3862
  122OSM    C2S12921   6.400   4.163  10.547  0.7945 -0.6404 -0.5204
  122OSM    H2S12922   6.351   4.066  10.522  2.9749 -1.4284 -1.9059
  122OSM    C3S12923   6.294   4.276  10.521 -0.4045 -0.0509  0.4164
  122OSM    H3S12924   6.341   4.372  10.550 -0.4398  0.1048 -0.0499
  122OSM     O312925   6.175   4.273  10.603  0.6607 -0.1813 -0.1360
  122OSM    HO312926   6.185   4.191  10.651 -0.7023  0.4848  1.3276
  122OSM    C4S12927   6.256   4.278  10.377 -0.1700  0.5763 -0.4496
  122OSM    H4S12928   6.337   4.341  10.336 -0.1709  1.3257  0.6697
  122OSM    C5S12929   6.161   4.216  10.301 -0.0823 -0.1062  0.0960
  122OSM    H5S12930   6.090   4.143  10.341 -0.9183 -0.5626 -2.1670
  122OSM    C6S12931   6.147   4.228  10.152 -0.1740  0.0565 -0.2704
  122OSM    H6S12932   6.058   4.288  10.123 -0.6389  1.0749  3.0147
  122OSM    H6T12933   6.131   4.124  10.115  0.9648  0.4565 -1.9265
  122OSM    C7S12934   6.274   4.290  10.082 -0.4665 -0.2205 -0.2214
  122OSM    H7S12935   6.367   4.233  10.099  1.4847  3.1930  0.9803
  122OSM    H7T12936   6.286   4.395  10.117 -2.4694  0.6467 -2.0242
  122OSM    C8S12937   6.250   4.282   9.930 -0.9350  0.7242 -0.1399
  122OSM    H8S12938   6.165   4.351   9.913 -0.6630  1.6558  2.1532
  122OSM    H8T12939   6.214   4.179   9.906 -1.9255  0.8859  0.5796
  122OSM    C9S12940   6.378   4.316   9.851 -0.1596 -0.3191  0.1047
  122OSM    H9S12941   6.435   4.224   9.826  0.4625  0.0449  0.1744
  122OSM    H9T12942   6.440   4.391   9.905 -0.9430  0.4809 -0.1069
  122OSM   C10S12943   6.335   4.379   9.711 -0.3284  0.0281 -0.3944
  122OSM   H10S12944   6.424   4.369   9.646 -0.0258  3.1103 -0.5275
  122OSM   H10T12945   6.318   4.488   9.724  2.6284  0.3495  1.3770
  122OSM   C11S12946   6.220   4.310   9.648 -0.1409  0.4632  0.6979
  122OSM   H11S12947   6.124   4.330   9.700  0.5636  0.5574  1.9888
  122OSM   H11T12948   6.240   4.201   9.640 -2.4515  0.1720 -1.6610
  122OSM   C12S12949   6.202   4.360   9.501 -0.1611 -0.4218 -0.6377
  122OSM   H12S12950   6.299   4.382   9.452 -0.1341  1.4797  0.1908
  122OSM   H12T12951   6.157   4.460   9.482  2.9556  0.6486 -2.8778
  122OSM   C13S12952   6.127   4.258   9.418  0.3315 -0.1117  0.8832
  122OSM   H13S12953   6.025   4.301   9.432  0.6304  0.6383  0.7775
  122OSM   H13T12954   6.140   4.155   9.455  3.2194 -0.2184 -0.3152
  122OSM   C14S12955   6.166   4.262   9.272 -0.2794 -0.2310  0.3621
  122OSM   H14S12956   6.212   4.353   9.227 -2.4313 -0.4813 -2.4574
  122OSM   H14T12957   6.071   4.259   9.215 -0.6813  0.5805  0.9725
  122OSM   C15S12958   6.255   4.143   9.230 -0.2074  0.2222 -0.2757
  122OSM   H15S12959   6.198   4.048   9.235 -0.6155  0.5173  0.9483
  122OSM   H15T12960   6.339   4.138   9.304 -0.1929  0.6820 -0.2579
  122OSM   C16S12961   6.310   4.160   9.091  0.2140 -0.5634  0.3158
  122OSM   H16S12962   6.357   4.258   9.070  0.0880 -0.7076 -0.6932
  122OSM   H16T12963   6.219   4.143   9.028  0.8499 -1.0200 -0.4948
  122OSM   C17S12964   6.423   4.052   9.063  0.3857  0.2053 -0.4232
  122OSM   H17S12965   6.382   3.949   9.072 -0.2758  0.4984  0.0191
  122OSM   H17T12966   6.519   4.067   9.116  1.5782 -0.2061 -2.4252
  122OSM   C18S12967   6.468   4.080   8.923  0.5637 -0.2225 -0.0945
  122OSM   H18S12968   6.387   4.070   8.848 -0.3074  2.2893  0.4496
  122OSM   H18T12969   6.534   4.000   8.883 -2.7805 -3.1709  0.0766
  122OSM   H18U12970   6.518   4.179   8.915 -0.5212  0.6458  3.0918
  122OSM    C1F12971   6.596   4.065  10.426  0.1101 -0.7879 -0.2276
  122OSM     OF12972   6.582   3.953  10.470 -0.7801  0.6321 -0.2828
  122OSM    C2F12973   6.708   4.093  10.331 -0.1911 -0.5444  0.1384
  122OSM    H2F12974   6.762   4.186  10.358 -1.8417  0.0841  1.3845
  122OSM    H2G12975   6.676   4.115  10.226  0.3098  0.1212  0.1260
  122OSM    C3F12976   6.804   3.969  10.328  0.3610  0.4679  0.3328
  122OSM    H3F12977   6.744   3.876  10.314  0.1131  0.9953 -2.3559
  122OSM    H3G12978   6.854   3.962  10.427  1.6637  2.2233 -0.1751
  122OSM    C4F12979   6.913   3.976  10.219 -0.0820  0.3015  0.4008
  122OSM    H4F12980   6.981   3.890  10.238 -1.0077 -1.0244 -2.0571
  122OSM    H4G12981   6.970   4.069  10.237 -2.9659  2.6844 -2.2275
  122OSM    C5F12982   6.844   3.948  10.079  0.8385 -0.7241  0.5633
  122OSM    H5F12983   6.740   3.987  10.076  1.9120  2.2678 -0.0852
  122OSM    H5G12984   6.845   3.838  10.068  2.8874 -0.7074  0.3803
  122OSM    C6F12985   6.928   3.999   9.960  0.1899 -0.3215 -0.8956
  122OSM    H6F12986   7.035   3.968   9.959  0.1506 -0.4920 -0.2684
  122OSM    H6G12987   6.932   4.110   9.961  0.7497 -0.3416  0.0681
  122OSM    C7F12988   6.875   3.959   9.821 -0.7586 -0.8436  0.6757
  122OSM    H7F12989   6.768   3.982   9.807 -0.3329  1.3351  0.8228
  122OSM    H7G12990   6.893   3.849   9.823  2.4039 -0.3792  1.5369
  122OSM    C8F12991   6.963   4.010   9.701 -0.3554 -0.3839 -0.8440
  122OSM    H8F12992   7.068   3.972   9.704 -0.2858 -0.0565  1.1454
  122OSM    H8G12993   6.961   4.121   9.702  0.4123 -0.3777  2.1874
  122OSM    C9F12994   6.896   3.944   9.579 -0.1330 -0.1814 -0.0764
  122OSM    H9F12995   6.796   3.989   9.569  0.6635  1.7119  0.1238
  122OSM   C10F12996   6.942   3.845   9.499 -0.0279  0.3127 -0.9322
  122OSM   H10F12997   6.864   3.806   9.432  0.6082 -2.5585 -0.0713
  122OSM   C11F12998   7.071   3.772   9.521  0.6807 -0.5120  0.2805
  122OSM   H11F12999   7.065   3.662   9.509 -0.9505 -0.4734  0.6499
  122OSM   H11G13000   7.109   3.794   9.623 -0.0981  1.1431  0.2229
  122OSM   C12F13001   7.182   3.818   9.425  0.1463  0.3092 -0.5039
  122OSM   H12F13002   7.190   3.927   9.444 -3.1094  0.4707  0.3449
  122OSM   H12G13003   7.155   3.804   9.318  2.7365 -1.7489 -0.9438
  122OSM   C13F13004   7.310   3.736   9.454 -0.6587  0.0672  0.5503
  122OSM   H13F13005   7.296   3.637   9.405 -0.0900 -0.3077  1.1343
  122OSM   H13G13006   7.321   3.738   9.564  2.4999 -1.3862  0.3254
  122OSM   C14F13007   7.438   3.795   9.418 -0.5200  0.0628  0.1798
  122OSM   H14F13008   7.520   3.765   9.488 -0.1350 -2.3249 -1.2382
  122OSM   H14G13009   7.434   3.906   9.430  0.4262  0.1378 -0.0965
  122OSM   C15F13010   7.485   3.770   9.275 -0.1735 -0.3764  0.1788
  122OSM   H15F13011   7.403   3.800   9.206 -1.1651 -1.1264  1.0080
  122OSM   H15G13012   7.494   3.660   9.259  1.8741 -0.2206  0.1273
  122OSM   C16F13013   7.633   3.823   9.234 -0.5801  0.3268 -0.1861
  122OSM   H16F13014   7.712   3.778   9.297 -0.3044  1.7126  0.4716
  122OSM   H16G13015   7.642   3.933   9.244 -1.3023  0.2131  1.7659
  122OSM   C17F13016   7.673   3.781   9.089 -0.3009  0.4175 -0.0198
  122OSM   H17F13017   7.632   3.681   9.066 -1.6627  1.0006 -0.1848
  122OSM   H17G13018   7.784   3.783   9.081 -0.4400  1.3399 -1.9683
  122OSM   C18F13019   7.610   3.885   8.993  0.0540 -0.8162 -0.0069
  122OSM   H18F13020   7.633   3.867   8.886  0.1085  0.6242 -0.2492
  122OSM   H18G13021   7.640   3.988   9.023  0.2046 -0.8495 -0.0472
  122OSM   H18H13022   7.499   3.880   9.004  0.1395 -1.9147  0.3707
  123OSM      N13023   4.089   1.763   6.050 -0.7916 -0.7307 -0.3269
  123OSM    C1513024   4.165   1.880   6.112 -0.0136 -0.8942  0.1926
  123OSM   H15A13025   4.252   1.902   6.052 -1.3745 -0.6193 -1.7377
  123OSM   H15B13026   4.200   1.847   6.208  1.6879 -0.1643 -0.1494
  123OSM   H15C13027   4.099   1.965   6.121  1.6140  0.4253 -0.0565
  123OSM    C1413028   4.030   1.791   5.917 -0.6436 -0.3072 -0.2179
  123OSM   H14A13029   4.103   1.820   5.842  0.5062 -3.1510 -0.2471
  123OSM   H14B13030   3.964   1.876   5.931 -0.1832 -0.0363  0.3361
  123OSM   H14C13031   3.970   1.710   5.879 -1.9067  0.5288 -0.0522
  123OSM    C1313032   4.199   1.660   6.051  0.0830 -0.0141  0.7158
  123OSM   H13A13033   4.290   1.708   6.018  1.3721 -1.7134  1.6649
  123OSM   H13B13034   4.179   1.569   5.995  3.0855 -0.6647  0.5784
  123OSM   H13C13035   4.222   1.644   6.155  0.0782  2.7144  1.1701
  123OSM    C1213036   3.984   1.712   6.135  0.9825 -0.2708  0.0485
  123OSM   H12A13037   4.027   1.708   6.235 -2.3678  0.4695  1.5850
  123OSM   H12B13038   3.970   1.611   6.099 -0.7967  0.4685 -1.3827
  123OSM    C1113039   3.857   1.796   6.139  0.4225  0.0300  0.3198
  123OSM   H11A13040   3.793   1.768   6.225  0.6571  0.3591  0.6006
  123OSM   H11B13041   3.799   1.767   6.048 -0.3976 -0.8280  1.0972
  123OSM      P13042   3.773   2.047   6.106  0.0198 -0.0700 -0.0996
  123OSM    O1313043   3.842   2.162   6.046  0.2580  0.0831 -0.2177
  123OSM    O1413044   3.651   1.999   6.036 -0.4255  0.4986  0.2402
  123OSM    O1113045   3.723   2.100   6.240 -0.3290 -0.1239  0.0871
  123OSM    O1213046   3.885   1.937   6.144  0.5608  0.2663 -0.2887
  123OSM    C1S13047   3.770   2.050   6.367  0.4484  0.3641  0.4505
  123OSM    H1S13048   3.881   2.039   6.375  0.4557  1.1959  1.7079
  123OSM    H1T13049   3.723   1.951   6.388  2.0162 -0.3643  0.6472
  123OSM     NF13050   3.813   2.134   6.610 -0.2862 -1.1356  0.1170
  123OSM    HNF13051   3.763   2.105   6.691 -0.2603 -0.7495  0.2716
  123OSM    C2S13052   3.742   2.156   6.481  0.0519 -0.9607 -0.2937
  123OSM    H2S13053   3.786   2.246   6.432  2.4153 -2.1276 -0.4025
  123OSM    C3S13054   3.584   2.169   6.494  0.0608 -0.1880 -0.6238
  123OSM    H3S13055   3.535   2.076   6.530 -1.4852  1.2361  1.0085
  123OSM     O313056   3.533   2.217   6.371  0.2007  0.0617 -0.1163
  123OSM    HO313057   3.598   2.186   6.307  2.7364  1.6381  1.5677
  123OSM    C4S13058   3.561   2.273   6.596 -0.0238 -0.3338  1.0949
  123OSM    H4S13059   3.570   2.377   6.562 -0.4513  0.0379  2.1066
  123OSM    C5S13060   3.526   2.258   6.721  0.3772 -0.0769  0.1061
  123OSM    H5S13061   3.509   2.156   6.761 -3.2857  0.6003  0.4582
  123OSM    C6S13062   3.516   2.371   6.814  0.2521 -0.5985  0.1428
  123OSM    H6S13063   3.419   2.374   6.868  0.6592 -0.8293  0.8953
  123OSM    H6T13064   3.521   2.469   6.762 -1.1228 -1.1202 -0.9966
  123OSM    C7S13065   3.634   2.361   6.908 -1.0042 -0.1669 -0.2770
  123OSM    H7S13066   3.730   2.360   6.852 -1.5146 -0.3523 -1.1532
  123OSM    H7T13067   3.635   2.266   6.965 -0.4392 -0.2973 -0.5038
  123OSM    C8S13068   3.638   2.481   7.008  0.2616  0.3262 -0.1409
  123OSM    H8S13069   3.539   2.488   7.058 -0.8310  2.7355 -2.5246
  123OSM    H8T13070   3.655   2.574   6.952 -1.1763  0.2423 -0.7522
  123OSM    C9S13071   3.752   2.461   7.112  0.3198 -0.2971 -0.2794
  123OSM    H9S13072   3.843   2.455   7.049  1.3508 -0.2724  1.1818
  123OSM    H9T13073   3.747   2.362   7.162 -0.2408  0.0164  0.2933
  123OSM   C10S13074   3.753   2.576   7.228  0.6364 -0.1461  0.3456
  123OSM   H10S13075   3.653   2.581   7.275  1.3012 -0.3045  1.7996
  123OSM   H10T13076   3.770   2.676   7.182 -0.3737  0.9992  2.3899
  123OSM   C11S13077   3.860   2.548   7.342  0.7737 -0.9179  0.3731
  123OSM   H11S13078   3.848   2.441   7.368 -0.9609 -0.2713  2.3407
  123OSM   H11T13079   3.837   2.606   7.434  0.1966 -1.1656  0.3846
  123OSM   C12S13080   4.001   2.564   7.292 -0.5877 -0.7164  0.7468
  123OSM   H12S13081   4.016   2.516   7.193 -0.6201 -1.0708  0.9158
  123OSM   H12T13082   4.066   2.512   7.366  2.0183  3.0318  1.2210
  123OSM   C13S13083   4.064   2.706   7.285 -0.0001 -0.1759 -0.9426
  123OSM   H13S13084   4.019   2.746   7.191 -3.1211  1.7236  1.2693
  123OSM   H13T13085   4.173   2.696   7.266 -0.0596 -2.4599 -0.2334
  123OSM   C14S13086   4.039   2.796   7.405  0.6364 -0.4973 -0.4161
  123OSM   H14S13087   3.929   2.810   7.414  0.9502  1.3150  0.9258
  123OSM   H14T13088   4.088   2.894   7.390 -2.0471  1.1123  0.8673
  123OSM   C15S13089   4.106   2.730   7.524  0.1246  0.2175  0.3937
  123OSM   H15S13090   4.215   2.715   7.504  0.4294  1.5128  1.0277
  123OSM   H15T13091   4.065   2.628   7.535 -0.2504  0.6041  2.9043
  123OSM   C16S13092   4.087   2.820   7.649 -0.4540  0.1065 -0.1885
  123OSM   H16S13093   3.979   2.832   7.672 -0.3921 -0.3246  0.3494
  123OSM   H16T13094   4.135   2.918   7.629  0.8976 -0.8759 -1.9480
  123OSM   C17S13095   4.148   2.751   7.774 -0.8624 -0.3901  0.1579
  123OSM   H17S13096   4.180   2.828   7.847 -1.2223  0.4784 -0.5871
  123OSM   H17T13097   4.243   2.704   7.741 -1.2001 -0.0693 -1.3413
  123OSM   C18S13098   4.049   2.651   7.836 -0.2045  0.0221  0.2477
  123OSM   H18S13099   4.022   2.571   7.763  1.4184  1.9017 -2.4654
  123OSM   H18T13100   3.961   2.704   7.879 -0.6548  0.3423 -1.0715
  123OSM   H18U13101   4.106   2.602   7.918  0.3216  1.6520  0.8665
  123OSM    C1F13102   3.946   2.146   6.623 -0.1751  0.4815 -0.0197
  123OSM     OF13103   4.009   2.183   6.527 -0.2602 -0.0789 -0.0751
  123OSM    C2F13104   4.014   2.114   6.749  0.0950 -0.0454  0.3946
  123OSM    H2F13105   4.124   2.116   6.732  0.3863  1.4560  2.2706
  123OSM    H2G13106   3.979   2.011   6.772 -1.0104 -0.1989 -1.7918
  123OSM    C3F13107   3.968   2.193   6.874  0.3805  0.3262 -0.2621
  123OSM    H3F13108   3.861   2.183   6.899  0.3596  3.2071  0.9387
  123OSM    H3G13109   3.984   2.301   6.853 -0.1229  0.2834 -0.8810
  123OSM    C4F13110   4.048   2.150   6.992 -0.7179 -0.9046  0.5995
  123OSM    H4F13111   4.156   2.176   6.983 -1.0569  0.3231  0.0032
  123OSM    H4G13112   4.048   2.040   7.008  1.0862 -1.0707 -0.4129
  123OSM    C5F13113   4.004   2.201   7.127 -0.6009 -0.0077 -0.3148
  123OSM    H5F13114   3.895   2.199   7.148 -0.4005 -1.7801  0.6896
  123OSM    H5G13115   4.026   2.310   7.132  2.9017 -0.6030 -1.8218
  123OSM    C6F13116   4.075   2.125   7.237 -0.3739 -0.1981  0.1324
  123OSM    H6F13117   4.182   2.099   7.224 -0.3694 -0.1970  0.1625
  123OSM    H6G13118   4.026   2.025   7.230  1.1246 -1.0029  0.9290
  123OSM    C7F13119   4.047   2.180   7.379  0.0168  0.1498  0.2906
  123OSM    H7F13120   3.940   2.159   7.399 -1.3201  3.3475 -3.0120
  123OSM    H7G13121   4.066   2.289   7.366  3.3586 -0.5244 -1.1354
  123OSM    C8F13122   4.127   2.110   7.485 -0.2628  0.7573  0.6208
  123OSM    H8F13123   4.232   2.104   7.451 -0.8579  0.1868 -1.1867
  123OSM    H8G13124   4.110   2.003   7.510  0.9966  0.0229 -1.5200
  123OSM    C9F13125   4.114   2.210   7.595  0.3106  0.9703  0.8032
  123OSM    H9F13126   4.012   2.219   7.637  1.0438  1.2727  2.5618
  123OSM   C10F13127   4.210   2.297   7.633  0.8094 -0.0328 -0.0919
  123OSM   H10F13128   4.183   2.366   7.715 -2.2113 -2.5306  1.1480
  123OSM   C11F13129   4.350   2.304   7.581 -0.0184 -0.0283  0.6895
  123OSM   H11F13130   4.378   2.402   7.535  0.9164 -0.7599 -0.3129
  123OSM   H11G13131   4.365   2.244   7.489 -1.2842  0.7165 -0.0294
  123OSM   C12F13132   4.454   2.269   7.686  0.9025 -0.7253  0.2901
  123OSM   H12F13133   4.556   2.292   7.648  1.8241 -2.7851  1.4189
  123OSM   H12G13134   4.441   2.160   7.706 -0.3855 -0.7081 -0.3637
  123OSM   C13F13135   4.448   2.339   7.825  0.6219  0.3189 -0.1329
  123OSM   H13F13136   4.534   2.304   7.886  1.2269 -0.6764 -1.5352
  123OSM   H13G13137   4.355   2.306   7.876  0.7178  0.0108 -0.1595
  123OSM   C14F13138   4.462   2.490   7.816  0.8598  0.0184  0.7422
  123OSM   H14F13139   4.389   2.531   7.743 -0.0290 -0.0574  1.5849
  123OSM   H14G13140   4.560   2.512   7.767  1.1192 -2.3276  0.1275
  123OSM   C15F13141   4.460   2.561   7.953 -0.4206  0.6527  0.7461
  123OSM   H15F13142   4.521   2.502   8.025  1.1999 -1.5600 -2.3314
  123OSM   H15G13143   4.354   2.558   7.986 -0.8405  0.0474 -0.6087
  123OSM   C16F13144   4.508   2.704   7.941 -1.1273 -0.0629 -0.3293
  123OSM   H16F13145   4.430   2.758   7.882 -0.8537  0.2401 -0.4141
  123OSM   H16G13146   4.604   2.699   7.886  0.6038 -0.6897  2.6408
  123OSM   C17F13147   4.524   2.777   8.072  0.4561  0.2086  0.8972
  123OSM   H17F13148   4.584   2.869   8.061  0.6591 -0.2080 -1.7745
  123OSM   H17G13149   4.579   2.708   8.139  0.1290 -0.2953  0.6466
  123OSM   C18F13150   4.396   2.809   8.145 -0.3409  0.5652 -0.2138
  123OSM   H18F13151   4.327   2.727   8.175  0.9739 -0.6545 -0.5259
  123OSM   H18G13152   4.337   2.883   8.086  0.5175  1.4882  0.0807
  123OSM   H18H13153   4.424   2.860   8.239  0.1533 -1.6289  0.8506
  124OSM      N13154   6.015   0.484   6.060 -0.4056  0.3978 -0.5095
  124OSM    C1513155   6.033   0.355   5.991 -0.2322  0.4601  0.6465
  124OSM   H15A13156   5.966   0.276   6.022  0.7839 -0.7317 -0.1557
  124OSM   H15B13157   6.127   0.305   6.008  0.0997  1.1557  0.8346
  124OSM   H15C13158   6.020   0.376   5.886 -2.1280  1.8277  1.1164
  124OSM    C1413159   6.099   0.590   5.983  0.1682  0.0972  0.0691
  124OSM   H14A13160   6.203   0.569   5.962  0.0951  1.5640 -1.9353
  124OSM   H14B13161   6.092   0.686   6.033 -0.8421  0.4658 -0.7472
  124OSM   H14C13162   6.053   0.604   5.886  0.7978  3.5716  0.1875
  124OSM    C1313163   5.871   0.526   6.060  0.1824 -0.1704  0.4976
  124OSM   H13A13164   5.829   0.567   5.969 -2.1646  1.8387  2.4024
  124OSM   H13B13165   5.861   0.598   6.141  0.6522 -1.2176  1.5040
  124OSM   H13C13166   5.819   0.440   6.099  0.1357 -2.2414 -3.8830
  124OSM    C1213167   6.073   0.462   6.199 -0.5835 -0.2719  0.6530
  124OSM   H12A13168   6.179   0.446   6.191 -0.3040 -0.3238  3.9257
  124OSM   H12B13169   6.035   0.366   6.232  1.2076 -1.8136 -1.5589
  124OSM    C1113170   6.044   0.561   6.310 -0.5407 -0.3812 -0.1280
  124OSM   H11A13171   6.088   0.526   6.406  0.1555  0.2810 -0.2071
  124OSM   H11B13172   5.935   0.554   6.334 -1.0200  2.1727 -1.3765
  124OSM      P13173   6.022   0.819   6.328 -0.1016  0.1991 -0.1177
  124OSM    O1313174   6.078   0.934   6.258 -0.4314 -0.2912  0.1210
  124OSM    O1413175   5.873   0.798   6.321 -0.3640 -0.2122 -0.0455
  124OSM    O1113176   6.065   0.827   6.478 -0.8120 -0.5753 -0.0510
  124OSM    O1213177   6.093   0.692   6.266 -0.6287  0.1486 -0.4597
  124OSM    C1S13178   6.206   0.819   6.522 -0.2902  0.2582  0.6793
  124OSM    H1S13179   6.260   0.889   6.455  0.4136  0.8076  1.8242
  124OSM    H1T13180   6.244   0.715   6.513  0.5133  0.6037  0.0853
  124OSM     NF13181   6.364   0.852   6.706  0.2336  0.2109  0.3594
  124OSM    HNF13182   6.345   0.781   6.773 -2.2985  0.3373 -0.1424
  124OSM    C2S13183   6.227   0.887   6.662 -1.0209 -0.0591 -0.2355
  124OSM    H2S13184   6.215   0.996   6.642  0.6109  0.1666 -0.1061
  124OSM    C3S13185   6.109   0.851   6.769  0.1885  0.1798  0.5019
  124OSM    H3S13186   6.123   0.747   6.805 -0.7833 -0.7106 -1.6517
  124OSM     O313187   5.971   0.856   6.716  0.2126 -0.4107 -0.0080
  124OSM    HO313188   5.983   0.847   6.621 -0.2536 -0.1826 -0.0921
  124OSM    C4S13189   6.124   0.940   6.891 -0.5422  0.5913  0.5518
  124OSM    H4S13190   6.181   0.896   6.974 -0.2465  1.4453  0.8087
  124OSM    C5S13191   6.101   1.067   6.907  0.9432  0.3240  0.3291
  124OSM    H5S13192   6.061   1.127   6.824  2.0857  1.0011  0.2584
  124OSM    C6S13193   6.120   1.138   7.039 -0.2749  0.1347 -0.2326
  124OSM    H6S13194   6.032   1.200   7.065 -0.3236  0.3512 -0.9036
  124OSM    H6T13195   6.206   1.207   7.022  1.8290 -1.9959  1.3555
  124OSM    C7S13196   6.148   1.058   7.172 -0.6027  0.0921  0.3271
  124OSM    H7S13197   6.244   1.002   7.162  0.8641  2.5780  0.1809
  124OSM    H7T13198   6.059   0.992   7.181 -0.8847  0.5758  1.0829
  124OSM    C8S13199   6.160   1.148   7.296  0.2168 -0.7453 -0.0318
  124OSM    H8S13200   6.064   1.204   7.291 -0.6314 -2.0195  1.5339
  124OSM    H8T13201   6.249   1.212   7.274  0.6047 -1.3233 -0.1328
  124OSM    C9S13202   6.186   1.076   7.427 -0.4037  0.0718 -0.3002
  124OSM    H9S13203   6.283   1.022   7.425 -0.3300  0.1460  0.7937
  124OSM    H9T13204   6.104   1.001   7.425 -0.9851  0.7003 -0.2133
  124OSM   C10S13205   6.182   1.175   7.549 -0.1240 -0.3588 -0.7381
  124OSM   H10S13206   6.080   1.219   7.555 -0.5812 -1.3760 -0.9431
  124OSM   H10T13207   6.259   1.248   7.518 -0.9635  0.1135 -1.7468
  124OSM   C11S13208   6.206   1.090   7.680  0.0529  1.1140  0.5477
  124OSM   H11S13209   6.298   1.029   7.676  0.7168  1.9022  2.9209
  124OSM   H11T13210   6.127   1.012   7.684 -0.9022  1.8980 -2.0333
  124OSM   C12S13211   6.199   1.172   7.809 -0.4869  0.5413 -0.8768
  124OSM   H12S13212   6.093   1.188   7.839 -0.3308 -1.5208  0.8672
  124OSM   H12T13213   6.231   1.278   7.795  0.8638  0.4249  1.2144
  124OSM   C13S13214   6.271   1.113   7.933 -0.5688  0.1845  0.2617
  124OSM   H13S13215   6.381   1.105   7.913 -0.5481  0.1205  0.3967
  124OSM   H13T13216   6.247   1.006   7.950 -0.7767 -0.0003 -1.1939
  124OSM   C14S13217   6.241   1.191   8.057  0.1936 -0.2718 -0.3878
  124OSM   H14S13218   6.132   1.181   8.074  0.5946 -0.2072  2.3601
  124OSM   H14T13219   6.259   1.299   8.040 -0.7461  0.0543  0.6016
  124OSM   C15S13220   6.326   1.142   8.176  0.0656  0.8038 -1.2037
  124OSM   H15S13221   6.433   1.154   8.148  0.4909  0.1769  0.0765
  124OSM   H15T13222   6.299   1.035   8.190  1.2334  0.6695  0.1444
  124OSM   C16S13223   6.285   1.220   8.300 -0.3014 -0.3229  0.3266
  124OSM   H16S13224   6.174   1.216   8.305 -0.3076  0.0466  0.4961
  124OSM   H16T13225   6.300   1.328   8.281 -1.5039  0.1105  1.7106
  124OSM   C17S13226   6.350   1.166   8.432  0.5565  0.3889 -0.4561
  124OSM   H17S13227   6.459   1.158   8.415  0.4898 -1.7463  0.0519
  124OSM   H17T13228   6.320   1.062   8.455  0.6500  0.4473 -0.0738
  124OSM   C18S13229   6.323   1.249   8.560  0.0688  0.0917  1.0403
  124OSM   H18S13230   6.216   1.268   8.582 -0.6530 -3.4567  0.9895
  124OSM   H18T13231   6.360   1.351   8.540 -0.2326  0.0185  0.0754
  124OSM   H18U13232   6.368   1.204   8.651  1.8782  0.5795  0.4161
  124OSM    C1F13233   6.479   0.909   6.669 -0.4929  0.3368  0.5499
  124OSM     OF13234   6.487   0.975   6.562 -0.2116 -0.3275 -0.6516
  124OSM    C2F13235   6.594   0.873   6.757  0.6262  0.1485  0.1012
  124OSM    H2F13236   6.612   0.764   6.741 -2.3879 -0.9230  3.3446
  124OSM    H2G13237   6.545   0.881   6.856 -2.1207 -0.6048 -1.1388
  124OSM    C3F13238   6.726   0.948   6.720  0.5962  0.1320  0.0648
  124OSM    H3F13239   6.695   1.055   6.720  1.8071  0.4859  0.2942
  124OSM    H3G13240   6.761   0.918   6.618  2.4953 -1.5446  1.1661
  124OSM    C4F13241   6.842   0.934   6.815  0.0984 -0.2620  0.7459
  124OSM    H4F13242   6.936   0.959   6.762 -0.1530 -0.3733  0.2434
  124OSM    H4G13243   6.854   0.829   6.850 -0.2146 -0.8725 -0.9389
  124OSM    C5F13244   6.817   1.020   6.937 -0.1498 -0.3255  0.0469
  124OSM    H5F13245   6.715   0.998   6.977 -0.2261 -0.2959 -0.1311
  124OSM    H5G13246   6.827   1.130   6.924  1.2825 -0.7268 -2.4590
  124OSM    C6F13247   6.919   0.981   7.040  0.5821 -0.4959 -0.8787
  124OSM    H6F13248   7.022   1.001   7.003 -0.1450  2.0138 -1.6489
  124OSM    H6G13249   6.917   0.870   7.053  1.8196 -0.5563 -1.0928
  124OSM    C7F13250   6.897   1.046   7.175 -0.4780  0.6382 -0.0153
  124OSM    H7F13251   6.962   0.987   7.243  1.4528  1.2477 -1.2670
  124OSM    H7G13252   6.791   1.026   7.198  0.1997  0.0347  2.7662
  124OSM    C8F13253   6.928   1.190   7.196  0.2791  0.2006 -0.1047
  124OSM    H8F13254   6.911   1.236   7.295 -1.1669  0.9616 -0.6829
  124OSM    H8G13255   6.864   1.247   7.124  0.8086  2.4256  1.1328
  124OSM    C9F13256   7.071   1.233   7.168  0.3775 -0.0465  0.4282
  124OSM    H9F13257   7.087   1.263   7.064 -0.2781  0.8030  0.5697
  124OSM   C10F13258   7.171   1.258   7.259 -0.5061  0.4720  0.9959
  124OSM   H10F13259   7.267   1.303   7.230 -0.3614  0.8009  1.9568
  124OSM   C11F13260   7.156   1.253   7.408  0.1957 -0.3598  0.2186
  124OSM   H11F13261   7.071   1.320   7.437 -0.3465 -0.6043 -0.7801
  124OSM   H11G13262   7.243   1.301   7.457  1.4084 -0.2717 -1.9872
  124OSM   C12F13263   7.137   1.115   7.475  1.2486  1.0293  0.2115
  124OSM   H12F13264   7.222   1.049   7.449  0.3264 -0.2290  0.2981
  124OSM   H12G13265   7.044   1.066   7.438  1.3839  0.3070  0.8157
  124OSM   C13F13266   7.135   1.127   7.627  0.9278 -0.3885  0.2481
  124OSM   H13F13267   7.033   1.154   7.664  1.0199  1.4820 -0.7562
  124OSM   H13G13268   7.201   1.214   7.647  0.1317 -0.0777  1.6341
  124OSM   C14F13269   7.166   0.998   7.708  0.2524  0.5120  0.9694
  124OSM   H14F13270   7.258   0.965   7.655 -0.5594 -0.5866  0.2129
  124OSM   H14G13271   7.083   0.927   7.688 -0.5043  1.8434 -0.6865
  124OSM   C15F13272   7.192   1.010   7.862  0.2687 -0.7221 -0.2465
  124OSM   H15F13273   7.297   1.049   7.865 -0.5668  1.5233  1.0630
  124OSM   H15G13274   7.182   0.907   7.902  0.6595 -1.4722 -2.0559
  124OSM   C16F13275   7.099   1.108   7.938 -0.0430  0.1864  0.9638
  124OSM   H16F13276   7.001   1.094   7.887  0.0293  0.4734  0.7530
  124OSM   H16G13277   7.133   1.209   7.910 -0.2937 -0.5539 -2.2121
  124OSM   C17F13278   7.100   1.074   8.087  0.5255 -0.5973 -0.3865
  124OSM   H17F13279   7.202   1.048   8.121 -0.1997 -1.2700  1.3052
  124OSM   H17G13280   7.040   0.981   8.094 -0.0383 -0.1805  0.4148
  124OSM   C18F13281   7.053   1.176   8.184 -0.4880 -0.2417  0.3351
  124OSM   H18F13282   6.944   1.199   8.184 -0.0432  1.8997  0.6270
  124OSM   H18G13283   7.110   1.271   8.179 -0.9029 -0.0258 -0.3451
  124OSM   H18H13284   7.063   1.135   8.287  0.2658  1.3725  0.9057
  125OSM      N13285   6.057   2.195   5.993 -0.7964  0.0421 -0.1975
  125OSM    C1513286   6.039   2.325   5.918 -0.1802  0.3485 -0.4936
  125OSM   H15A13287   6.084   2.407   5.972  0.2349  0.2556 -0.6984
  125OSM   H15B13288   5.933   2.341   5.911 -0.1072  0.8866 -0.3706
  125OSM   H15C13289   6.084   2.313   5.821  2.7824  0.8648  0.7293
  125OSM    C1413290   5.977   2.196   6.114  0.1403 -0.2277 -0.4640
  125OSM   H14A13291   5.876   2.218   6.083 -0.1134 -0.0985  0.4576
  125OSM   H14B13292   6.005   2.270   6.187 -1.1313 -0.0710 -0.1262
  125OSM   H14C13293   5.968   2.104   6.170  1.5220  0.1973  0.4851
  125OSM    C1313294   6.012   2.079   5.909 -1.1455 -0.8456 -0.5806
  125OSM   H13A13295   6.057   2.060   5.813 -0.2194 -3.1136  0.2770
  125OSM   H13B13296   5.906   2.089   5.892 -1.0306  0.2350 -0.6763
  125OSM   H13C13297   6.034   1.989   5.965 -0.1449 -1.7650 -2.4362
  125OSM    C1213298   6.209   2.170   6.012 -0.3370 -0.0278  0.6743
  125OSM   H12A13299   6.257   2.170   5.916 -0.2354 -2.9413  0.6884
  125OSM   H12B13300   6.215   2.073   6.060 -0.5436  0.7152  2.2603
  125OSM    C1113301   6.284   2.260   6.121 -0.5990 -0.8006  0.4807
  125OSM   H11A13302   6.241   2.363   6.120  0.3902 -0.3810  1.0951
  125OSM   H11B13303   6.393   2.258   6.100 -0.8788 -2.9212 -0.8778
  125OSM      P13304   6.299   2.070   6.303 -0.2712 -0.3062 -0.0695
  125OSM    O1313305   6.216   2.040   6.425  0.2291  0.1031  0.7858
  125OSM    O1413306   6.291   1.965   6.200 -0.0439  0.2482 -1.1619
  125OSM    O1113307   6.451   2.081   6.346 -0.4441  0.1976  0.2964
  125OSM    O1213308   6.248   2.210   6.253  0.0744  0.2804  0.1925
  125OSM    C1S13309   6.489   2.172   6.451 -0.6043 -0.4033 -0.1335
  125OSM    H1S13310   6.429   2.265   6.459  0.7967  0.5007  0.0612
  125OSM    H1T13311   6.587   2.218   6.424 -0.9106  0.5422  0.3543
  125OSM     NF13312   6.561   2.209   6.688  0.3766  0.2154 -0.3856
  125OSM    HNF13313   6.657   2.211   6.717  0.5725 -0.4312 -0.9791
  125OSM    C2S13314   6.514   2.109   6.595  0.2869 -0.2141  0.2834
  125OSM    H2S13315   6.421   2.061   6.633 -0.7633  1.4083 -0.1705
  125OSM    C3S13316   6.612   1.994   6.588  0.0291 -0.8532 -0.7734
  125OSM    H3S13317   6.715   2.022   6.558  0.2205 -1.1168 -0.3707
  125OSM     O313318   6.586   1.886   6.494  0.5439 -0.0668 -0.8869
  125OSM    HO313319   6.503   1.911   6.453 -2.1250  0.0707  4.2156
  125OSM    C4S13320   6.643   1.936   6.731  0.0910 -0.4976 -0.3977
  125OSM    H4S13321   6.716   1.993   6.791  0.1328  1.2156 -2.0152
  125OSM    C5S13322   6.592   1.823   6.783 -0.0849  0.4366 -0.2010
  125OSM    H5S13323   6.528   1.757   6.722 -1.6302 -0.8019  2.6548
  125OSM    C6S13324   6.617   1.764   6.922  0.7002  0.1636 -0.0552
  125OSM    H6S13325   6.699   1.824   6.969  0.1097  1.0089 -0.0910
  125OSM    H6T13326   6.656   1.663   6.897 -2.1788 -0.8812 -0.3993
  125OSM    C7S13327   6.497   1.737   7.016  1.1353  0.1258  0.2268
  125OSM    H7S13328   6.531   1.682   7.107  1.0906 -1.9521 -0.9832
  125OSM    H7T13329   6.432   1.668   6.959 -0.5786  2.6366 -0.9638
  125OSM    C8S13330   6.409   1.864   7.051 -0.6228  0.5557  0.8828
  125OSM    H8S13331   6.325   1.827   7.114 -0.4063 -2.0956 -0.3103
  125OSM    H8T13332   6.362   1.889   6.953 -0.8462  1.0741  1.1206
  125OSM    C9S13333   6.481   1.981   7.112 -0.3936  0.6742 -0.2884
  125OSM    H9S13334   6.410   2.063   7.136  2.1685  1.6292  4.4643
  125OSM    H9T13335   6.560   2.026   7.048  1.5760 -1.8190  0.3249
  125OSM   C10S13336   6.552   1.940   7.241 -0.7573 -0.5663  0.5015
  125OSM   H10S13337   6.608   2.029   7.278  0.7628 -0.4880 -1.8693
  125OSM   H10T13338   6.628   1.860   7.233  0.6389  0.6206  1.5656
  125OSM   C11S13339   6.457   1.890   7.352  1.0902  0.3966 -0.5281
  125OSM   H11S13340   6.404   1.801   7.312  0.9919  0.8264 -1.3583
  125OSM   H11T13341   6.380   1.964   7.381  1.3672  0.1789  0.7921
  125OSM   C12S13342   6.552   1.856   7.476 -0.2918  0.0033 -0.2000
  125OSM   H12S13343   6.593   1.953   7.509  0.7434 -0.5630  0.2128
  125OSM   H12T13344   6.626   1.780   7.442  0.8075  0.7645  0.4826
  125OSM   C13S13345   6.461   1.789   7.581  0.1765 -0.7397 -0.0639
  125OSM   H13S13346   6.511   1.716   7.648 -1.4251 -0.0244  1.9957
  125OSM   H13T13347   6.371   1.749   7.529 -0.5688  0.7152  0.0785
  125OSM   C14S13348   6.395   1.897   7.674  0.1473 -0.0069  0.4541
  125OSM   H14S13349   6.302   1.847   7.707 -1.4417  1.4645 -1.6666
  125OSM   H14T13350   6.369   1.988   7.616 -3.4316 -0.2149  1.6214
  125OSM   C15S13351   6.488   1.935   7.783 -0.5058  0.4090 -0.2197
  125OSM   H15S13352   6.561   2.007   7.738  1.5415 -0.8028  1.0563
  125OSM   H15T13353   6.556   1.851   7.811  1.4396  2.8807  2.8755
  125OSM   C16S13354   6.421   2.003   7.898 -0.2875 -0.6363  0.4792
  125OSM   H16S13355   6.357   2.089   7.869  0.7448 -0.0293 -0.0510
  125OSM   H16T13356   6.489   2.038   7.979 -1.0856  0.1471  0.8170
  125OSM   C17S13357   6.326   1.914   7.982  0.1513 -0.1933  0.1102
  125OSM   H17S13358   6.389   1.826   8.008 -0.1876 -0.7819 -1.0273
  125OSM   H17T13359   6.243   1.877   7.917 -0.0860 -0.7926  0.7474
  125OSM   C18S13360   6.267   1.990   8.106 -0.1640 -0.5717  0.3331
  125OSM   H18S13361   6.343   1.996   8.187  0.0805  0.2660  0.0501
  125OSM   H18T13362   6.179   1.937   8.148 -0.1719  0.0713  1.1610
  125OSM   H18U13363   6.238   2.093   8.076 -0.7280 -0.8970 -0.2353
  125OSM    C1F13364   6.489   2.314   6.714 -0.6113 -0.3205  0.0625
  125OSM     OF13365   6.374   2.322   6.694  0.4711  0.3550 -0.3232
  125OSM    C2F13366   6.558   2.426   6.784  0.4662  0.1051 -0.5916
  125OSM    H2F13367   6.557   2.522   6.727  1.5399 -1.1542 -2.7600
  125OSM    H2G13368   6.667   2.419   6.806  0.6815 -0.0043 -1.6784
  125OSM    C3F13369   6.483   2.455   6.915  0.4161  1.2172  0.3762
  125OSM    H3F13370   6.372   2.456   6.911  0.3605  1.3307  1.9421
  125OSM    H3G13371   6.515   2.559   6.937  1.2417  0.9635  0.4007
  125OSM    C4F13372   6.528   2.362   7.021  0.3715 -0.2728  0.0831
  125OSM    H4F13373   6.638   2.358   7.028  0.2907 -0.5132  1.3528
  125OSM    H4G13374   6.488   2.262   6.995  1.0637 -1.0168  1.7661
  125OSM    C5F13375   6.468   2.399   7.159  0.4606  0.4873  0.3172
  125OSM    H5F13376   6.358   2.419   7.165  0.4072 -0.2645  2.2087
  125OSM    H5G13377   6.511   2.497   7.186 -2.0117  1.0692  2.3075
  125OSM    C6F13378   6.501   2.300   7.266  0.2360 -0.2089 -0.6755
  125OSM    H6F13379   6.611   2.282   7.272  0.2912  0.0927 -0.7563
  125OSM    H6G13380   6.456   2.200   7.246  1.3082 -0.9721  0.5927
  125OSM    C7F13381   6.454   2.346   7.402  0.3528  0.1315 -0.2643
  125OSM    H7F13382   6.344   2.339   7.412  0.5264  1.2796  3.1681
  125OSM    H7G13383   6.478   2.454   7.413 -2.7334  0.8957 -0.6121
  125OSM    C8F13384   6.540   2.282   7.518 -0.3866 -0.3965  0.0635
  125OSM    H8F13385   6.629   2.341   7.548 -1.7518  1.7803 -0.1170
  125OSM    H8G13386   6.568   2.176   7.497  3.0179  0.1473  1.4345
  125OSM    C9F13387   6.450   2.266   7.641  0.5020  0.4479  0.1651
  125OSM    H9F13388   6.384   2.178   7.642  2.2658 -0.8956  3.4623
  125OSM   C10F13389   6.441   2.347   7.756  0.4808  0.3399 -0.7725
  125OSM   H10F13390   6.387   2.314   7.845  2.2760  0.9840  0.5867
  125OSM   C11F13391   6.517   2.480   7.765 -0.0554  0.2627  0.5313
  125OSM   H11F13392   6.580   2.510   7.678 -0.0757  2.5755  1.2667
  125OSM   H11G13393   6.588   2.463   7.849 -2.3888 -2.3337  2.0413
  125OSM   C12F13394   6.419   2.600   7.782  0.1953 -0.0152 -0.1400
  125OSM   H12F13395   6.474   2.695   7.796  2.3111 -1.0996 -0.9068
  125OSM   H12G13396   6.349   2.573   7.864 -0.9391  0.7313 -0.8434
  125OSM   C13F13397   6.333   2.620   7.653  0.2718 -0.2804  0.3111
  125OSM   H13F13398   6.230   2.643   7.687 -1.3766 -3.9581 -1.8791
  125OSM   H13G13399   6.327   2.521   7.603  2.0542 -0.6289  0.7458
  125OSM   C14F13400   6.392   2.716   7.546 -0.0595 -0.4899  0.7557
  125OSM   H14F13401   6.482   2.673   7.495  1.4322 -0.0743  2.9823
  125OSM   H14G13402   6.423   2.809   7.598 -1.4087 -0.1807  1.0306
  125OSM   C15F13403   6.284   2.771   7.436  0.5846  0.2930 -0.1323
  125OSM   H15F13404   6.330   2.860   7.387  0.5979 -0.9745 -2.4923
  125OSM   H15G13405   6.189   2.801   7.485  0.8626 -0.0444  0.6231
  125OSM   C16F13406   6.262   2.664   7.333  0.3040  0.1056 -0.7522
  125OSM   H16F13407   6.263   2.568   7.389 -1.9610 -0.8417 -2.2699
  125OSM   H16G13408   6.350   2.669   7.265  0.8090 -3.2220 -0.4280
  125OSM   C17F13409   6.127   2.688   7.264 -0.0154  0.4759  0.0270
  125OSM   H17F13410   6.120   2.790   7.220 -1.4757  1.1230  1.7087
  125OSM   H17G13411   6.048   2.677   7.341 -1.0518  0.1592 -1.0696
  125OSM   C18F13412   6.093   2.592   7.156  0.0267  0.4914  0.1656
  125OSM   H18F13413   6.162   2.612   7.071  0.9069 -0.2939  0.6931
  125OSM   H18G13414   5.989   2.610   7.121  0.2455 -0.0660 -0.7895
  125OSM   H18H13415   6.107   2.493   7.205  2.8009  0.5743 -0.3839
  126OSM      N13416   4.261   0.964   6.369  0.8031  0.1167  0.3052
  126OSM    C1513417   4.343   0.849   6.305  0.7879 -0.0109  0.8633
  126OSM   H15A13418   4.417   0.813   6.375  2.2054  1.5879  0.2294
  126OSM   H15B13419   4.391   0.889   6.217  2.2755 -0.9507  1.2453
  126OSM   H15C13420   4.273   0.770   6.284 -0.3956  0.5144  2.6628
  126OSM    C1413421   4.361   1.063   6.420 -0.4504 -0.1515 -0.3671
  126OSM   H14A13422   4.317   1.147   6.471 -1.2992 -1.4597  1.0951
  126OSM   H14B13423   4.421   1.094   6.336 -0.3670 -0.1532 -0.3087
  126OSM   H14C13424   4.421   1.019   6.498  1.3233  2.4665 -0.1976
  126OSM    C1313425   4.180   1.032   6.261 -0.0897  0.9730 -0.0749
  126OSM   H13A13426   4.108   1.083   6.323 -0.1820 -1.2027  1.6788
  126OSM   H13B13427   4.128   0.957   6.202  0.7099  0.5978 -0.3076
  126OSM   H13C13428   4.242   1.098   6.202  2.0548 -1.5946 -0.8010
  126OSM    C1213429   4.172   0.902   6.477  0.1468 -0.0958  0.4743
  126OSM   H12A13430   4.236   0.831   6.528  1.2518 -0.3555 -1.2284
  126OSM   H12B13431   4.097   0.840   6.432  0.1467  1.0565 -1.1378
  126OSM    C1113432   4.114   0.997   6.589 -0.3350  0.0724 -0.2452
  126OSM   H11A13433   4.191   1.066   6.630 -2.6766  2.2390  0.6103
  126OSM   H11B13434   4.088   0.928   6.672 -0.2117  0.7172  0.3306
  126OSM      P13435   3.872   1.028   6.482  0.2950 -0.3888 -0.2635
  126OSM    O1313436   3.825   1.139   6.398  0.0325 -0.6238  0.0282
  126OSM    O1413437   3.880   0.892   6.432 -0.6901 -0.1412 -0.3471
  126OSM    O1113438   3.780   1.027   6.609 -0.1328 -0.3715 -0.4546
  126OSM    O1213439   4.013   1.078   6.534 -0.2343 -0.4575  0.1043
  126OSM    C1S13440   3.775   1.138   6.694 -0.0798  0.4216  0.0132
  126OSM    H1S13441   3.716   1.221   6.650 -2.4108 -1.4436 -0.5069
  126OSM    H1T13442   3.872   1.171   6.736 -0.7608  2.2378  0.2264
  126OSM     NF13443   3.667   1.231   6.889 -0.1750  0.7604 -0.7537
  126OSM    HNF13444   3.741   1.248   6.954 -0.7455  2.4177 -0.5240
  126OSM    C2S13445   3.687   1.110   6.819  0.1590 -0.7935  0.0909
  126OSM    H2S13446   3.590   1.064   6.790 -0.4007 -0.6552  1.7116
  126OSM    C3S13447   3.765   1.000   6.906 -0.0670 -0.1444 -0.4197
  126OSM    H3S13448   3.852   1.049   6.955  0.5563 -0.8068 -0.8623
  126OSM     O313449   3.823   0.892   6.833  0.4715  0.4730  0.2256
  126OSM    HO313450   3.816   0.931   6.745 -0.8196  1.1370  0.5963
  126OSM    C4S13451   3.669   0.948   7.008 -1.3280  0.2303  0.1641
  126OSM    H4S13452   3.634   1.024   7.079  0.3259  2.2447 -1.1277
  126OSM    C5S13453   3.610   0.826   7.024 -0.1434  0.1904 -1.0090
  126OSM    H5S13454   3.628   0.750   6.947 -0.8056  0.3380 -1.3026
  126OSM    C6S13455   3.516   0.792   7.140 -0.0888  1.0740 -0.5039
  126OSM    H6S13456   3.561   0.733   7.223 -0.3584  1.7677  0.1430
  126OSM    H6T13457   3.435   0.731   7.094  0.2385 -0.1616  0.5274
  126OSM    C7S13458   3.457   0.903   7.222  0.0372 -0.3437  0.3244
  126OSM    H7S13459   3.377   0.948   7.160  0.2413 -0.2323  0.1440
  126OSM    H7T13460   3.529   0.980   7.258  0.3730 -1.3601  1.9087
  126OSM    C8S13461   3.377   0.851   7.350 -0.8563  0.6425  0.1342
  126OSM    H8S13462   3.327   0.759   7.314  0.9390  0.5992 -2.3762
  126OSM    H8T13463   3.310   0.933   7.382 -0.5443  1.4415 -1.1947
  126OSM    C9S13464   3.467   0.809   7.462 -0.3417 -0.2937  0.5406
  126OSM    H9S13465   3.545   0.888   7.457 -0.0605 -0.7163 -2.3997
  126OSM    H9T13466   3.522   0.715   7.437  0.3273 -0.1703  1.5357
  126OSM   C10S13467   3.398   0.798   7.596  0.5942 -1.4744  0.0256
  126OSM   H10S13468   3.325   0.715   7.586 -2.5452  1.2754 -0.9340
  126OSM   H10T13469   3.335   0.888   7.611  2.7418  0.2901 -1.1793
  126OSM   C11S13470   3.486   0.780   7.719  0.6946 -0.1968  0.2988
  126OSM   H11S13471   3.563   0.857   7.698  1.5062 -1.0319  0.2340
  126OSM   H11T13472   3.531   0.680   7.706  1.0717 -0.1338  1.0928
  126OSM   C12S13473   3.416   0.800   7.849  0.7467 -0.4978 -0.1887
  126OSM   H12S13474   3.474   0.729   7.912  1.7861 -0.3908 -1.0154
  126OSM   H12T13475   3.312   0.763   7.834  0.6668  0.5883 -2.4280
  126OSM   C13S13476   3.420   0.939   7.912  0.1092 -0.1047 -0.5796
  126OSM   H13S13477   3.349   1.003   7.855 -0.4540 -0.1048  0.1115
  126OSM   H13T13478   3.517   0.992   7.903  0.2663 -0.2781  0.0816
  126OSM   C14S13479   3.370   0.922   8.060  0.6974 -0.0410  0.2137
  126OSM   H14S13480   3.431   0.851   8.121 -1.8435 -0.9428  1.7817
  126OSM   H14T13481   3.268   0.879   8.056  0.6212 -0.0343  1.9349
  126OSM   C15S13482   3.368   1.055   8.140 -0.2411  0.6613  0.6407
  126OSM   H15S13483   3.472   1.068   8.177 -0.5539  0.7941  1.4884
  126OSM   H15T13484   3.306   1.046   8.231  1.0743 -1.0139  1.4238
  126OSM   C16S13485   3.301   1.170   8.065  0.0143  0.2820 -0.0419
  126OSM   H16S13486   3.194   1.143   8.053 -0.4262  2.2383 -0.6766
  126OSM   H16T13487   3.345   1.203   7.968  0.5504  3.5900  1.2532
  126OSM   C17S13488   3.296   1.293   8.160 -0.5442 -0.7970 -0.0826
  126OSM   H17S13489   3.249   1.248   8.250 -1.2973  0.6278  0.2488
  126OSM   H17T13490   3.229   1.370   8.117  1.3443  0.8279 -0.2111
  126OSM   C18S13491   3.428   1.360   8.201  0.1895 -0.4296  0.2854
  126OSM   H18S13492   3.468   1.430   8.124 -1.0696  0.7833  0.7144
  126OSM   H18T13493   3.504   1.285   8.232 -0.6314 -1.6866 -0.7084
  126OSM   H18U13494   3.406   1.418   8.293  1.6705 -1.2251  1.1673
  126OSM    C1F13495   3.569   1.316   6.870 -0.4688 -0.3999 -0.4751
  126OSM     OF13496   3.491   1.294   6.782  0.6586  0.2895  0.8968
  126OSM    C2F13497   3.588   1.445   6.949  0.0548 -0.0149  0.2451
  126OSM    H2F13498   3.553   1.529   6.886  1.4629  1.0728  0.8983
  126OSM    H2G13499   3.696   1.449   6.975 -0.3575 -3.3073  2.8939
  126OSM    C3F13500   3.510   1.443   7.084 -0.4216 -0.0009  1.2399
  126OSM    H3F13501   3.400   1.439   7.066 -0.0591  1.6563 -1.6467
  126OSM    H3G13502   3.532   1.539   7.136  3.2342 -0.6629  1.0554
  126OSM    C4F13503   3.543   1.329   7.177 -0.2423 -0.2712 -1.1279
  126OSM    H4F13504   3.654   1.317   7.181 -0.3115 -0.5544  0.1711
  126OSM    H4G13505   3.499   1.233   7.145 -0.4185 -0.9487  1.1074
  126OSM    C5F13506   3.506   1.353   7.329 -0.1711 -0.3211  0.3676
  126OSM    H5F13507   3.407   1.396   7.357  0.1478 -0.2846  1.4602
  126OSM    H5G13508   3.582   1.424   7.369  1.3244 -2.0098  0.6256
  126OSM    C6F13509   3.532   1.227   7.412  0.0029 -0.7685 -0.1992
  126OSM    H6F13510   3.633   1.184   7.396  0.2964 -0.7475  1.5060
  126OSM    H6G13511   3.469   1.148   7.364 -0.5779 -1.3768  1.5273
  126OSM    C7F13512   3.501   1.248   7.561  0.5150 -0.4704 -0.0752
  126OSM    H7F13513   3.493   1.147   7.608 -2.5345 -0.3406 -0.2158
  126OSM    H7G13514   3.401   1.291   7.582 -0.1010 -2.8827  2.3101
  126OSM    C8F13515   3.606   1.342   7.637  0.3270 -0.0309 -0.2393
  126OSM    H8F13516   3.618   1.433   7.574 -1.3275 -0.6105 -1.4293
  126OSM    H8G13517   3.704   1.291   7.634 -0.0638 -0.7667 -0.6887
  126OSM    C9F13518   3.573   1.373   7.775  0.5982  0.2305 -0.2908
  126OSM    H9F13519   3.492   1.444   7.793  0.7286  0.6567 -1.3382
  126OSM   C10F13520   3.629   1.318   7.882  0.1477 -0.3308 -0.1820
  126OSM   H10F13521   3.603   1.364   7.978  0.7035 -1.1564  0.3766
  126OSM   C11F13522   3.737   1.215   7.882  0.0780 -0.2193  0.2799
  126OSM   H11F13523   3.830   1.253   7.834 -1.5323  1.5638 -1.4869
  126OSM   H11G13524   3.705   1.123   7.829 -0.4087  0.7650 -1.1339
  126OSM   C12F13525   3.790   1.183   8.025  0.5655 -0.3551 -0.1856
  126OSM   H12F13526   3.698   1.166   8.085  0.8835 -0.0797  0.3845
  126OSM   H12G13527   3.849   1.268   8.063  0.4624 -0.3698  0.0099
  126OSM   C13F13528   3.879   1.056   8.022  0.5858 -0.4421  0.8975
  126OSM   H13F13529   3.940   1.042   7.930  0.1863 -3.3456  1.0254
  126OSM   H13G13530   3.818   0.964   8.030 -0.2617  0.0022 -0.2133
  126OSM   C14F13531   3.974   1.037   8.143  0.6196  0.3320 -0.3864
  126OSM   H14F13532   3.914   1.042   8.236  0.8258  1.1740 -0.2959
  126OSM   H14G13533   4.039   1.127   8.135  1.3825  0.0562  2.2354
  126OSM   C15F13534   4.050   0.900   8.139 -0.1049  0.3854 -0.1129
  126OSM   H15F13535   4.104   0.883   8.043  1.1327  0.3138  0.5804
  126OSM   H15G13536   3.975   0.818   8.144  0.0985  0.0130 -2.6628
  126OSM   C16F13537   4.136   0.893   8.259 -0.6038 -0.2048 -0.7078
  126OSM   H16F13538   4.208   0.977   8.252  0.5723 -0.9511  1.7472
  126OSM   H16G13539   4.186   0.794   8.260 -0.3353 -0.0754 -1.1528
  126OSM   C17F13540   4.056   0.906   8.392  0.0383 -0.4391 -0.2403
  126OSM   H17F13541   3.954   0.862   8.384 -0.7839  1.5321 -1.2120
  126OSM   H17G13542   4.036   1.014   8.412 -1.0147 -1.1717  2.8952
  126OSM   C18F13543   4.128   0.851   8.512  0.4333 -0.3541  0.3302
  126OSM   H18F13544   4.225   0.904   8.529  0.7644 -0.5303 -1.0002
  126OSM   H18G13545   4.153   0.745   8.490 -0.2169  0.2594 -3.5560
  126OSM   H18H13546   4.073   0.874   8.606 -0.5719 -1.9123  0.1367
  127OSM      N13547   4.933   6.237   6.112  0.4492 -0.4791  0.2610
  127OSM    C1513548   4.947   6.243   6.260  0.4793  0.2654  0.0023
  127OSM   H15A13549   4.995   6.332   6.299  0.7486 -0.6420  1.7839
  127OSM   H15B13550   4.989   6.156   6.308 -3.4425 -1.8328 -0.2035
  127OSM   H15C13551   4.850   6.258   6.303  0.3087 -1.0309  0.0852
  127OSM    C1413552   5.053   6.187   6.051 -0.4660  0.2118  0.5333
  127OSM   H14A13553   5.037   6.124   5.964 -0.9662 -0.5779  1.1904
  127OSM   H14B13554   5.117   6.128   6.116  0.4351 -0.8463 -1.2675
  127OSM   H14C13555   5.110   6.270   6.012  0.2430 -1.1506 -1.4195
  127OSM    C1313556   4.824   6.144   6.077 -0.1053  0.0893  0.5653
  127OSM   H13A13557   4.735   6.194   6.115  0.5966  0.7303  1.3924
  127OSM   H13B13558   4.830   6.041   6.108  0.7730  0.2049  0.7926
  127OSM   H13C13559   4.821   6.134   5.969 -0.9391  1.3975  0.4428
  127OSM    C1213560   4.899   6.372   6.051  0.3588  0.1460  0.1465
  127OSM   H12A13561   4.799   6.404   6.077  0.7452  1.6599 -0.1410
  127OSM   H12B13562   4.896   6.370   5.943  1.3830  0.4007  0.1123
  127OSM    C1113563   4.987   6.493   6.094  0.1879 -0.2794 -0.2820
  127OSM   H11A13564   4.955   6.516   6.197  1.3127  1.0336 -0.2173
  127OSM   H11B13565   4.950   6.581   6.037  2.2797 -0.6479 -2.3105
  127OSM      P13566   5.231   6.498   6.194  0.3180 -0.5505  0.0427
  127OSM    O1313567   5.364   6.441   6.162  0.2142 -0.4407 -0.1406
  127OSM    O1413568   5.218   6.637   6.236  0.3763  0.1096  0.5161
  127OSM    O1113569   5.170   6.411   6.313  0.2056 -0.5459  0.7353
  127OSM    O1213570   5.127   6.483   6.077 -0.0025  0.0312 -0.5461
  127OSM    C1S13571   5.232   6.431   6.441  0.2543  0.5436 -0.2747
  127OSM    H1S13572   5.153   6.482   6.499 -2.8544 -0.7656 -3.2176
  127OSM    H1T13573   5.314   6.505   6.455  0.6349 -0.0904  0.9552
  127OSM     NF13574   5.336   6.348   6.642 -0.2239 -0.2207 -0.2042
  127OSM    HNF13575   5.435   6.340   6.633 -0.2902  0.3636 -1.4645
  127OSM    C2S13576   5.275   6.304   6.517 -0.2525 -0.7394  0.5753
  127OSM    H2S13577   5.190   6.247   6.559 -1.8073  0.2302 -1.1590
  127OSM    C3S13578   5.355   6.206   6.421 -0.0709  0.1012  0.2321
  127OSM    H3S13579   5.437   6.265   6.376  0.4179 -0.0069  0.9786
  127OSM     O313580   5.274   6.163   6.309  0.3988 -0.2735  0.0002
  127OSM    HO313581   5.207   6.229   6.291 -0.6259 -0.4729  2.7243
  127OSM    C4S13582   5.399   6.084   6.493 -0.0940  0.4227  0.3413
  127OSM    H4S13583   5.306   6.047   6.540 -0.8756 -0.8748 -2.1037
  127OSM    C5S13584   5.516   6.021   6.489 -0.1889 -0.4711 -0.2247
  127OSM    H5S13585   5.606   6.057   6.436  1.1184 -0.1766  2.1535
  127OSM    C6S13586   5.550   5.891   6.563  0.4607 -0.4597 -0.4195
  127OSM    H6S13587   5.607   5.918   6.655 -1.7272 -0.0400  0.8489
  127OSM    H6T13588   5.599   5.818   6.497  1.5693  1.1862 -1.4562
  127OSM    C7S13589   5.432   5.826   6.634  0.3671  0.1489  0.2200
  127OSM    H7S13590   5.341   5.809   6.572  2.1826  1.3045 -2.8833
  127OSM    H7T13591   5.399   5.888   6.719 -1.5901 -1.3047  0.5657
  127OSM    C8S13592   5.471   5.691   6.697 -0.1553  0.6371 -0.6895
  127OSM    H8S13593   5.515   5.625   6.620 -1.8031  0.3113 -1.3850
  127OSM    H8T13594   5.386   5.630   6.735  1.8589 -1.1182  1.1665
  127OSM    C9S13595   5.577   5.706   6.813  0.4291  0.6577 -0.4992
  127OSM    H9S13596   5.541   5.772   6.894 -0.1784  1.3588 -1.3379
  127OSM    H9T13597   5.671   5.746   6.770  1.2199  0.5286  1.0764
  127OSM   C10S13598   5.608   5.573   6.887 -0.9314  0.1238 -0.3094
  127OSM   H10S13599   5.669   5.618   6.969 -0.6941 -0.9420  0.1025
  127OSM   H10T13600   5.672   5.511   6.821  0.0974 -0.0520  0.8295
  127OSM   C11S13601   5.484   5.509   6.950 -0.7542  0.0308 -0.6192
  127OSM   H11S13602   5.417   5.472   6.870 -1.0938  0.7250 -0.6575
  127OSM   H11T13603   5.429   5.587   7.006 -0.7510 -1.4766  1.5690
  127OSM   C12S13604   5.501   5.394   7.053  0.5648  0.2457  0.0438
  127OSM   H12S13605   5.565   5.438   7.133  0.8897 -1.5056  0.7711
  127OSM   H12T13606   5.566   5.319   7.004  0.9762  1.8340 -1.9094
  127OSM   C13S13607   5.373   5.325   7.103 -0.2364  0.0684  0.7586
  127OSM   H13S13608   5.392   5.224   7.147  0.5022 -0.7603 -1.3466
  127OSM   H13T13609   5.312   5.296   7.015  0.8474 -1.0885  0.3588
  127OSM   C14S13610   5.277   5.406   7.183  0.4815 -0.1882 -0.0493
  127OSM   H14S13611   5.180   5.354   7.186  0.5467 -0.3868 -1.1426
  127OSM   H14T13612   5.271   5.509   7.142 -0.7608 -0.1022  0.3565
  127OSM   C15S13613   5.335   5.439   7.323  0.0517 -0.0780 -0.4812
  127OSM   H15S13614   5.445   5.448   7.315  0.1953  0.9606  2.0345
  127OSM   H15T13615   5.313   5.353   7.390  0.0958  0.9642  0.9039
  127OSM   C16S13616   5.291   5.574   7.384  0.2846  0.9620  0.3080
  127OSM   H16S13617   5.180   5.586   7.381  0.0327 -1.3782 -0.7899
  127OSM   H16T13618   5.334   5.654   7.320  1.2160  1.4049  1.4726
  127OSM   C17S13619   5.342   5.602   7.526 -0.2668 -0.2038  0.0096
  127OSM   H17S13620   5.347   5.506   7.581  0.2933  0.5602  1.3076
  127OSM   H17T13621   5.261   5.662   7.573  0.8174  1.2539  0.0780
  127OSM   C18S13622   5.480   5.673   7.539  0.7506 -0.1473  0.2099
  127OSM   H18S13623   5.483   5.710   7.644 -1.4339 -1.1379  0.6494
  127OSM   H18T13624   5.483   5.764   7.476 -1.4090 -1.5853 -2.0513
  127OSM   H18U13625   5.561   5.600   7.517 -0.5561 -1.4569 -0.3191
  127OSM    C1F13626   5.278   6.409   6.740  0.2164 -0.1241  0.1199
  127OSM     OF13627   5.157   6.423   6.747  0.1704  0.0929  0.1863
  127OSM    C2F13628   5.367   6.460   6.846 -0.1274  0.6619  0.2260
  127OSM    H2F13629   5.335   6.563   6.872  1.1552  1.9120 -2.9130
  127OSM    H2G13630   5.472   6.478   6.816 -0.2168 -0.0225 -0.5205
  127OSM    C3F13631   5.338   6.382   6.981  0.7172 -0.2598  0.2781
  127OSM    H3F13632   5.359   6.274   6.961  0.3562 -0.2731 -0.0258
  127OSM    H3G13633   5.231   6.402   7.001  0.9970  1.2088  0.3291
  127OSM    C4F13634   5.427   6.421   7.107 -0.6434  0.0400  0.0756
  127OSM    H4F13635   5.419   6.531   7.111  0.1915  0.1851 -1.9287
  127OSM    H4G13636   5.530   6.389   7.078 -0.7847 -0.3285 -0.0240
  127OSM    C5F13637   5.412   6.349   7.242  0.1807 -0.1348  0.2755
  127OSM    H5F13638   5.425   6.238   7.238 -1.6754 -0.4162  1.5399
  127OSM    H5G13639   5.302   6.360   7.251  0.1091 -0.3255 -0.3156
  127OSM    C6F13640   5.475   6.414   7.366  0.2826 -0.1154 -0.0892
  127OSM    H6F13641   5.584   6.390   7.367  0.6442  1.4967  1.7570
  127OSM    H6G13642   5.426   6.356   7.447  1.3792  1.9450  2.1184
  127OSM    C7F13643   5.443   6.554   7.394  0.6811  0.0952  0.2719
  127OSM    H7F13644   5.340   6.584   7.367  0.0506 -0.1472  2.3218
  127OSM    H7G13645   5.511   6.618   7.334 -1.5199  1.8992 -0.3590
  127OSM    C8F13646   5.463   6.599   7.539  0.3113 -0.0447 -0.8631
  127OSM    H8F13647   5.395   6.542   7.605  0.9590  0.6376  0.4099
  127OSM    H8G13648   5.439   6.707   7.548  3.2206  0.3983  2.7431
  127OSM    C9F13649   5.613   6.593   7.576 -0.3026  0.3907 -0.4634
  127OSM    H9F13650   5.681   6.615   7.493 -1.0856  1.8075 -0.7493
  127OSM   C10F13651   5.648   6.572   7.707 -0.0618 -0.2167 -0.1120
  127OSM   H10F13652   5.756   6.563   7.726 -0.1691  2.4190  2.0309
  127OSM   C11F13653   5.565   6.544   7.828  0.1702  0.1216  0.0570
  127OSM   H11F13654   5.483   6.477   7.794  1.8057 -1.6397 -0.5123
  127OSM   H11G13655   5.509   6.632   7.865 -1.1361 -0.5036 -0.3980
  127OSM   C12F13656   5.636   6.473   7.948  0.1777  0.2431  0.4700
  127OSM   H12F13657   5.743   6.504   7.950  0.5946 -1.0142 -0.8645
  127OSM   H12G13658   5.632   6.363   7.934 -1.1958  0.1916  1.2254
  127OSM   C13F13659   5.552   6.500   8.068  0.5767 -0.1182  0.3172
  127OSM   H13F13660   5.450   6.456   8.065 -0.2788  1.8876 -2.1210
  127OSM   H13G13661   5.535   6.610   8.064  0.4451 -0.1776 -1.1505
  127OSM   C14F13662   5.630   6.466   8.195 -0.2462 -0.4261  0.2142
  127OSM   H14F13663   5.735   6.502   8.191 -0.1902 -0.4917  0.9549
  127OSM   H14G13664   5.645   6.356   8.196  0.9342 -0.2991 -1.6039
  127OSM   C15F13665   5.583   6.515   8.335  0.3811 -0.6676  0.3390
  127OSM   H15F13666   5.620   6.447   8.414  0.1159 -0.4741  0.6294
  127OSM   H15G13667   5.474   6.510   8.358  0.1209 -0.5528 -0.8163
  127OSM   C16F13668   5.614   6.665   8.354 -0.6383 -0.5208  0.4981
  127OSM   H16F13669   5.552   6.720   8.280 -1.1739  1.6165  2.4761
  127OSM   H16G13670   5.720   6.696   8.343 -0.5510 -1.3323 -0.9966
  127OSM   C17F13671   5.576   6.703   8.497  0.1707 -0.8204  0.0666
  127OSM   H17F13672   5.645   6.658   8.572 -0.6778 -0.7068  0.9300
  127OSM   H17G13673   5.473   6.665   8.514 -0.5484  1.3152  0.6478
  127OSM   C18F13674   5.578   6.851   8.521  0.1557  0.2049 -0.7766
  127OSM   H18F13675   5.524   6.894   8.434 -1.3971 -1.2948 -0.5746
  127OSM   H18G13676   5.679   6.898   8.533  0.5591 -1.1588  1.3822
  127OSM   H18H13677   5.531   6.879   8.617  2.3397 -1.7775  0.9406
  128OSM      N13678   0.104   3.157   6.056 -0.2422 -0.7562 -1.0410
  128OSM    C1513679   0.145   3.015   6.048  0.3779 -0.5267 -0.1252
  128OSM   H15A13680   0.104   2.966   6.134  0.6379 -0.9130 -0.2230
  128OSM   H15B13681   0.252   2.999   6.040 -0.0472 -2.7865 -1.5339
  128OSM   H15C13682   0.110   2.973   5.955  1.3387 -1.4982 -0.0618
  128OSM    C1413683   0.147   3.233   5.938  0.2038 -0.0470  0.1060
  128OSM   H14A13684   0.255   3.239   5.931  0.1150  1.1709 -0.2456
  128OSM   H14B13685   0.116   3.334   5.960 -0.4698 -0.5303  1.4114
  128OSM   H14C13686   0.103   3.190   5.850 -0.3408  0.2630  0.2269
  128OSM    C1313687  -0.046   3.177   6.065 -0.7118  0.1308  0.3844
  128OSM   H13A13688  -0.080   3.132   6.157  1.5747 -0.0722  1.1740
  128OSM   H13B13689  -0.088   3.136   5.974 -0.9710  1.9601 -0.3393
  128OSM   H13C13690  -0.075   3.280   6.073 -1.8942 -0.3966  3.7433
  128OSM    C1213691   0.165   3.219   6.187  0.1553 -0.4400  0.7582
  128OSM   H12A13692   0.106   3.199   6.276 -1.0039  1.9281  0.5435
  128OSM   H12B13693   0.156   3.326   6.177 -1.3067 -0.5911  0.2821
  128OSM    C1113694   0.313   3.195   6.214 -0.6133  0.2558 -0.0719
  128OSM   H11A13695   0.329   3.243   6.312 -1.5587 -2.3124  1.3851
  128OSM   H11B13696   0.371   3.236   6.128  1.1521 -2.5331 -0.2937
  128OSM      P13697   0.480   2.993   6.225 -0.2585 -0.0542 -0.0888
  128OSM    O1313698   0.467   2.849   6.251  0.1619 -0.0594 -1.2567
  128OSM    O1413699   0.568   3.035   6.111  0.4462 -0.1368  0.0091
  128OSM    O1113700   0.555   3.053   6.348 -0.3568 -0.3224  0.4663
  128OSM    O1213701   0.340   3.057   6.232 -0.1074 -0.1172  0.1069
  128OSM    C1S13702   0.509   3.020   6.479  0.0401 -0.3371 -0.0972
  128OSM    H1S13703   0.498   2.911   6.496 -1.8887 -0.3421 -1.1774
  128OSM    H1T13704   0.404   3.054   6.491  0.1941 -0.8172  2.7747
  128OSM     NF13705   0.567   3.039   6.732  0.6534 -0.1930 -0.1498
  128OSM    HNF13706   0.491   3.080   6.781 -2.0301 -2.5173 -2.1889
  128OSM    C2S13707   0.592   3.089   6.595 -0.3038 -0.3067  0.1291
  128OSM    H2S13708   0.700   3.067   6.575 -0.8888 -3.4513  0.1538
  128OSM    C3S13709   0.579   3.245   6.567  0.6421 -0.3457  0.2556
  128OSM    H3S13710   0.477   3.286   6.585  0.1240 -0.6245 -1.9189
  128OSM     O313711   0.604   3.294   6.435  0.5901  0.0071  0.1044
  128OSM    HO313712   0.617   3.214   6.383 -1.3488 -1.3752  1.6722
  128OSM    C4S13713   0.659   3.321   6.664 -1.0789 -0.0036  0.1435
  128OSM    H4S13714   0.608   3.335   6.761  1.3802 -1.0309  1.6451
  128OSM    C5S13715   0.792   3.338   6.670 -0.4427 -0.6273 -0.7910
  128OSM    H5S13716   0.863   3.298   6.597  0.6447  1.7854 -1.1177
  128OSM    C6S13717   0.865   3.409   6.781  0.4128 -0.6094  0.2042
  128OSM    H6S13718   0.911   3.499   6.734 -0.2130  0.1392  1.0220
  128OSM    H6T13719   0.952   3.358   6.829  2.0073  0.5499 -1.3540
  128OSM    C7S13720   0.773   3.463   6.895 -0.7064 -0.1780 -0.5181
  128OSM    H7S13721   0.714   3.378   6.936  2.8915 -1.8959  1.3733
  128OSM    H7T13722   0.708   3.544   6.856 -0.1376  0.6352  0.2093
  128OSM    C8S13723   0.853   3.511   7.011 -0.9250  0.1364 -0.4622
  128OSM    H8S13724   0.908   3.605   6.993  0.3296 -0.5263 -0.1680
  128OSM    H8T13725   0.936   3.437   7.011 -0.8258  0.2421  0.6733
  128OSM    C9S13726   0.779   3.524   7.147  0.0927 -0.9096  0.7499
  128OSM    H9S13727   0.741   3.424   7.177  0.2425 -1.4601 -0.8835
  128OSM    H9T13728   0.692   3.593   7.143  1.1724  0.5037  1.1104
  128OSM   C10S13729   0.863   3.580   7.260  0.0493  0.1173 -0.2201
  128OSM   H10S13730   0.897   3.686   7.258 -1.3484  0.6351  1.9381
  128OSM   H10T13731   0.955   3.520   7.273 -0.4253 -0.2756  1.4356
  128OSM   C11S13732   0.790   3.563   7.396 -0.4068 -0.0153 -0.1875
  128OSM   H11S13733   0.740   3.464   7.399  0.9103 -0.7498 -1.5081
  128OSM   H11T13734   0.706   3.635   7.388 -0.6314 -0.2359  0.1467
  128OSM   C12S13735   0.880   3.572   7.520 -0.0904  0.7566 -0.6589
  128OSM   H12S13736   0.969   3.636   7.502  0.3909  0.3584  0.2581
  128OSM   H12T13737   0.926   3.472   7.534 -0.5920  0.9380  2.8066
  128OSM   C13S13738   0.813   3.635   7.644  0.2455  0.4759  0.1877
  128OSM   H13S13739   0.737   3.562   7.680 -3.5507  4.1299 -0.0526
  128OSM   H13T13740   0.738   3.706   7.604  0.3330  0.2443 -0.4011
  128OSM   C14S13741   0.908   3.682   7.752 -0.4739 -0.1515 -0.5806
  128OSM   H14S13742   0.871   3.744   7.836 -0.2575  0.3506 -0.8560
  128OSM   H14T13743   0.985   3.754   7.719  0.7303 -0.8746  0.5723
  128OSM   C15S13744   0.975   3.565   7.830 -0.5460  0.1716 -0.0518
  128OSM   H15S13745   1.057   3.524   7.766 -3.3018 -3.1230 -1.6698
  128OSM   H15T13746   0.905   3.479   7.840  1.6576 -1.5611  1.2577
  128OSM   C16S13747   1.040   3.610   7.960 -0.3801  0.5334 -0.0835
  128OSM   H16S13748   0.956   3.644   8.024 -0.4308 -0.2168  0.2450
  128OSM   H16T13749   1.114   3.690   7.935  1.5316 -1.0227  0.4696
  128OSM   C17S13750   1.124   3.499   8.025  0.1216 -0.0165  0.1705
  128OSM   H17S13751   1.200   3.463   7.952 -0.8176  0.0892 -0.8769
  128OSM   H17T13752   1.060   3.413   8.054 -0.8788  0.9241  0.7901
  128OSM   C18S13753   1.184   3.543   8.162 -0.9520  0.8190  0.1310
  128OSM   H18S13754   1.238   3.640   8.154  0.2758  0.2992  2.0224
  128OSM   H18T13755   1.264   3.476   8.199 -1.3117  0.1852 -0.2289
  128OSM   H18U13756   1.101   3.571   8.230 -0.6149 -0.7618  1.2194
  128OSM    C1F13757   0.600   2.910   6.763 -0.1235  0.5244  0.5011
  128OSM     OF13758   0.703   2.858   6.718 -0.0093  0.2898  0.0620
  128OSM    C2F13759   0.514   2.830   6.850 -0.3907  0.0991  0.1735
  128OSM    H2F13760   0.491   2.739   6.792 -3.5089  2.4357 -2.4482
  128OSM    H2G13761   0.415   2.874   6.874 -0.4130 -0.2194  0.6842
  128OSM    C3F13762   0.589   2.782   6.968  0.1990 -0.4785  0.1363
  128OSM    H3F13763   0.632   2.858   7.037  0.8982 -0.1135 -0.6946
  128OSM    H3G13764   0.680   2.727   6.935 -0.1605 -1.5194  0.8563
  128OSM    C4F13765   0.508   2.688   7.048  0.4528 -0.6642 -0.4426
  128OSM    H4F13766   0.570   2.612   7.100 -0.5152  0.2174  2.0296
  128OSM    H4G13767   0.442   2.626   6.984 -0.2088 -0.0321 -0.3832
  128OSM    C5F13768   0.420   2.756   7.151  0.1211  0.0511  0.3625
  128OSM    H5F13769   0.345   2.681   7.185  1.2472 -0.8316  0.9523
  128OSM    H5G13770   0.343   2.821   7.106 -0.9157  0.4334  2.6314
  128OSM    C6F13771   0.496   2.811   7.281 -0.1690 -0.3596 -0.6960
  128OSM    H6F13772   0.571   2.888   7.252 -0.6586  0.2951 -0.2336
  128OSM    H6G13773   0.549   2.728   7.332 -2.1706  0.0321  2.1105
  128OSM    C7F13774   0.401   2.883   7.383  0.5153  0.0964  1.1308
  128OSM    H7F13775   0.328   2.927   7.312 -1.6180  0.3819  3.4429
  128OSM    H7G13776   0.452   2.965   7.437 -1.3931  2.8744 -1.1055
  128OSM    C8F13777   0.357   2.787   7.489 -0.4307  0.3960  0.0391
  128OSM    H8F13778   0.317   2.693   7.446  1.8566  0.4386 -2.2664
  128OSM    H8G13779   0.267   2.839   7.530 -2.2953 -0.1935 -3.1644
  128OSM    C9F13780   0.461   2.759   7.605 -0.2212  0.0905  0.2138
  128OSM    H9F13781   0.539   2.684   7.583 -0.3311  0.1700 -0.4653
  128OSM   C10F13782   0.469   2.812   7.729 -0.0937  0.0827  0.3070
  128OSM   H10F13783   0.535   2.770   7.806 -1.3019 -1.7216  0.3908
  128OSM   C11F13784   0.375   2.929   7.777  0.2571 -0.5237 -0.1385
  128OSM   H11F13785   0.294   2.945   7.702 -0.1689  2.7116  0.9338
  128OSM   H11G13786   0.421   3.030   7.784  2.1803 -1.4118  0.1386
  128OSM   C12F13787   0.310   2.894   7.913  0.4878 -0.3881  0.6997
  128OSM   H12F13788   0.261   2.795   7.921  0.9854 -0.6465  0.6254
  128OSM   H12G13789   0.237   2.974   7.937  0.6544  0.4118 -1.3393
  128OSM   C13F13790   0.425   2.899   8.016  0.1018  0.0119 -0.3473
  128OSM   H13F13791   0.472   2.999   8.011 -0.0766  0.0588 -1.0877
  128OSM   H13G13792   0.508   2.831   7.988  1.4031  1.6165 -0.4270
  128OSM   C14F13793   0.380   2.872   8.161 -0.2115 -0.0137 -0.3302
  128OSM   H14F13794   0.353   2.764   8.165 -1.4542  0.2883 -0.1609
  128OSM   H14G13795   0.287   2.923   8.194 -2.6613 -3.4552 -1.5642
  128OSM   C15F13796   0.491   2.882   8.268  0.3170 -0.0597 -0.5550
  128OSM   H15F13797   0.542   2.980   8.263  0.8028 -0.3396 -1.1557
  128OSM   H15G13798   0.568   2.805   8.247  0.8936  0.6594 -1.1136
  128OSM   C16F13799   0.439   2.865   8.407 -0.2680 -1.0018 -0.1999
  128OSM   H16F13800   0.388   2.767   8.408 -0.0127 -1.1292  0.5194
  128OSM   H16G13801   0.372   2.948   8.438  1.0862  0.3785 -0.8903
  128OSM   C17F13802   0.559   2.857   8.512  0.6442  0.3493  1.3216
  128OSM   H17F13803   0.642   2.816   8.451 -0.4798  0.4073 -0.2847
  128OSM   H17G13804   0.527   2.781   8.587  1.2672  0.1521  1.3920
  128OSM   C18F13805   0.590   2.990   8.570  0.0601 -0.5461  0.1345
  128OSM   H18F13806   0.600   3.066   8.490  0.8834 -0.9375 -0.1315
  128OSM   H18G13807   0.677   2.989   8.639  0.0435 -2.9876  0.1392
  128OSM   H18H13808   0.509   3.025   8.638  0.9899  1.5280  0.2042
  129OSM      N13809   4.239   6.318   6.160 -0.2899  0.3958 -0.0450
  129OSM    C1513810   4.218   6.367   6.295 -0.2949 -0.0286  0.1141
  129OSM   H15A13811   4.297   6.437   6.319 -0.2479 -0.3133  0.8123
  129OSM   H15B13812   4.242   6.291   6.367 -1.2725  0.2447  0.7492
  129OSM   H15C13813   4.120   6.406   6.322  0.5018  0.1734  2.9287
  129OSM    C1413814   4.124   6.243   6.104  0.0805  0.0067 -0.5802
  129OSM   H14A13815   4.039   6.309   6.090 -0.0249 -0.2020 -0.9292
  129OSM   H14B13816   4.094   6.167   6.174 -0.2548  0.3535 -0.3425
  129OSM   H14C13817   4.154   6.201   6.009  0.4347 -0.6444 -0.1785
  129OSM    C1313818   4.258   6.440   6.073 -0.0449 -0.1711  0.2502
  129OSM   H13A13819   4.169   6.497   6.055  0.8769  1.1314 -0.2194
  129OSM   H13B13820   4.304   6.408   5.981 -1.5717  1.4805 -1.1122
  129OSM   H13C13821   4.334   6.503   6.115  0.0836  0.3519 -0.7529
  129OSM    C1213822   4.366   6.230   6.160 -0.1393  0.4890 -0.0544
  129OSM   H12A13823   4.382   6.175   6.068  0.6086 -0.7010  0.7826
  129OSM   H12B13824   4.359   6.146   6.227  1.9370 -1.0464 -1.6808
  129OSM    C1113825   4.497   6.312   6.196 -0.2735  0.7418 -0.7619
  129OSM   H11A13826   4.524   6.370   6.105 -0.8633 -0.3948 -1.6798
  129OSM   H11B13827   4.575   6.235   6.216  0.8879  2.0895 -0.0806
  129OSM      P13828   4.602   6.508   6.339 -0.1597 -0.4522  0.5120
  129OSM    O1313829   4.644   6.580   6.215 -0.5531 -0.1039 -0.0562
  129OSM    O1413830   4.543   6.586   6.449 -0.3255  0.6060  0.2428
  129OSM    O1113831   4.719   6.425   6.398  0.2007  0.0638  0.1299
  129OSM    O1213832   4.496   6.397   6.306 -0.3128  0.1643 -0.0550
  129OSM    C1S13833   4.820   6.496   6.477  0.1240 -0.0790  0.5492
  129OSM    H1S13834   4.821   6.605   6.453 -0.0283 -0.1712  0.1201
  129OSM    H1T13835   4.921   6.451   6.462 -0.0787  0.0747 -1.3494
  129OSM     NF13836   4.896   6.569   6.699  0.1451 -0.0845 -0.0607
  129OSM    HNF13837   4.967   6.525   6.754  0.4891  0.4938 -0.0448
  129OSM    C2S13838   4.796   6.484   6.629 -0.8529  0.1131  0.5591
  129OSM    H2S13839   4.698   6.523   6.663 -0.0852 -0.2951  3.3414
  129OSM    C3S13840   4.798   6.337   6.666  0.1287  0.3022 -0.0575
  129OSM    H3S13841   4.889   6.282   6.634 -1.9315 -4.1644  1.3187
  129OSM     O313842   4.691   6.265   6.612 -0.1553  0.6180 -0.5196
  129OSM    HO313843   4.648   6.333   6.560  0.7802  2.1084  0.6112
  129OSM    C4S13844   4.783   6.321   6.813  0.0767 -1.0629 -0.0989
  129OSM    H4S13845   4.688   6.358   6.854  0.3471 -0.1033 -0.3095
  129OSM    C5S13846   4.871   6.261   6.889  0.3075  1.5679  0.1211
  129OSM    H5S13847   4.959   6.219   6.838 -1.8198 -0.8589 -1.6936
  129OSM    C6S13848   4.857   6.248   7.037  0.3114  0.5177 -0.4240
  129OSM    H6S13849   4.887   6.144   7.061  0.2306  1.0622  2.2084
  129OSM    H6T13850   4.751   6.262   7.065  0.5951  1.4534  0.2206
  129OSM    C7S13851   4.941   6.358   7.109 -0.4364  1.5170 -0.0389
  129OSM    H7S13852   4.904   6.454   7.069 -1.8969  1.6388  1.5532
  129OSM    H7T13853   5.051   6.367   7.094 -0.4746  3.3733  0.7210
  129OSM    C8S13854   4.913   6.357   7.257  0.1261  0.3235 -0.4434
  129OSM    H8S13855   4.935   6.255   7.295  2.2756  0.8812 -0.1620
  129OSM    H8T13856   4.804   6.376   7.271 -0.0642 -0.5744 -0.6042
  129OSM    C9S13857   4.996   6.459   7.335 -0.9670 -0.0642 -0.3019
  129OSM    H9S13858   4.984   6.564   7.299 -0.7082 -1.0181 -3.2980
  129OSM    H9T13859   5.102   6.434   7.313 -0.6733  0.7305  0.1811
  129OSM   C10S13860   4.976   6.451   7.487  0.1392  0.9680 -0.2068
  129OSM   H10S13861   5.008   6.349   7.517  0.3594  1.3388  0.8520
  129OSM   H10T13862   4.868   6.470   7.504 -0.1987 -1.9883  1.1920
  129OSM   C11S13863   5.051   6.554   7.564 -0.2148 -0.0758 -0.6389
  129OSM   H11S13864   4.996   6.651   7.570 -1.8605 -0.9411 -1.4190
  129OSM   H11T13865   5.152   6.573   7.520 -0.5341  0.5630 -1.1115
  129OSM   C12S13866   5.064   6.520   7.716  0.5354  0.1845  0.4601
  129OSM   H12S13867   5.129   6.433   7.735  1.6834  0.7856 -0.6037
  129OSM   H12T13868   4.970   6.490   7.767 -0.1246  0.9708 -0.2722
  129OSM   C13S13869   5.109   6.649   7.789  0.2615 -0.0323  0.2597
  129OSM   H13S13870   5.034   6.725   7.760  1.1069 -0.1919 -2.4521
  129OSM   H13T13871   5.209   6.671   7.746  0.2558 -1.8896 -0.7559
  129OSM   C14S13872   5.125   6.644   7.940  0.4312  0.4363 -0.2722
  129OSM   H14S13873   5.169   6.546   7.969 -1.2103  0.2801  1.8500
  129OSM   H14T13874   5.027   6.659   7.991  0.2089  0.7594 -0.7903
  129OSM   C15S13875   5.208   6.759   8.006 -0.4936 -0.0044  0.5413
  129OSM   H15S13876   5.168   6.855   7.968  0.1790  0.5626  1.2614
  129OSM   H15T13877   5.313   6.747   7.971 -0.4677  2.2092 -0.1716
  129OSM   C16S13878   5.216   6.746   8.160 -0.0137 -0.1717 -0.3160
  129OSM   H16S13879   5.269   6.651   8.183 -2.1882 -1.6299 -1.1616
  129OSM   H16T13880   5.116   6.756   8.208  0.1929  2.1389 -0.3153
  129OSM   C17S13881   5.299   6.864   8.228  0.3032  0.2153  0.1495
  129OSM   H17S13882   5.387   6.900   8.170  0.0381  1.3148  0.4312
  129OSM   H17T13883   5.344   6.813   8.316  2.3852 -0.5508 -1.3014
  129OSM   C18S13884   5.220   6.974   8.293 -0.2751  0.4472  0.7143
  129OSM   H18S13885   5.290   7.038   8.352  2.1372  0.5049 -2.1271
  129OSM   H18T13886   5.136   6.942   8.358  0.3114  0.7866  1.6531
  129OSM   H18U13887   5.173   7.031   8.211 -0.0283  0.5023  0.6113
  129OSM    C1F13888   4.899   6.697   6.710 -0.5576  0.1989  0.1139
  129OSM     OF13889   4.801   6.750   6.655  0.4385 -0.2914 -0.5866
  129OSM    C2F13890   5.019   6.755   6.763  0.0516 -0.0312 -0.0951
  129OSM    H2F13891   5.017   6.866   6.755  1.1860  0.0429  0.5405
  129OSM    H2G13892   5.106   6.703   6.718  1.6508  2.3370  0.1421
  129OSM    C3F13893   5.026   6.726   6.924 -0.2600 -1.7180 -0.3890
  129OSM    H3F13894   5.048   6.618   6.943 -0.0590 -1.8547 -1.3694
  129OSM    H3G13895   4.933   6.770   6.965 -0.2438 -1.1288 -0.9738
  129OSM    C4F13896   5.147   6.808   6.977  0.0296  0.1871  0.4901
  129OSM    H4F13897   5.133   6.916   6.952  2.6610  0.5932  0.6541
  129OSM    H4G13898   5.243   6.781   6.930 -1.5004 -1.1337 -2.0006
  129OSM    C5F13899   5.177   6.796   7.124 -0.0530 -0.1832 -0.1343
  129OSM    H5F13900   5.208   6.689   7.133  0.1293 -0.2327 -1.2505
  129OSM    H5G13901   5.088   6.812   7.188 -0.6738 -0.2912 -0.9588
  129OSM    C6F13902   5.308   6.869   7.156 -0.2272  0.5036  0.3578
  129OSM    H6F13903   5.389   6.821   7.097 -1.0465 -2.1636  1.3364
  129OSM    H6G13904   5.335   6.844   7.261  0.3944  1.1648  0.3650
  129OSM    C7F13905   5.313   7.028   7.135 -0.5349 -0.7522  0.4902
  129OSM    H7F13906   5.224   7.078   7.180 -0.4009  0.9887 -1.1250
  129OSM    H7G13907   5.309   7.050   7.026 -2.1193 -2.0832  0.2543
  129OSM    C8F13908   5.433   7.105   7.193 -0.0993  0.1120 -0.0120
  129OSM    H8F13909   5.440   7.079   7.301 -0.4471  2.7411  0.6661
  129OSM    H8G13910   5.411   7.214   7.190  0.2074  0.1600 -0.7627
  129OSM    C9F13911   5.560   7.088   7.113 -0.0465  0.2264 -0.0817
  129OSM    H9F13912   5.549   7.096   7.004  4.0085 -1.3130 -0.6809
  129OSM   C10F13913   5.676   7.085   7.165 -0.4771  0.0170  0.7976
  129OSM   H10F13914   5.763   7.091   7.097 -1.6296  0.5081 -0.6744
  129OSM   C11F13915   5.707   7.091   7.316  0.0516 -0.5267 -0.2760
  129OSM   H11F13916   5.642   7.169   7.360  0.1086 -0.8133  0.3107
  129OSM   H11G13917   5.813   7.126   7.322 -0.6010  1.1453  2.1792
  129OSM   C12F13918   5.685   6.965   7.406 -0.0991  0.0692  0.2980
  129OSM   H12F13919   5.750   6.889   7.358  2.0159  0.3656  2.5619
  129OSM   H12G13920   5.580   6.928   7.398  0.5817 -1.6964 -0.7291
  129OSM   C13F13921   5.734   6.989   7.551 -0.7559 -0.0341 -0.4113
  129OSM   H13F13922   5.834   7.036   7.539  0.1490 -1.6297  0.7237
  129OSM   H13G13923   5.744   6.888   7.596 -0.5701 -0.0885 -0.5729
  129OSM   C14F13924   5.638   7.073   7.637 -0.0271  0.3819  0.2511
  129OSM   H14F13925   5.535   7.034   7.628  0.2737 -0.3706  0.0477
  129OSM   H14G13926   5.638   7.175   7.593  2.7606 -0.6804 -2.4054
  129OSM   C15F13927   5.676   7.071   7.787 -0.2960 -0.5936  0.7918
  129OSM   H15F13928   5.617   7.155   7.830  0.3271 -0.2755  1.0347
  129OSM   H15G13929   5.784   7.091   7.800 -0.5618 -0.1811  2.6765
  129OSM   C16F13930   5.648   6.932   7.844  0.8339  0.3597 -0.3574
  129OSM   H16F13931   5.711   6.852   7.801 -0.4063 -1.6138  1.4098
  129OSM   H16G13932   5.541   6.903   7.833  0.4668  1.7330 -0.4712
  129OSM   C17F13933   5.661   6.923   7.997  0.0392 -0.6745 -0.1953
  129OSM   H17F13934   5.616   6.826   8.029  1.7217 -0.4818  2.9474
  129OSM   H17G13935   5.610   7.008   8.046  0.9844 -0.3338  0.1996
  129OSM   C18F13936   5.804   6.925   8.041  0.0212  0.0054 -0.2841
  129OSM   H18F13937   5.824   6.881   8.141 -0.6209  2.3989  0.9290
  129OSM   H18G13938   5.839   7.031   8.045 -1.0290  0.3412 -0.0006
  129OSM   H18H13939   5.869   6.875   7.966  1.6919  0.4873  0.8149
  130OSM      N13940   1.087   1.729   5.927  0.1900 -0.4755  0.1440
  130OSM    C1513941   1.072   1.658   6.061  0.2534 -0.2570 -0.1000
  130OSM   H15A13942   1.082   1.728   6.142  1.3723  0.7458 -1.0860
  130OSM   H15B13943   1.142   1.579   6.086  0.0071 -0.2862  0.5212
  130OSM   H15C13944   0.974   1.612   6.060  0.3930 -0.5562 -0.0276
  130OSM    C1413945   1.100   1.630   5.817  0.4050  0.5212  0.5897
  130OSM   H14A13946   1.003   1.590   5.791  0.0516  1.4479  0.4914
  130OSM   H14B13947   1.168   1.550   5.843  0.3423  0.8849  1.8972
  130OSM   H14C13948   1.133   1.677   5.726 -0.1535 -1.1254 -0.4794
  130OSM    C1313949   0.967   1.813   5.895  0.2980  0.2864 -0.1682
  130OSM   H13A13950   0.958   1.902   5.956 -3.0289 -0.2944  0.2809
  130OSM   H13B13951   0.877   1.759   5.922  1.1098  0.2846  2.6901
  130OSM   H13C13952   0.952   1.841   5.792 -1.1046 -0.5636 -0.2129
  130OSM    C1213953   1.216   1.806   5.940 -0.1001  0.2439  0.2249
  130OSM   H12A13954   1.255   1.846   5.847  0.5695  1.0695  0.8509
  130OSM   H12B13955   1.286   1.731   5.973  0.6649  1.5949  1.7428
  130OSM    C1113956   1.222   1.925   6.040 -0.0615  0.3253  0.1106
  130OSM   H11A13957   1.327   1.962   6.048  0.1085  0.1089 -1.0054
  130OSM   H11B13958   1.193   1.890   6.141 -0.2331  0.6432  0.1743
  130OSM      P13959   1.043   2.115   6.088 -0.0238  0.0677 -0.4314
  130OSM    O1313960   1.038   2.257   6.048 -0.1308  0.2269 -0.4474
  130OSM    O1413961   0.907   2.056   6.091  0.5064  0.1857  0.1152
  130OSM    O1113962   1.104   2.092   6.227  0.1086 -0.8428  0.1609
  130OSM    O1213963   1.149   2.040   5.999 -0.5408  0.1446  0.1702
  130OSM    C1S13964   1.065   2.165   6.344  0.1254  0.4961  0.0917
  130OSM    H1S13965   0.955   2.156   6.358  0.2962 -1.6879  0.2215
  130OSM    H1T13966   1.110   2.266   6.337 -2.1607  1.6032  0.8178
  130OSM     NF13967   1.077   2.175   6.577  0.3698  0.1598 -0.1057
  130OSM    HNF13968   1.139   2.242   6.617 -0.4819  0.5196  0.6285
  130OSM    C2S13969   1.133   2.101   6.465 -0.0174  0.1624 -0.4433
  130OSM    H2S13970   1.101   1.994   6.462  0.2835  0.0501  0.2746
  130OSM    C3S13971   1.290   2.098   6.453 -0.4523  0.2152 -0.0224
  130OSM    H3S13972   1.327   2.196   6.416  0.1567 -0.9232 -2.5764
  130OSM     O313973   1.347   2.010   6.347 -0.3341  0.6798  0.2163
  130OSM    HO313974   1.273   1.991   6.289  1.4499  1.2411 -2.3084
  130OSM    C4S13975   1.344   2.062   6.592  0.1398 -0.2218  0.0794
  130OSM    H4S13976   1.384   2.152   6.641  1.2309 -1.0891  0.8089
  130OSM    C5S13977   1.359   1.947   6.653 -0.4361 -0.6517 -0.5242
  130OSM    H5S13978   1.333   1.851   6.606 -1.5962 -0.1352 -0.9430
  130OSM    C6S13979   1.417   1.915   6.784 -1.3372 -0.2904  0.7751
  130OSM    H6S13980   1.525   1.893   6.766 -1.5848  0.0906 -1.2818
  130OSM    H6T13981   1.379   1.815   6.816 -0.7086  0.0209  2.5722
  130OSM    C7S13982   1.399   2.014   6.898  0.0768 -0.3000 -0.2931
  130OSM    H7S13983   1.289   2.027   6.908  0.4680  0.7836  3.4267
  130OSM    H7T13984   1.451   2.110   6.881 -0.2473 -0.4021 -1.8752
  130OSM    C8S13985   1.456   1.958   7.029  0.0578  0.0536 -0.1997
  130OSM    H8S13986   1.566   1.938   7.025  0.0572  0.0401 -0.1432
  130OSM    H8T13987   1.406   1.860   7.047  0.8111 -0.7588 -2.2770
  130OSM    C9S13988   1.439   2.062   7.144 -0.5635  0.7137  0.8217
  130OSM    H9S13989   1.330   2.080   7.152 -0.6859 -0.8351  3.3372
  130OSM    H9T13990   1.470   2.162   7.107  1.1588 -0.1642 -0.1522
  130OSM   C10S13991   1.505   2.028   7.276  0.9612  0.5459  0.5478
  130OSM   H10S13992   1.614   2.034   7.256  0.7693 -0.5493 -0.9182
  130OSM   H10T13993   1.471   1.928   7.310 -1.4806  1.0089 -0.3899
  130OSM   C11S13994   1.489   2.132   7.388 -0.5306 -0.3076  0.1676
  130OSM   H11S13995   1.382   2.134   7.419  0.0841  1.1269  2.3122
  130OSM   H11T13996   1.521   2.234   7.358  0.1454 -0.2730  0.9920
  130OSM   C12S13997   1.555   2.086   7.518 -0.0248  0.2700 -0.3255
  130OSM   H12S13998   1.665   2.080   7.508 -0.3443 -0.8144 -4.0688
  130OSM   H12T13999   1.516   1.982   7.521 -0.7291  0.4506 -2.0904
  130OSM   C13S14000   1.526   2.170   7.640 -0.1623  0.6130  0.5312
  130OSM   H13S14001   1.518   2.274   7.602 -2.9821  0.0823 -0.4177
  130OSM   H13T14002   1.607   2.160   7.715  0.2587  0.8739  0.1144
  130OSM   C14S14003   1.394   2.143   7.712 -0.3105  0.0711 -0.1696
  130OSM   H14S14004   1.302   2.157   7.652  0.6473  0.1913 -1.6138
  130OSM   H14T14005   1.393   2.221   7.791  1.7223 -0.9455  0.9040
  130OSM   C15S14006   1.398   2.009   7.793 -0.6360 -0.2356 -0.1429
  130OSM   H15S14007   1.492   2.012   7.852 -1.5310  0.7653  1.2535
  130OSM   H15T14008   1.408   1.922   7.726  0.5217 -2.2980  2.6329
  130OSM   C16S14009   1.283   1.994   7.892  0.8431  0.7705 -0.2802
  130OSM   H16S14010   1.192   2.009   7.831  0.0622  1.2866  1.0020
  130OSM   H16T14011   1.292   2.080   7.962  1.8389  0.6845 -0.2944
  130OSM   C17S14012   1.279   1.858   7.969  0.5155 -0.9269  0.1119
  130OSM   H17S14013   1.378   1.838   8.016  1.2243  1.6495 -0.1997
  130OSM   H17T14014   1.257   1.780   7.894  1.0428  1.2106 -2.3322
  130OSM   C18S14015   1.171   1.867   8.082 -0.0504  0.5052 -0.3504
  130OSM   H18S14016   1.166   1.781   8.153  0.5496 -0.6206 -1.6549
  130OSM   H18T14017   1.069   1.879   8.038  0.1453  1.5339 -0.5412
  130OSM   H18U14018   1.202   1.949   8.150 -1.2647 -0.7393  1.7644
  130OSM    C1F14019   0.960   2.156   6.627 -0.4943  0.6814 -0.1485
  130OSM     OF14020   0.893   2.053   6.602  0.0103 -0.0945 -0.4260
  130OSM    C2F14021   0.916   2.250   6.735  0.1617  0.5175 -0.4076
  130OSM    H2F14022   0.836   2.316   6.695  0.0580  1.5740  1.4969
  130OSM    H2G14023   1.012   2.297   6.767 -0.2042  0.6110  0.5836
  130OSM    C3F14024   0.850   2.176   6.862  0.9670  0.0701  0.3944
  130OSM    H3F14025   0.920   2.097   6.898 -2.6701 -3.2339  0.5761
  130OSM    H3G14026   0.762   2.114   6.832  0.1144  1.8154 -0.7988
  130OSM    C4F14027   0.798   2.274   6.966  1.0756 -0.2513 -0.1385
  130OSM    H4F14028   0.710   2.327   6.924  1.0096 -0.1381  0.1470
  130OSM    H4G14029   0.875   2.354   6.974 -1.3767  2.5869 -3.5286
  130OSM    C5F14030   0.769   2.210   7.103 -0.3955  0.0844  0.5226
  130OSM    H5F14031   0.850   2.145   7.145 -0.7165  0.7796  2.2489
  130OSM    H5G14032   0.678   2.147   7.090 -1.4303  1.5504  0.5851
  130OSM    C6F14033   0.740   2.309   7.211  0.0177 -0.2274 -0.6145
  130OSM    H6F14034   0.679   2.393   7.172 -2.3895 -0.7545  1.7856
  130OSM    H6G14035   0.838   2.333   7.257 -1.0347  1.9647  0.5455
  130OSM    C7F14036   0.670   2.250   7.335  0.2448 -0.1390 -0.3756
  130OSM    H7F14037   0.735   2.172   7.382  0.5078 -0.3873 -1.1541
  130OSM    H7G14038   0.575   2.207   7.299  1.0975 -0.6673 -2.0281
  130OSM    C8F14039   0.629   2.361   7.436 -0.4785 -1.0041  0.5670
  130OSM    H8F14040   0.546   2.325   7.501 -0.6940 -3.1338 -0.8560
  130OSM    H8G14041   0.580   2.449   7.389 -1.1097 -1.3681  0.5457
  130OSM    C9F14042   0.749   2.406   7.514 -0.5794 -0.9805  0.1679
  130OSM    H9F14043   0.831   2.451   7.457  0.1481  0.8278  2.5547
  130OSM   C10F14044   0.760   2.409   7.648  0.1545 -0.1486 -0.6768
  130OSM   H10F14045   0.861   2.435   7.683  0.4642 -3.1581  0.8835
  130OSM   C11F14046   0.667   2.350   7.752  0.8046 -0.4410  0.1250
  130OSM   H11F14047   0.691   2.243   7.771 -2.1633 -1.2209 -0.1266
  130OSM   H11G14048   0.560   2.342   7.722  0.9675 -2.6476  0.0285
  130OSM   C12F14049   0.670   2.433   7.882 -0.5889  0.0368 -0.2227
  130OSM   H12F14050   0.647   2.539   7.857 -0.1915  0.2142  0.1573
  130OSM   H12G14051   0.772   2.422   7.924 -1.3034  1.9692  2.1327
  130OSM   C13F14052   0.566   2.392   7.988 -0.8813 -0.7786  0.4377
  130OSM   H13F14053   0.594   2.291   8.025  0.6864 -0.9445 -1.1620
  130OSM   H13G14054   0.473   2.407   7.929 -0.2206 -0.8247 -0.6229
  130OSM   C14F14055   0.562   2.483   8.118 -0.2217  0.8351 -0.4239
  130OSM   H14F14056   0.570   2.588   8.082  1.8760  0.6931 -0.4157
  130OSM   H14G14057   0.653   2.469   8.180 -0.8770  0.1833  0.4043
  130OSM   C15F14058   0.428   2.498   8.201  0.2304  0.3362  0.2453
  130OSM   H15F14059   0.350   2.524   8.127  0.3891  1.9986  0.6522
  130OSM   H15G14060   0.444   2.588   8.264 -0.9518  0.4639  0.3674
  130OSM   C16F14061   0.389   2.389   8.293  0.0359  0.5723  0.1815
  130OSM   H16F14062   0.475   2.353   8.353 -0.1721  0.6252  0.5130
  130OSM   H16G14063   0.344   2.305   8.235 -0.5396 -0.2564  1.8015
  130OSM   C17F14064   0.279   2.434   8.392  0.5694  0.0197 -0.2358
  130OSM   H17F14065   0.184   2.437   8.336 -0.5186  0.0904  1.5751
  130OSM   H17G14066   0.296   2.538   8.429 -1.4282 -0.3221  1.7582
  130OSM   C18F14067   0.275   2.344   8.513 -0.1730 -0.4062  0.0590
  130OSM   H18F14068   0.183   2.361   8.573  0.1940 -0.6036  0.6757
  130OSM   H18G14069   0.371   2.360   8.566  0.5418 -0.9457 -1.0657
  130OSM   H18H14070   0.276   2.239   8.479 -0.6532 -0.0354 -1.1467
  131OSM      N14071   5.795   4.541   5.629 -0.1131  0.3394 -0.5241
  131OSM    C1514072   5.901   4.480   5.539 -1.2727  0.1414 -0.1027
  131OSM   H15A14073   5.992   4.523   5.578 -0.1692 -1.1338 -1.2036
  131OSM   H15B14074   5.887   4.515   5.437 -0.1087 -1.0097 -0.6737
  131OSM   H15C14075   5.908   4.372   5.543  0.8949  0.2584 -0.0250
  131OSM    C1414076   5.811   4.687   5.635 -0.0840 -0.7889 -0.2220
  131OSM   H14A14077   5.728   4.735   5.686  1.0268 -0.0520  0.9056
  131OSM   H14B14078   5.823   4.732   5.538 -2.6739 -0.7071 -0.5519
  131OSM   H14C14079   5.902   4.717   5.684 -0.9689  1.6042  0.0264
  131OSM    C1314080   5.669   4.512   5.555 -0.4825 -0.1721 -0.0948
  131OSM   H13A14081   5.583   4.544   5.612 -0.1680 -1.6357  1.2292
  131OSM   H13B14082   5.659   4.406   5.538 -0.8835 -0.0703 -0.4958
  131OSM   H13C14083   5.654   4.563   5.461  0.4948 -0.7025 -0.5464
  131OSM    C1214084   5.801   4.477   5.767  0.2395 -0.4583  0.1454
  131OSM   H12A14085   5.905   4.476   5.799  0.1207 -1.7306  0.5099
  131OSM   H12B14086   5.760   4.377   5.774  0.8486 -0.8041 -1.1271
  131OSM    C1114087   5.716   4.557   5.871  0.2195  0.1786 -0.1833
  131OSM   H11A14088   5.756   4.659   5.887  0.6592 -0.2902  1.9732
  131OSM   H11B14089   5.737   4.502   5.965  0.3582 -0.4489 -0.5759
  131OSM      P14090   5.460   4.561   5.943 -0.4020  0.0749  0.1715
  131OSM    O1314091   5.359   4.655   5.891 -0.2898 -0.1000 -0.3427
  131OSM    O1414092   5.408   4.424   5.964 -0.1454 -0.3917  0.2309
  131OSM    O1114093   5.538   4.617   6.068 -0.2671  0.6474  0.5380
  131OSM    O1214094   5.578   4.554   5.842 -0.3026 -0.3782  0.2553
  131OSM    C1S14095   5.548   4.754   6.097  0.3238 -0.0468  0.0287
  131OSM    H1S14096   5.453   4.809   6.081 -0.9216 -1.9117  0.9590
  131OSM    H1T14097   5.624   4.792   6.025  0.6550 -0.1458  0.3253
  131OSM     NF14098   5.563   4.919   6.279 -0.3190 -0.2008  0.7777
  131OSM    HNF14099   5.643   4.979   6.279 -0.0318 -0.5506 -0.8888
  131OSM    C2S14100   5.586   4.779   6.245 -0.4003 -0.3643 -0.5455
  131OSM    H2S14101   5.508   4.724   6.302  0.8258 -1.1844  0.3523
  131OSM    C3S14102   5.729   4.714   6.278  0.0847 -0.1118 -0.4751
  131OSM    H3S14103   5.803   4.778   6.226 -0.9815  0.1825 -1.6552
  131OSM     O314104   5.736   4.575   6.230  0.3858 -0.1144 -0.4585
  131OSM    HO314105   5.662   4.577   6.170 -0.1474 -0.6273  0.1807
  131OSM    C4S14106   5.759   4.718   6.419  0.2152  0.4994  0.5882
  131OSM    H4S14107   5.833   4.797   6.441 -0.0084  0.9101 -0.1186
  131OSM    C5S14108   5.710   4.641   6.520  0.2117 -0.8333  1.5404
  131OSM    H5S14109   5.651   4.553   6.491 -0.1837  1.0544 -3.7338
  131OSM    C6S14110   5.743   4.647   6.665  0.1766  0.4067  0.1318
  131OSM    H6S14111   5.657   4.626   6.732  1.5523 -0.2532  1.7428
  131OSM    H6T14112   5.772   4.749   6.698  0.1566  0.1961  0.8307
  131OSM    C7S14113   5.862   4.545   6.700 -0.1944  0.5351 -0.2167
  131OSM    H7S14114   5.953   4.563   6.638  0.8823 -1.4894  0.7396
  131OSM    H7T14115   5.821   4.449   6.662  0.6635 -0.2552  0.8195
  131OSM    C8S14116   5.907   4.547   6.846  0.2248  0.2984  0.6182
  131OSM    H8S14117   5.963   4.643   6.855  3.0902 -1.2966  0.4278
  131OSM    H8T14118   5.986   4.470   6.858  0.8069  0.8051  0.1144
  131OSM    C9S14119   5.788   4.530   6.944  0.6722 -0.2655  0.3871
  131OSM    H9S14120   5.718   4.453   6.904  2.1922 -0.9270 -1.0673
  131OSM    H9T14121   5.731   4.625   6.946 -1.2024 -1.3147 -1.1064
  131OSM   C10S14122   5.841   4.503   7.082  0.5541  0.1590 -0.5833
  131OSM   H10S14123   5.906   4.578   7.133  1.1064 -0.6887 -0.0430
  131OSM   H10T14124   5.909   4.417   7.065 -2.4059 -2.4614  0.3749
  131OSM   C11S14125   5.737   4.456   7.191  1.2156  0.8052  0.2333
  131OSM   H11S14126   5.690   4.369   7.140  0.8123  1.9325 -1.3455
  131OSM   H11T14127   5.658   4.532   7.212  0.2112 -1.0969  3.7856
  131OSM   C12S14128   5.799   4.403   7.326 -0.0948  0.1945 -0.1680
  131OSM   H12S14129   5.866   4.315   7.315  0.6563  0.5366  1.5045
  131OSM   H12T14130   5.713   4.373   7.390 -1.3535 -0.7174 -2.2106
  131OSM   C13S14131   5.888   4.509   7.390 -0.4831 -0.7156  0.5424
  131OSM   H13S14132   5.831   4.603   7.399 -0.3723 -0.4827 -1.0614
  131OSM   H13T14133   5.972   4.533   7.321 -0.3766 -1.2591  0.4827
  131OSM   C14S14134   5.929   4.466   7.528  0.4712  0.6202  0.2537
  131OSM   H14S14135   5.965   4.361   7.529  0.4578  0.6043 -0.8353
  131OSM   H14T14136   5.829   4.455   7.575 -0.0001 -0.3850 -0.9641
  131OSM   C15S14137   6.033   4.554   7.596 -0.0625  0.6210 -0.0510
  131OSM   H15S14138   6.118   4.558   7.524 -0.3610 -0.0333 -0.4385
  131OSM   H15T14139   6.070   4.499   7.686  0.4641  0.2049 -0.5135
  131OSM   C16S14140   5.999   4.696   7.632  0.1771  0.5121  0.2835
  131OSM   H16S14141   5.961   4.738   7.536 -0.7985 -1.8970 -0.4428
  131OSM   H16T14142   6.086   4.750   7.674 -1.3910  1.9829  1.6790
  131OSM   C17S14143   5.888   4.716   7.736 -0.5004 -0.4673  1.0659
  131OSM   H17S14144   5.901   4.648   7.823 -0.1847 -1.6232  0.1328
  131OSM   H17T14145   5.797   4.679   7.684 -0.1171  0.3789 -0.2408
  131OSM   C18S14146   5.868   4.860   7.773 -0.1403  0.3428  0.2009
  131OSM   H18S14147   5.770   4.882   7.822 -0.2108  0.4413  0.0156
  131OSM   H18T14148   5.871   4.921   7.680 -2.0549  2.6122  1.5558
  131OSM   H18U14149   5.951   4.893   7.839 -0.6125  3.1613 -0.5509
  131OSM    C1F14150   5.438   4.976   6.279 -0.1740 -0.7806 -0.2537
  131OSM     OF14151   5.341   4.911   6.259  0.2631 -0.6821 -0.0896
  131OSM    C2F14152   5.428   5.117   6.316  0.5885  0.4286  0.2552
  131OSM    H2F14153   5.443   5.188   6.231 -1.2484  0.1666 -0.3065
  131OSM    H2G14154   5.522   5.141   6.371  1.2208 -0.8802 -0.2369
  131OSM    C3F14155   5.319   5.159   6.422  0.2640  0.1831  0.0318
  131OSM    H3F14156   5.324   5.093   6.511  1.1622  0.6828  0.3589
  131OSM    H3G14157   5.222   5.144   6.370  0.2945 -0.2742  0.1047
  131OSM    C4F14158   5.336   5.304   6.451 -0.3528  0.1955 -0.1348
  131OSM    H4F14159   5.273   5.364   6.382  1.6068 -0.0896 -2.2092
  131OSM    H4G14160   5.442   5.337   6.439 -0.1918  0.4283  1.7811
  131OSM    C5F14161   5.311   5.350   6.595  0.4602 -0.5353  0.4382
  131OSM    H5F14162   5.330   5.457   6.619 -0.6632 -0.5113  1.3049
  131OSM    H5G14163   5.378   5.304   6.671 -1.6121  0.1243  2.7396
  131OSM    C6F14164   5.159   5.314   6.626 -0.9137  0.0843 -0.2434
  131OSM    H6F14165   5.140   5.212   6.586 -0.5307  0.4060 -1.2696
  131OSM    H6G14166   5.088   5.384   6.576 -0.5914 -0.4017 -1.3969
  131OSM    C7F14167   5.126   5.301   6.780 -0.0119  0.1088  0.8765
  131OSM    H7F14168   5.175   5.385   6.832  1.5971 -0.8278  0.9091
  131OSM    H7G14169   5.167   5.207   6.823  0.7711 -0.1478 -0.4094
  131OSM    C8F14170   4.974   5.304   6.808 -0.7936 -0.5886 -0.4347
  131OSM    H8F14171   4.971   5.272   6.914  0.4101  0.5555 -0.0390
  131OSM    H8G14172   4.922   5.228   6.745  0.6542 -1.5413 -0.4968
  131OSM    C9F14173   4.910   5.448   6.791 -0.0413 -0.2151  0.3311
  131OSM    H9F14174   4.905   5.493   6.691 -1.5926  1.9017  1.3144
  131OSM   C10F14175   4.878   5.524   6.894  0.0689 -0.0391 -0.0216
  131OSM   H10F14176   4.830   5.622   6.878  1.4557  0.7762  0.6166
  131OSM   C11F14177   4.885   5.482   7.038  0.3726  0.0229  0.5871
  131OSM   H11F14178   4.978   5.423   7.047  1.7376  1.7492 -1.5294
  131OSM   H11G14179   4.799   5.412   7.044 -0.0547  0.4131 -0.7115
  131OSM   C12F14180   4.866   5.595   7.138 -0.3992  0.0162 -0.3012
  131OSM   H12F14181   4.765   5.643   7.145 -0.4118 -0.1091  0.4995
  131OSM   H12G14182   4.932   5.676   7.101 -2.4266  1.0573 -1.7697
  131OSM   C13F14183   4.902   5.553   7.272  0.4154  0.0472 -0.2523
  131OSM   H13F14184   5.001   5.504   7.278  1.0830  1.5770  1.5737
  131OSM   H13G14185   4.822   5.487   7.314  0.1544 -0.3978 -1.4173
  131OSM   C14F14186   4.908   5.670   7.375  0.8612  0.3337  0.2355
  131OSM   H14F14187   4.813   5.727   7.385 -0.1037 -0.8342 -1.8360
  131OSM   H14G14188   4.992   5.738   7.349 -0.3717  2.1070  0.7186
  131OSM   C15F14189   4.924   5.626   7.519  0.3194 -0.5766  0.2079
  131OSM   H15F14190   5.033   5.615   7.537  0.1923  0.0772  1.4444
  131OSM   H15G14191   4.872   5.534   7.553 -0.8543  0.0981  0.2820
  131OSM   C16F14192   4.869   5.737   7.615  1.1862 -0.3994 -0.3273
  131OSM   H16F14193   4.762   5.736   7.643  1.0410  2.6864 -0.5439
  131OSM   H16G14194   4.899   5.832   7.564 -0.5946  1.0472  1.2574
  131OSM   C17F14195   4.932   5.727   7.755  0.5432  0.0770  0.0946
  131OSM   H17F14196   5.042   5.727   7.747  0.5740 -0.0483  0.5038
  131OSM   H17G14197   4.895   5.631   7.797 -1.3471  0.9111  0.4109
  131OSM   C18F14198   4.889   5.837   7.851  0.0992 -0.6732 -0.8122
  131OSM   H18F14199   4.780   5.831   7.870  0.7862  1.6633  4.6499
  131OSM   H18G14200   4.913   5.937   7.807  1.7077 -1.2117 -1.2118
  131OSM   H18H14201   4.947   5.829   7.945 -0.4154 -0.1006 -0.4369
  132OSM      N14202   0.256   5.708   6.263 -0.4163 -0.9752 -0.3318
  132OSM    C1514203   0.138   5.706   6.355 -0.3102 -0.1947  0.1597
  132OSM   H15A14204   0.090   5.803   6.354  0.8429  0.3893 -0.6412
  132OSM   H15B14205   0.163   5.666   6.452 -2.7825 -1.6799  0.2202
  132OSM   H15C14206   0.079   5.630   6.306  0.0129 -0.5110  0.2618
  132OSM    C1414207   0.329   5.575   6.262  0.2871 -0.1521  0.0881
  132OSM   H14A14208   0.256   5.497   6.249 -1.3806  1.4052 -0.0368
  132OSM   H14B14209   0.386   5.558   6.352  0.8514 -2.2633 -0.6500
  132OSM   H14C14210   0.400   5.565   6.181  0.0438  0.2615 -0.1754
  132OSM    C1314211   0.204   5.740   6.128 -0.0037 -0.2341  0.2550
  132OSM   H13A14212   0.275   5.777   6.056  1.9822 -0.7550  1.9024
  132OSM   H13B14213   0.135   5.822   6.141 -0.6380 -0.4443 -1.5664
  132OSM   H13C14214   0.148   5.658   6.086  0.1029  0.6778 -1.7168
  132OSM    C1214215   0.346   5.819   6.315 -0.7452 -0.1790 -0.0610
  132OSM   H12A14216   0.407   5.842   6.229  0.1645 -1.3374  0.2660
  132OSM   H12B14217   0.410   5.785   6.395 -0.5440  1.5565  0.5520
  132OSM    C1114218   0.291   5.958   6.358  0.2425 -0.0851  0.7573
  132OSM   H11A14219   0.377   6.024   6.380  1.1636 -1.3747  1.0971
  132OSM   H11B14220   0.233   5.945   6.453 -0.6262 -1.2207  0.0875
  132OSM      P14221   0.235   6.137   6.167  0.1623  0.1035  0.0728
  132OSM    O1314222   0.327   6.092   6.062 -0.3306  0.4823  0.2875
  132OSM    O1414223   0.115   6.215   6.126  0.6969 -0.6846 -0.2345
  132OSM    O1114224   0.328   6.230   6.256 -0.5872  0.3456  0.5929
  132OSM    O1214225   0.203   6.013   6.257  0.0392 -0.1471  0.3651
  132OSM    C1S14226   0.259   6.300   6.360  0.5612  0.6794  1.1141
  132OSM    H1S14227   0.199   6.231   6.422  1.5338  0.2563  1.6014
  132OSM    H1T14228   0.186   6.373   6.319 -2.1399 -2.3776  0.3564
  132OSM     NF14229   0.296   6.351   6.590  0.5369  0.5727 -0.8408
  132OSM    HNF14230   0.241   6.428   6.623  0.9228  1.0797 -1.3871
  132OSM    C2S14231   0.355   6.367   6.459 -0.1063 -0.1012 -0.4912
  132OSM    H2S14232   0.452   6.312   6.449  0.0885  0.2719 -0.6869
  132OSM    C3S14233   0.374   6.518   6.417 -0.0044  0.1393 -0.1858
  132OSM    H3S14234   0.275   6.568   6.422  0.3002  0.6555  0.6607
  132OSM     O314235   0.400   6.526   6.278  0.0498 -0.2926  0.2637
  132OSM    HO314236   0.399   6.438   6.239 -1.4028  1.4314 -3.8145
  132OSM    C4S14237   0.475   6.585   6.505 -0.2985 -0.1081  0.2107
  132OSM    H4S14238   0.428   6.631   6.593 -1.5239 -3.3397  1.3550
  132OSM    C5S14239   0.610   6.602   6.484 -0.3718  0.2028 -0.5017
  132OSM    H5S14240   0.652   6.572   6.386 -2.6444  1.3951 -1.8905
  132OSM    C6S14241   0.703   6.678   6.573 -0.2359 -0.3181  0.6444
  132OSM    H6S14242   0.750   6.757   6.510 -0.2088 -1.4888 -0.8434
  132OSM    H6T14243   0.782   6.605   6.599 -1.1161 -1.4132  0.2757
  132OSM    C7S14244   0.652   6.752   6.703 -1.1712 -0.8056  0.1983
  132OSM    H7S14245   0.593   6.677   6.760 -3.6886  0.0452 -1.2233
  132OSM    H7T14246   0.580   6.832   6.677 -1.1436 -0.7295  0.3580
  132OSM    C8S14247   0.770   6.806   6.788  0.1986 -0.1276  0.1874
  132OSM    H8S14248   0.818   6.885   6.725 -2.3611  1.0061 -0.4078
  132OSM    H8T14249   0.840   6.722   6.804  2.7967  1.9376  0.1526
  132OSM    C9S14250   0.745   6.868   6.927 -0.0881  0.0585 -0.5497
  132OSM    H9S14251   0.702   6.792   6.995  3.2825 -0.6017  0.9554
  132OSM    H9T14252   0.682   6.958   6.910 -1.1305  0.1381  3.3186
  132OSM   C10S14253   0.877   6.900   6.996 -0.5043 -0.0391 -1.1065
  132OSM   H10S14254   0.940   6.957   6.924  1.4583  0.7321  1.1478
  132OSM   H10T14255   0.933   6.807   7.019 -0.6258 -0.3075 -1.8915
  132OSM   C11S14256   0.862   6.969   7.136  0.4361 -0.1977  0.7440
  132OSM   H11S14257   0.813   6.903   7.211 -0.4196 -1.5880 -1.0129
  132OSM   H11T14258   0.800   7.061   7.127 -2.5303 -2.1410  0.7304
  132OSM   C12S14259   1.004   7.023   7.185  0.3496 -0.7380 -0.1873
  132OSM   H12S14260   1.043   7.111   7.129  1.1195 -0.2637  1.0725
  132OSM   H12T14261   1.078   6.945   7.158 -0.0368 -1.0008 -0.4958
  132OSM   C13S14262   1.001   7.051   7.340  0.3447 -0.0098  0.3670
  132OSM   H13S14263   1.102   7.076   7.379  2.0380 -3.1137 -1.8247
  132OSM   H13T14264   0.980   6.951   7.383  1.8129  0.1225  1.4369
  132OSM   C14S14265   0.887   7.134   7.399  0.0263  0.3587  0.2074
  132OSM   H14S14266   0.787   7.086   7.388  0.1027  0.5775 -1.6408
  132OSM   H14T14267   0.878   7.231   7.346  2.4374 -0.0283 -0.9907
  132OSM   C15S14268   0.893   7.160   7.553  0.6991  0.2207  0.0765
  132OSM   H15S14269   0.923   7.060   7.591  0.8634 -1.0429 -3.2058
  132OSM   H15T14270   0.794   7.192   7.591  0.6754  0.7140 -0.3890
  132OSM   C16S14271   1.005   7.259   7.589 -0.3327 -0.1473 -0.2834
  132OSM   H16S14272   0.982   7.354   7.537  0.0727  0.6870  1.0282
  132OSM   H16T14273   1.108   7.218   7.585 -0.2345  0.1518 -0.7851
  132OSM   C17S14274   0.990   7.295   7.744 -0.4006 -0.4124  0.3334
  132OSM   H17S14275   0.973   7.198   7.796  0.9425  0.0598  1.7034
  132OSM   H17T14276   0.904   7.363   7.762  0.4691  0.5595  0.8619
  132OSM   C18S14277   1.118   7.362   7.789  0.2246  0.1431 -0.4883
  132OSM   H18S14278   1.168   7.441   7.729  1.1299  1.5521  2.0399
  132OSM   H18T14279   1.201   7.287   7.787 -1.3327 -1.6658  1.1963
  132OSM   H18U14280   1.107   7.399   7.893 -2.4432 -1.6986 -0.0765
  132OSM    C1F14281   0.306   6.241   6.665 -0.2811 -0.2101 -0.4065
  132OSM     OF14282   0.349   6.141   6.616 -0.2473 -0.0319 -0.7331
  132OSM    C2F14283   0.244   6.242   6.804  0.9234 -0.0922  0.2005
  132OSM    H2F14284   0.137   6.267   6.788  0.4197 -2.2025  0.2341
  132OSM    H2G14285   0.285   6.333   6.853 -1.7129  0.6762  1.0615
  132OSM    C3F14286   0.259   6.112   6.883 -0.1202  0.4278 -0.4173
  132OSM    H3F14287   0.363   6.075   6.869 -0.5674 -0.3833 -1.6666
  132OSM    H3G14288   0.185   6.043   6.838 -1.3319  1.7054 -0.4016
  132OSM    C4F14289   0.237   6.145   7.029 -0.1991  0.2900 -0.4931
  132OSM    H4F14290   0.127   6.160   7.034 -0.2583  0.9756 -2.8981
  132OSM    H4G14291   0.297   6.233   7.060  1.3972 -0.4756 -1.3109
  132OSM    C5F14292   0.263   6.033   7.127  0.3909  0.1555  0.1531
  132OSM    H5F14293   0.359   6.059   7.177  0.2486 -2.4430  1.9016
  132OSM    H5G14294   0.263   5.931   7.082  1.0821 -0.5952  1.8084
  132OSM    C6F14295   0.143   6.029   7.229  0.2888 -0.5937  0.6048
  132OSM    H6F14296   0.049   5.984   7.190  0.2731  1.4791 -1.8670
  132OSM    H6G14297   0.122   6.127   7.278  2.5047 -0.3133  1.0448
  132OSM    C7F14298   0.173   5.941   7.351 -0.7795 -0.3542 -0.2167
  132OSM    H7F14299   0.263   5.971   7.409 -1.6174  0.1650  0.8240
  132OSM    H7G14300   0.188   5.835   7.321  0.9342 -0.2387  0.1702
  132OSM    C8F14301   0.050   5.947   7.444 -0.3008  0.9793 -0.4241
  132OSM    H8F14302  -0.043   5.932   7.385 -0.4945  0.4405  0.0208
  132OSM    H8G14303   0.054   6.055   7.471  1.3787  1.0438 -0.9225
  132OSM    C9F14304   0.044   5.855   7.565  0.0303  0.4781  0.3217
  132OSM    H9F14305   0.068   5.753   7.532  1.2621  1.5781 -2.3805
  132OSM   C10F14306   0.038   5.895   7.693  0.6080  0.0459  0.1457
  132OSM   H10F14307   0.047   5.822   7.774  0.9356  0.8181  0.8150
  132OSM   C11F14308   0.013   6.031   7.749  0.3900 -0.1094  0.1811
  132OSM   H11F14309  -0.080   6.039   7.808 -0.4171  0.4878 -1.1491
  132OSM   H11G14310  -0.001   6.102   7.665 -0.9203  0.0899  0.5550
  132OSM   C12F14311   0.142   6.078   7.821 -0.1332 -0.6830 -0.4175
  132OSM   H12F14312   0.152   6.185   7.794 -0.9420 -0.5062 -0.0014
  132OSM   H12G14313   0.239   6.036   7.785  0.3837  0.5464 -0.4681
  132OSM   C13F14314   0.134   6.062   7.967 -0.3714  0.3572  0.1070
  132OSM   H13F14315   0.040   6.110   8.001  0.6321  2.2240  0.2661
  132OSM   H13G14316   0.220   6.112   8.016  0.9668 -0.8406 -0.9697
  132OSM   C14F14317   0.131   5.919   8.020  0.2535 -0.1944  0.0078
  132OSM   H14F14318   0.196   5.853   7.959 -0.2398  0.4608 -1.2398
  132OSM   H14G14319   0.030   5.875   8.008  0.0683  0.0566  0.6292
  132OSM   C15F14320   0.201   5.911   8.161 -0.0538  0.1293 -0.2481
  132OSM   H15F14321   0.147   5.986   8.223 -1.5703 -1.4440  0.4018
  132OSM   H15G14322   0.304   5.937   8.131 -0.0817  1.3971  0.7256
  132OSM   C16F14323   0.191   5.784   8.237  0.0652 -0.4791  0.2926
  132OSM   H16F14324   0.255   5.709   8.185  0.4584 -2.7110  3.8130
  132OSM   H16G14325   0.087   5.746   8.235 -1.0199  2.2330  2.2421
  132OSM   C17F14326   0.249   5.796   8.377 -0.0245  1.0011  0.4949
  132OSM   H17F14327   0.220   5.707   8.438  0.4032  0.5237  0.0096
  132OSM   H17G14328   0.199   5.881   8.428 -0.8858  1.0685 -0.4461
  132OSM   C18F14329   0.406   5.821   8.381 -0.6935  0.4809  0.3664
  132OSM   H18F14330   0.459   5.734   8.337 -1.8487  0.0005 -0.0874
  132OSM   H18G14331   0.446   5.815   8.484 -0.3370  0.3777  0.2242
  132OSM   H18H14332   0.440   5.907   8.320 -0.0815 -2.6458 -3.9064
  133OSM      N14333   0.641   6.402   5.925  0.7761 -0.2470 -0.2974
  133OSM    C1514334   0.787   6.390   5.909  0.0821  0.1864  0.1006
  133OSM   H15A14335   0.822   6.290   5.931 -0.4011 -0.0734 -0.2896
  133OSM   H15B14336   0.843   6.449   5.980  0.0338 -0.8234  0.9989
  133OSM   H15C14337   0.813   6.416   5.808 -0.3688 -0.7667 -0.2694
  133OSM    C1414338   0.599   6.533   5.880 -0.1406 -0.5817 -0.0644
  133OSM   H14A14339   0.652   6.614   5.929 -0.3549 -1.2136  1.2230
  133OSM   H14B14340   0.495   6.550   5.904 -0.5195  0.4008 -2.3240
  133OSM   H14C14341   0.625   6.550   5.777 -1.6681  1.3864 -0.1486
  133OSM    C1314342   0.577   6.304   5.831 -0.0684  0.0393 -0.2217
  133OSM   H13A14343   0.582   6.336   5.728  0.7164  0.6198 -0.0075
  133OSM   H13B14344   0.472   6.303   5.857 -0.2409  0.5140 -0.8728
  133OSM   H13C14345   0.632   6.211   5.836 -2.1175 -1.1373  1.2865
  133OSM    C1214346   0.595   6.383   6.070 -0.4820  0.1941  0.1968
  133OSM   H12A14347   0.487   6.389   6.073 -0.4014  2.1916 -0.4694
  133OSM   H12B14348   0.629   6.465   6.132 -0.6573  1.3492 -1.1992
  133OSM    C1114349   0.630   6.258   6.146 -1.0829 -0.4189  0.4544
  133OSM   H11A14350   0.596   6.168   6.091  1.8301 -0.5554 -1.2762
  133OSM   H11B14351   0.568   6.262   6.238 -1.4077  0.5588  0.2042
  133OSM      P14352   0.873   6.134   6.173  0.2243  0.1336 -0.1493
  133OSM    O1314353   0.823   6.023   6.090  0.0001  0.1529 -0.1140
  133OSM    O1414354   1.005   6.186   6.138 -0.0121  0.0727 -0.3032
  133OSM    O1114355   0.870   6.081   6.326  0.0890 -0.2106  0.2320
  133OSM    O1214356   0.774   6.260   6.179  0.4402  0.0348  0.7698
  133OSM    C1S14357   0.741   6.035   6.373  0.4869 -0.0943 -0.0200
  133OSM    H1S14358   0.735   5.925   6.363  3.5684 -0.2741 -0.3666
  133OSM    H1T14359   0.655   6.080   6.318 -0.3293 -0.2027  1.1387
  133OSM     NF14360   0.601   6.012   6.574  0.2967  0.2422 -0.2265
  133OSM    HNF14361   0.522   6.071   6.585  0.6450  1.0729 -2.0894
  133OSM    C2S14362   0.720   6.075   6.522  0.1624  0.0892 -0.2468
  133OSM    H2S14363   0.806   6.034   6.578  0.3371  1.1168  0.2584
  133OSM    C3S14364   0.727   6.226   6.557  0.3558  0.0023  0.6230
  133OSM    H3S14365   0.635   6.278   6.522  0.3974  0.3924  1.0915
  133OSM     O314366   0.839   6.291   6.498  0.2351  0.3054  1.0211
  133OSM    HO314367   0.869   6.224   6.435 -1.9009  1.7987 -1.6654
  133OSM    C4S14368   0.727   6.249   6.709 -0.1830 -0.5257  0.2216
  133OSM    H4S14369   0.814   6.211   6.765  0.8558  0.3826 -0.7458
  133OSM    C5S14370   0.623   6.295   6.781  0.6105 -1.3145  0.8056
  133OSM    H5S14371   0.538   6.337   6.725  2.1463 -1.3882 -1.6651
  133OSM    C6S14372   0.626   6.320   6.928 -0.1728 -0.4951  0.6886
  133OSM    H6S14373   0.681   6.239   6.979 -0.0567 -0.6719  0.2864
  133OSM    H6T14374   0.520   6.310   6.960 -0.3580  1.7846  0.8666
  133OSM    C7S14375   0.690   6.449   6.979 -0.2461  1.2532  0.0507
  133OSM    H7S14376   0.641   6.543   6.944  1.3872  2.3590  0.6717
  133OSM    H7T14377   0.793   6.455   6.938 -0.2870  0.3786 -0.1796
  133OSM    C8S14378   0.694   6.440   7.130  0.1368 -0.6074 -0.3760
  133OSM    H8S14379   0.753   6.351   7.162 -0.7412 -1.7546 -1.8619
  133OSM    H8T14380   0.593   6.413   7.168  0.3372  1.2502  1.5284
  133OSM    C9S14381   0.755   6.573   7.186  0.1654 -0.3533  0.0488
  133OSM    H9S14382   0.693   6.659   7.154  1.8315  0.3474 -1.3757
  133OSM    H9T14383   0.856   6.593   7.144 -0.8364  1.4986 -1.5016
  133OSM   C10S14384   0.763   6.566   7.342 -0.4356 -0.5850 -0.6659
  133OSM   H10S14385   0.814   6.476   7.383  0.3907  0.4066  0.5363
  133OSM   H10T14386   0.659   6.546   7.375  0.1215 -0.3088  1.3281
  133OSM   C11S14387   0.811   6.708   7.410 -0.3328 -0.3057  1.2447
  133OSM   H11S14388   0.740   6.787   7.378  1.8961  1.3557  0.2515
  133OSM   H11T14389   0.917   6.733   7.385  0.0406 -1.9849  1.0351
  133OSM   C12S14390   0.807   6.688   7.561 -0.3123  0.5150  0.0510
  133OSM   H12S14391   0.712   6.640   7.591 -0.3825  1.1949  0.9104
  133OSM   H12T14392   0.807   6.787   7.611 -0.3995  0.2119  0.6638
  133OSM   C13S14393   0.923   6.601   7.611 -0.5872 -0.0554 -0.5486
  133OSM   H13S14394   1.022   6.638   7.577  0.2822 -1.0035  0.8903
  133OSM   H13T14395   0.915   6.493   7.584 -0.9996  0.2523 -1.6975
  133OSM   C14S14396   0.928   6.614   7.766  0.4694  0.8328  0.2465
  133OSM   H14S14397   0.958   6.717   7.795 -3.3591  1.9013  0.6359
  133OSM   H14T14398   1.004   6.541   7.803 -0.4249  0.8931  2.2692
  133OSM   C15S14399   0.803   6.560   7.834  0.3571 -0.6705 -0.2789
  133OSM   H15S14400   0.778   6.462   7.788  0.3598  0.4354 -2.7427
  133OSM   H15T14401   0.726   6.638   7.813 -1.6287 -2.1807  1.2162
  133OSM   C16S14402   0.826   6.537   7.989 -0.4966 -0.4287  0.1100
  133OSM   H16S14403   0.734   6.571   8.040 -0.5023 -0.7244  0.2986
  133OSM   H16T14404   0.906   6.602   8.031 -0.6761  1.6002 -2.5442
  133OSM   C17S14405   0.857   6.387   8.031  0.0491 -0.0946 -0.6212
  133OSM   H17S14406   0.877   6.393   8.140  0.4153  0.8698 -0.7362
  133OSM   H17T14407   0.945   6.360   7.969  0.1583  0.2337 -0.6077
  133OSM   C18S14408   0.749   6.282   7.997  0.0354  0.3340  0.1106
  133OSM   H18S14409   0.707   6.293   7.895 -0.9020 -0.1715  0.4423
  133OSM   H18T14410   0.655   6.297   8.054  0.0418 -2.6182  0.9613
  133OSM   H18U14411   0.783   6.179   8.021  0.9269  0.0269 -2.3280
  133OSM    C1F14412   0.590   5.882   6.604 -0.2646 -1.5890 -0.6847
  133OSM     OF14413   0.683   5.803   6.572 -0.2650 -0.4473 -0.2977
  133OSM    C2F14414   0.454   5.833   6.658  0.1237 -0.2373  0.0295
  133OSM    H2F14415   0.411   5.763   6.583  0.9294 -1.9351  1.1287
  133OSM    H2G14416   0.392   5.923   6.680  2.4143  1.0685  1.3052
  133OSM    C3F14417   0.475   5.735   6.774  0.3007 -0.0898 -1.0411
  133OSM    H3F14418   0.540   5.651   6.741  0.8552  0.5388 -1.5714
  133OSM    H3G14419   0.371   5.711   6.802  0.6780  0.5153  0.9615
  133OSM    C4F14420   0.532   5.790   6.909 -0.3852 -0.2389  0.1685
  133OSM    H4F14421   0.463   5.868   6.947  0.8056  0.1131  1.6233
  133OSM    H4G14422   0.631   5.836   6.888 -0.2476 -0.4288  0.4105
  133OSM    C5F14423   0.541   5.687   7.021  0.2423 -0.6438  0.4118
  133OSM    H5F14424   0.596   5.597   6.985 -0.6670 -0.9924 -0.1188
  133OSM    H5G14425   0.438   5.653   7.045  0.3606 -0.4350  1.2317
  133OSM    C6F14426   0.620   5.727   7.151  0.0534  0.1161 -0.7861
  133OSM    H6F14427   0.729   5.735   7.133  0.4917 -1.7724  0.7623
  133OSM    H6G14428   0.608   5.646   7.227  2.0224 -1.2585 -1.8925
  133OSM    C7F14429   0.567   5.853   7.229 -0.1325  0.1043  0.0821
  133OSM    H7F14430   0.464   5.836   7.267  0.0199 -0.0577  0.4289
  133OSM    H7G14431   0.555   5.939   7.161  3.2052 -0.1142 -0.8495
  133OSM    C8F14432   0.670   5.893   7.338 -0.1100 -0.3797 -0.8703
  133OSM    H8F14433   0.638   5.994   7.371  1.9797  0.2726 -0.7846
  133OSM    H8G14434   0.768   5.919   7.292  0.8227 -0.0627  1.2038
  133OSM    C9F14435   0.708   5.788   7.441  0.4993 -0.3144 -0.3934
  133OSM    H9F14436   0.793   5.725   7.412 -1.4155 -2.7664 -0.8397
  133OSM   C10F14437   0.647   5.774   7.559  0.3185 -0.2404  0.3638
  133OSM   H10F14438   0.698   5.712   7.634 -0.3416  1.7756  2.5350
  133OSM   C11F14439   0.527   5.844   7.615  0.5803 -0.2796 -0.8311
  133OSM   H11F14440   0.456   5.765   7.648 -0.4208  0.6729 -0.6838
  133OSM   H11G14441   0.470   5.898   7.537 -0.2769  1.1642  0.7653
  133OSM   C12F14442   0.559   5.927   7.740 -0.0114 -0.2699  0.6899
  133OSM   H12F14443   0.616   5.873   7.819 -0.0622 -1.8378 -0.3208
  133OSM   H12G14444   0.457   5.945   7.779 -0.0754  0.4925  0.1714
  133OSM   C13F14445   0.617   6.066   7.713  0.2000 -0.5728 -0.0838
  133OSM   H13F14446   0.699   6.078   7.639 -0.4466 -0.2910 -0.7563
  133OSM   H13G14447   0.675   6.076   7.807 -1.8347  0.5580  1.0868
  133OSM   C14F14448   0.522   6.185   7.701  0.0378 -0.1772  0.4235
  133OSM   H14F14449   0.586   6.275   7.716 -1.8058  0.9461  1.8013
  133OSM   H14G14450   0.460   6.188   7.793 -0.8301 -2.4587 -0.0643
  133OSM   C15F14451   0.439   6.211   7.570 -0.3160 -0.4075 -0.2129
  133OSM   H15F14452   0.362   6.133   7.551 -0.1131 -0.0560 -2.6802
  133OSM   H15G14453   0.514   6.207   7.488 -1.0696 -1.1355 -0.8780
  133OSM   C16F14454   0.373   6.352   7.559 -0.9112 -0.2294  0.2081
  133OSM   H16F14455   0.447   6.431   7.583 -2.6403  0.9532  1.6813
  133OSM   H16G14456   0.289   6.360   7.630  0.2108  1.1270  1.3989
  133OSM   C17F14457   0.330   6.388   7.414  0.2380  0.2919 -0.9988
  133OSM   H17F14458   0.233   6.339   7.391 -0.2374  0.0137  1.4738
  133OSM   H17G14459   0.413   6.359   7.347  0.0676  0.4334 -1.2730
  133OSM   C18F14460   0.312   6.538   7.396 -0.1356  0.1878  0.5654
  133OSM   H18F14461   0.284   6.560   7.291  0.6492  0.7175  0.4678
  133OSM   H18G14462   0.411   6.581   7.424  0.9864 -2.0575  0.1943
  133OSM   H18H14463   0.230   6.579   7.459  0.0427 -1.8011  2.1566
  134OSM      N14464   1.703   2.944   6.348  0.2710  0.0817  0.1837
  134OSM    C1514465   1.789   2.859   6.261 -0.0409 -0.0101  0.2602
  134OSM   H15A14466   1.842   2.921   6.190 -2.3229  1.3542 -0.3270
  134OSM   H15B14467   1.740   2.772   6.220 -0.6141  0.7346 -0.6564
  134OSM   H15C14468   1.864   2.812   6.323  0.4510  0.3335 -0.0669
  134OSM    C1414469   1.778   3.059   6.405  0.0818 -0.0147 -0.2071
  134OSM   H14A14470   1.723   3.139   6.452  0.0610  0.0014 -0.2585
  134OSM   H14B14471   1.842   3.116   6.339  0.3476 -0.1158 -0.0352
  134OSM   H14C14472   1.847   3.027   6.481  1.0924  0.2235 -1.0241
  134OSM    C1314473   1.597   3.000   6.261 -0.0468  0.0498  0.3885
  134OSM   H13A14474   1.629   3.075   6.190  1.6423 -0.2081  0.8428
  134OSM   H13B14475   1.526   3.049   6.325  0.1865  1.5956 -0.5110
  134OSM   H13C14476   1.557   2.928   6.191 -1.7765 -1.0458  2.4668
  134OSM    C1214477   1.633   2.860   6.453 -0.6074  0.3190  0.0133
  134OSM   H12A14478   1.581   2.784   6.397 -0.8243  0.8945 -0.5779
  134OSM   H12B14479   1.551   2.918   6.495  0.4282 -0.4873  3.2946
  134OSM    C1114480   1.714   2.783   6.561 -0.5852  0.2102 -0.1176
  134OSM   H11A14481   1.644   2.749   6.641 -0.0067  1.9813  1.1679
  134OSM   H11B14482   1.783   2.852   6.614 -2.0730  1.5073  0.1794
  134OSM      P14483   1.766   2.547   6.445  0.0582 -0.2597  0.2638
  134OSM    O1314484   1.660   2.570   6.339  0.6773 -0.2670 -0.5462
  134OSM    O1414485   1.894   2.498   6.404 -0.2856  0.1786  0.3260
  134OSM    O1114486   1.723   2.447   6.563 -0.1859 -0.0827  0.2034
  134OSM    O1214487   1.800   2.677   6.521 -0.0806 -0.0741  0.0105
  134OSM    C1S14488   1.784   2.451   6.690 -0.1038 -0.0116  0.1065
  134OSM    H1S14489   1.759   2.539   6.753 -0.8023 -0.7403  0.8419
  134OSM    H1T14490   1.895   2.451   6.678 -0.1379 -0.9877 -0.2048
  134OSM     NF14491   1.762   2.337   6.911  0.3763 -0.8273  0.0052
  134OSM    HNF14492   1.850   2.315   6.953  0.7881  2.4125  0.9339
  134OSM    C2S14493   1.745   2.322   6.763  0.5254 -0.0476  0.1011
  134OSM    H2S14494   1.637   2.307   6.739  0.7910 -0.1352 -1.0691
  134OSM    C3S14495   1.826   2.214   6.693  0.1791 -0.7354  0.0813
  134OSM    H3S14496   1.933   2.240   6.676 -0.0906  0.8393  0.6867
  134OSM     O314497   1.777   2.186   6.565  0.6746 -0.0066 -0.4972
  134OSM    HO314498   1.744   2.275   6.553  1.8657  0.7234  1.3849
  134OSM    C4S14499   1.802   2.086   6.761 -0.9806 -0.2338  0.3036
  134OSM    H4S14500   1.709   2.028   6.748  0.2721 -2.2362 -0.0371
  134OSM    C5S14501   1.900   2.024   6.835 -0.5441 -0.7935  0.0083
  134OSM    H5S14502   2.001   2.069   6.840 -0.5049 -0.8762 -0.0425
  134OSM    C6S14503   1.886   1.889   6.908  0.4741 -0.1748  0.8955
  134OSM    H6S14504   1.901   1.808   6.833 -0.1780 -0.5919  1.2136
  134OSM    H6T14505   1.778   1.886   6.935 -0.3440  0.3277 -2.0470
  134OSM    C7S14506   1.989   1.862   7.022 -0.8328 -0.3858  0.2580
  134OSM    H7S14507   2.081   1.829   6.971 -0.4588  0.9811  0.0138
  134OSM    H7T14508   1.948   1.779   7.083  0.2286  0.8358  2.7122
  134OSM    C8S14509   2.013   1.990   7.109  0.0945 -0.3744 -0.3317
  134OSM    H8S14510   2.083   2.057   7.054  1.4880  0.1731  2.0363
  134OSM    H8T14511   2.079   1.965   7.195 -0.9422  1.2531  0.9958
  134OSM    C9S14512   1.887   2.061   7.164  0.3304  0.8662 -1.0893
  134OSM    H9S14513   1.827   1.981   7.212 -1.4821  2.1705 -1.1312
  134OSM    H9T14514   1.828   2.109   7.084 -1.3189 -1.2196 -1.1581
  134OSM   C10S14515   1.915   2.163   7.280  0.4687 -0.2974  0.4183
  134OSM   H10S14516   1.829   2.230   7.296 -0.4278 -0.6457 -2.6780
  134OSM   H10T14517   1.998   2.224   7.238 -1.2744  2.0000  0.2281
  134OSM   C11S14518   1.970   2.113   7.417 -0.5548 -0.0351  0.7888
  134OSM   H11S14519   2.069   2.062   7.410 -1.5182 -1.6027 -2.4261
  134OSM   H11T14520   1.896   2.054   7.476 -0.6966  1.4358  2.1084
  134OSM   C12S14521   1.981   2.240   7.507  0.2549  0.1584  0.2203
  134OSM   H12S14522   1.883   2.288   7.527  0.2632 -0.0620  0.7996
  134OSM   H12T14523   2.036   2.312   7.444 -0.8653  0.6662 -0.1918
  134OSM   C13S14524   2.052   2.211   7.637  0.0779 -0.2584 -0.3842
  134OSM   H13S14525   2.107   2.303   7.668 -0.9977  0.7426 -1.4374
  134OSM   H13T14526   2.121   2.124   7.629  0.9189  0.2364  1.1823
  134OSM   C14S14527   1.954   2.181   7.756 -0.0242 -0.3035  0.1133
  134OSM   H14S14528   1.891   2.095   7.725  2.0063 -0.9421 -2.3638
  134OSM   H14T14529   1.879   2.262   7.771  0.0065 -0.0093 -1.2538
  134OSM   C15S14530   2.035   2.156   7.887  0.2459 -0.8336  0.1895
  134OSM   H15S14531   2.090   2.242   7.931  2.3203  0.0506 -3.9461
  134OSM   H15T14532   2.105   2.075   7.860  0.5616 -0.1020 -1.2207
  134OSM   C16S14533   1.938   2.101   7.995  1.4175 -0.3722 -0.6369
  134OSM   H16S14534   1.911   1.996   7.971 -0.9643  0.1467 -0.2717
  134OSM   H16T14535   1.846   2.163   7.993  1.0749 -0.8575  0.0685
  134OSM   C17S14536   1.994   2.104   8.141 -0.1377 -0.1261  0.0270
  134OSM   H17S14537   2.096   2.062   8.139 -0.1277 -0.0139 -1.8242
  134OSM   H17T14538   1.943   2.037   8.214  0.9527 -0.1410  0.7946
  134OSM   C18S14539   1.999   2.251   8.189  0.4826 -0.2992 -0.0017
  134OSM   H18S14540   2.051   2.317   8.116 -1.2569  1.3390  0.1892
  134OSM   H18T14541   2.060   2.248   8.282 -1.8490  0.7686  1.6147
  134OSM   H18U14542   1.897   2.276   8.225  0.7544  2.0908 -0.7942
  134OSM    C1F14543   1.673   2.399   6.983  0.7511 -0.4238  0.0297
  134OSM     OF14544   1.568   2.451   6.942  0.0577  0.1688  0.5034
  134OSM    C2F14545   1.707   2.405   7.127  0.1325 -0.1411  0.0354
  134OSM    H2F14546   1.817   2.403   7.139  0.0852 -0.0006  0.5042
  134OSM    H2G14547   1.674   2.311   7.177  0.4294  1.7330  3.9503
  134OSM    C3F14548   1.637   2.516   7.206 -0.2246 -0.5192 -0.1648
  134OSM    H3F14549   1.529   2.531   7.183 -0.6915 -2.2661  0.7433
  134OSM    H3G14550   1.682   2.613   7.176  0.1580 -0.7847 -0.4453
  134OSM    C4F14551   1.651   2.490   7.359  0.2976  0.5970 -0.3590
  134OSM    H4F14552   1.743   2.432   7.384 -0.6722 -0.1650  1.5852
  134OSM    H4G14553   1.566   2.432   7.400 -1.0046  3.6365  1.4449
  134OSM    C5F14554   1.660   2.610   7.458 -0.4970  0.3346 -1.1038
  134OSM    H5F14555   1.569   2.669   7.434 -1.8928 -1.1892  0.2833
  134OSM    H5G14556   1.743   2.676   7.426  0.2466  1.1445  2.3828
  134OSM    C6F14557   1.667   2.571   7.606 -0.1378 -0.2229 -0.4127
  134OSM    H6F14558   1.761   2.520   7.636  1.0549  1.7747 -0.6531
  134OSM    H6G14559   1.589   2.495   7.628 -1.8141  1.4414 -0.3840
  134OSM    C7F14560   1.653   2.694   7.699 -0.8754 -0.2648 -0.5419
  134OSM    H7F14561   1.577   2.763   7.655 -1.8773 -1.4779 -0.7689
  134OSM    H7G14562   1.752   2.744   7.690 -0.5775 -0.6727  0.4422
  134OSM    C8F14563   1.590   2.670   7.843 -0.1412  0.3739  0.2254
  134OSM    H8F14564   1.499   2.609   7.827 -1.8347  3.1255 -0.8646
  134OSM    H8G14565   1.552   2.765   7.887 -0.6615  0.5019 -0.4894
  134OSM    C9F14566   1.698   2.610   7.937  0.4321 -0.1388 -0.7614
  134OSM    H9F14567   1.788   2.673   7.947  0.6878 -0.9863  3.1332
  134OSM   C10F14568   1.703   2.490   7.997 -0.2268  0.0184  0.5225
  134OSM   H10F14569   1.793   2.471   8.058 -1.0630 -2.0347  1.1608
  134OSM   C11F14570   1.609   2.369   7.985  0.0467 -0.3870 -0.1337
  134OSM   H11F14571   1.670   2.305   7.918  1.0038 -1.2797  1.5537
  134OSM   H11G14572   1.510   2.400   7.945  0.5378  0.7864 -0.4707
  134OSM   C12F14573   1.594   2.299   8.119  0.3427  0.0703 -0.3702
  134OSM   H12F14574   1.569   2.378   8.193 -1.0620 -0.4273 -0.2997
  134OSM   H12G14575   1.693   2.253   8.142  0.1424  0.3306  1.0454
  134OSM   C13F14576   1.481   2.196   8.111 -0.3353 -0.7601  0.0387
  134OSM   H13F14577   1.479   2.165   8.004 -0.8165 -2.1053  0.4189
  134OSM   H13G14578   1.385   2.251   8.126 -1.3060 -1.9478 -1.5409
  134OSM   C14F14579   1.499   2.076   8.204 -0.3513 -0.6215  0.0896
  134OSM   H14F14580   1.594   2.020   8.190 -1.3770 -2.4124  0.1611
  134OSM   H14G14581   1.413   2.006   8.199 -0.3960 -0.3977 -3.1472
  134OSM   C15F14582   1.509   2.126   8.355 -0.1649 -0.0801 -0.0129
  134OSM   H15F14583   1.421   2.180   8.396  1.8117  2.8514  0.5477
  134OSM   H15G14584   1.580   2.211   8.349 -1.1264  0.7968  0.7691
  134OSM   C16F14585   1.559   2.012   8.449  0.3135 -0.5862 -0.7914
  134OSM   H16F14586   1.632   1.947   8.395  5.2794  1.9376  2.4663
  134OSM   H16G14587   1.470   1.951   8.474  2.0723 -2.1223  1.9743
  134OSM   C17F14588   1.613   2.053   8.577 -0.3817 -0.7741 -0.1501
  134OSM   H17F14589   1.575   2.155   8.599 -0.1405 -0.8406  0.5826
  134OSM   H17G14590   1.724   2.062   8.571 -0.4304  1.0278  1.3613
  134OSM   C18F14591   1.569   1.952   8.684  0.3385  0.2651 -0.3619
  134OSM   H18F14592   1.581   1.847   8.649  0.4983  0.0054  0.4433
  134OSM   H18G14593   1.462   1.961   8.711  0.5332  2.1253 -0.1067
  134OSM   H18H14594   1.626   1.986   8.773  0.3431  2.5785 -1.2156
  135OSM      N14595   0.846   2.742   6.310 -0.1400 -0.1255 -0.7660
  135OSM    C1514596   0.920   2.865   6.360  0.3404 -0.0241 -0.6326
  135OSM   H15A14597   1.022   2.851   6.327  0.2007 -0.4987 -0.8811
  135OSM   H15B14598   0.920   2.869   6.468  1.1468  0.8694 -0.6559
  135OSM   H15C14599   0.867   2.953   6.328 -1.5323  0.0647  2.4566
  135OSM    C1414600   0.710   2.745   6.378 -0.7664  0.2389 -0.3240
  135OSM   H14A14601   0.655   2.835   6.358  2.5312  2.8701  1.7057
  135OSM   H14B14602   0.730   2.742   6.485  1.3878 -0.8509 -0.7298
  135OSM   H14C14603   0.648   2.661   6.353 -1.5566  0.7350 -0.0431
  135OSM    C1314604   0.827   2.758   6.166  0.0314 -0.3642 -0.3976
  135OSM   H13A14605   0.766   2.677   6.129  0.3161 -0.7582 -0.0141
  135OSM   H13B14606   0.922   2.752   6.115  0.4001 -0.6125  0.3093
  135OSM   H13C14607   0.783   2.850   6.131  1.0825  0.7688  1.1501
  135OSM    C1214608   0.913   2.611   6.335 -0.5559  0.3801  0.0650
  135OSM   H12A14609   0.987   2.599   6.258 -0.8654  1.4831 -0.4170
  135OSM   H12B14610   0.847   2.531   6.306 -0.6251  0.7285 -0.7387
  135OSM    C1114611   0.980   2.581   6.474 -0.6206  0.2652 -0.0382
  135OSM   H11A14612   1.040   2.488   6.464 -0.6151  0.1932  0.6274
  135OSM   H11B14613   0.897   2.555   6.543 -0.6582 -2.9833 -1.1985
  135OSM      P14614   1.211   2.700   6.457 -0.1176 -0.1855 -0.5190
  135OSM    O1314615   1.203   2.652   6.315  0.0798 -0.7497  0.4083
  135OSM    O1414616   1.258   2.841   6.479  0.3323  0.5006 -0.1405
  135OSM    O1114617   1.300   2.598   6.532 -0.1722  0.7299  0.3078
  135OSM    O1214618   1.067   2.680   6.520 -0.0725  0.3018  0.4850
  135OSM    C1S14619   1.390   2.644   6.631  0.4381  0.2525 -0.4592
  135OSM    H1S14620   1.410   2.753   6.624  3.3567 -0.2419 -0.5803
  135OSM    H1T14621   1.489   2.594   6.620  0.1769  0.0038 -1.8258
  135OSM     NF14622   1.417   2.649   6.885 -0.6389  0.3551  0.1109
  135OSM    HNF14623   1.483   2.582   6.919  0.7168  1.8710  0.5379
  135OSM    C2S14624   1.333   2.602   6.773  0.0021 -0.8203  0.3432
  135OSM    H2S14625   1.240   2.659   6.790  0.0086 -0.4633 -0.7184
  135OSM    C3S14626   1.299   2.450   6.782  0.4909 -0.6675 -0.0845
  135OSM    H3S14627   1.396   2.401   6.802  0.9519  0.2383 -0.0640
  135OSM     O314628   1.250   2.389   6.661  0.0802  0.0698  0.6013
  135OSM    HO314629   1.244   2.467   6.605  2.2282  1.7596  2.6164
  135OSM    C4S14630   1.217   2.424   6.903 -0.6025 -0.5054  0.7205
  135OSM    H4S14631   1.114   2.462   6.901 -1.1171 -1.7437  2.5626
  135OSM    C5S14632   1.268   2.372   7.012  0.5409 -0.1237  0.0744
  135OSM    H5S14633   1.377   2.358   7.018  0.5570  1.0046  3.4904
  135OSM    C6S14634   1.197   2.350   7.138 -0.8440 -0.6282 -0.8168
  135OSM    H6S14635   1.183   2.240   7.152  0.4372 -0.6565  0.3828
  135OSM    H6T14636   1.096   2.392   7.123  0.1615  0.6721 -4.2510
  135OSM    C7S14637   1.261   2.410   7.261  0.6351 -0.1241  0.0052
  135OSM    H7S14638   1.277   2.518   7.244  1.0952 -0.3973 -1.3705
  135OSM    H7T14639   1.364   2.369   7.270  1.4101  1.7435 -0.1726
  135OSM    C8S14640   1.189   2.378   7.391 -0.5379  0.8652  0.0097
  135OSM    H8S14641   1.190   2.269   7.414  0.1468  0.9887  0.5612
  135OSM    H8T14642   1.085   2.408   7.365 -0.8611 -0.8998 -0.8549
  135OSM    C9S14643   1.240   2.460   7.506  0.1353 -0.1615  0.4071
  135OSM    H9S14644   1.260   2.567   7.482  0.5302 -0.2499  0.3401
  135OSM    H9T14645   1.339   2.416   7.532  1.2072  1.5926 -0.5791
  135OSM   C10S14646   1.150   2.452   7.624 -0.0403  0.0649  0.1709
  135OSM   H10S14647   1.137   2.345   7.649  1.1755  0.2844  1.8403
  135OSM   H10T14648   1.053   2.499   7.598 -0.1202 -0.4375 -0.4285
  135OSM   C11S14649   1.207   2.516   7.754 -0.2320 -0.1856 -0.1514
  135OSM   H11S14650   1.242   2.621   7.745 -2.4214  0.4615 -1.2482
  135OSM   H11T14651   1.307   2.468   7.766  1.1488  2.5121 -0.5477
  135OSM   C12S14652   1.111   2.498   7.875 -0.4967 -0.6184  0.8145
  135OSM   H12S14653   1.012   2.546   7.858  1.0703  1.5926 -2.5770
  135OSM   H12T14654   1.144   2.550   7.968  0.0360 -0.0207  0.2983
  135OSM   C13S14655   1.102   2.356   7.917  0.5942  0.7725 -0.0009
  135OSM   H13S14656   1.198   2.303   7.902  0.3238  0.3492 -0.2274
  135OSM   H13T14657   1.021   2.317   7.852  0.4942  1.6686 -0.4252
  135OSM   C14S14658   1.048   2.348   8.066 -0.0104  0.4315 -0.1504
  135OSM   H14S14659   0.967   2.424   8.071 -1.4397 -0.9795 -1.4395
  135OSM   H14T14660   1.128   2.375   8.139  0.6441  0.9196 -1.0438
  135OSM   C15S14661   0.992   2.209   8.089 -0.6483 -0.5975  0.0255
  135OSM   H15S14662   1.078   2.141   8.074  0.3133  0.8651 -1.2153
  135OSM   H15T14663   0.920   2.192   8.006 -0.6321 -3.1729  0.4787
  135OSM   C16S14664   0.924   2.195   8.220  0.2586  1.3705 -0.4186
  135OSM   H16S14665   0.839   2.264   8.243 -2.5153 -2.1498  0.4268
  135OSM   H16T14666   1.000   2.191   8.301 -0.6602 -0.7823  0.3725
  135OSM   C17S14667   0.858   2.056   8.228  0.1298  0.1676 -0.5763
  135OSM   H17S14668   0.944   1.987   8.231 -0.6496 -0.7463  2.6550
  135OSM   H17T14669   0.809   2.041   8.129  1.0971 -0.0834 -1.0199
  135OSM   C18S14670   0.755   2.038   8.342  0.0021  0.4200  0.7925
  135OSM   H18S14671   0.663   2.100   8.337 -0.4285 -0.1350  1.7805
  135OSM   H18T14672   0.802   2.037   8.443  1.9005  1.4547 -0.0428
  135OSM   H18U14673   0.708   1.938   8.338  1.9828 -0.4769 -0.9513
  135OSM    C1F14674   1.429   2.780   6.906  0.1401  0.0510 -0.0399
  135OSM     OF14675   1.352   2.857   6.855 -0.6534 -0.0129  0.1392
  135OSM    C2F14676   1.548   2.824   6.980 -0.2723  0.0614  0.4192
  135OSM    H2F14677   1.624   2.867   6.911  0.0652  0.0437  0.7728
  135OSM    H2G14678   1.587   2.726   7.016  0.7363  0.7039  1.1390
  135OSM    C3F14679   1.516   2.929   7.088 -0.1702 -0.7952 -0.3400
  135OSM    H3F14680   1.426   2.901   7.147 -1.5910  1.8853 -1.1656
  135OSM    H3G14681   1.501   3.030   7.044 -1.6885 -1.8790 -2.3995
  135OSM    C4F14682   1.644   2.959   7.181 -0.4178  1.0019  0.4565
  135OSM    H4F14683   1.729   2.973   7.112  2.3872  2.4521  4.0814
  135OSM    H4G14684   1.672   2.874   7.246 -0.3020 -0.5943 -1.6278
  135OSM    C5F14685   1.624   3.083   7.269 -0.1718  0.2178  0.5051
  135OSM    H5F14686   1.522   3.073   7.313  0.3581  0.3757  1.7644
  135OSM    H5G14687   1.637   3.176   7.210  1.9864  0.2798  1.0579
  135OSM    C6F14688   1.721   3.098   7.390  0.1271 -0.6952 -0.0790
  135OSM    H6F14689   1.824   3.084   7.352  0.3455  0.4124  0.1051
  135OSM    H6G14690   1.706   3.011   7.458 -0.8124 -0.4341  0.0572
  135OSM    C7F14691   1.696   3.229   7.466  0.0862  0.4889  0.2887
  135OSM    H7F14692   1.588   3.249   7.483 -0.1161 -1.7095  1.8698
  135OSM    H7G14693   1.713   3.310   7.392  0.4021  0.1981  0.0376
  135OSM    C8F14694   1.782   3.255   7.593 -0.3209  0.8104  0.2670
  135OSM    H8F14695   1.786   3.358   7.633 -1.0553  0.0402  2.4143
  135OSM    H8G14696   1.883   3.220   7.562 -1.8799 -3.9418  0.1442
  135OSM    C9F14697   1.723   3.160   7.695 -1.0521 -0.4546 -0.3582
  135OSM    H9F14698   1.631   3.109   7.663 -0.7442 -0.0569 -1.9354
  135OSM   C10F14699   1.787   3.128   7.811  0.4470 -1.0108 -0.3192
  135OSM   H10F14700   1.742   3.050   7.875 -0.3065 -0.8043 -0.5922
  135OSM   C11F14701   1.917   3.173   7.869 -0.4377 -0.1120 -0.1272
  135OSM   H11F14702   1.955   3.255   7.804  3.5635 -1.5161  0.3135
  135OSM   H11G14703   1.999   3.099   7.860 -0.4725 -0.5987  3.2352
  135OSM   C12F14704   1.911   3.213   8.013 -0.3832 -0.9853  0.2676
  135OSM   H12F14705   1.830   3.280   8.049  0.5122 -0.1911  0.8383
  135OSM   H12G14706   2.005   3.270   8.030  0.0697 -1.5519 -0.3253
  135OSM   C13F14707   1.912   3.091   8.109 -0.5448  0.4143 -0.9746
  135OSM   H13F14708   2.003   3.029   8.095 -0.0613  0.8324  0.1982
  135OSM   H13G14709   1.820   3.036   8.079  0.9410 -1.8393 -1.5160
  135OSM   C14F14710   1.914   3.139   8.259  0.1006 -0.0620  0.1600
  135OSM   H14F14711   1.932   3.058   8.333 -1.4503 -0.3320  0.2458
  135OSM   H14G14712   1.807   3.168   8.268  0.2935  1.3012 -1.7101
  135OSM   C15F14713   2.014   3.241   8.291 -0.5552 -0.6476 -0.2086
  135OSM   H15F14714   2.011   3.326   8.219 -0.8792 -0.5396 -0.0701
  135OSM   H15G14715   2.110   3.186   8.290 -1.0891 -1.6168 -2.5546
  135OSM   C16F14716   1.995   3.301   8.434  0.3559 -0.2924 -0.1781
  135OSM   H16F14717   1.996   3.219   8.509 -1.6380  1.0835  1.4351
  135OSM   H16G14718   1.898   3.355   8.447  1.5986  1.7106  1.0836
  135OSM   C17F14719   2.110   3.405   8.463 -0.6719  1.4732  0.0359
  135OSM   H17F14720   2.080   3.485   8.391 -2.4276  0.4463 -0.4129
  135OSM   H17G14721   2.213   3.368   8.449 -1.3802 -0.8008  0.6766
  135OSM   C18F14722   2.098   3.461   8.604 -0.6027  0.1574  0.0054
  135OSM   H18F14723   2.174   3.543   8.602  0.3726 -0.7210  0.7077
  135OSM   H18G14724   2.122   3.382   8.678 -0.2747 -0.8233 -1.1382
  135OSM   H18H14725   1.995   3.503   8.607 -0.3415  0.7631  0.9693
  136OSM      N14726   5.773   3.137   5.609  0.1820 -0.0981 -0.2791
  136OSM    C1514727   5.719   2.997   5.592 -0.0358  0.6411  0.0238
  136OSM   H15A14728   5.793   2.924   5.622 -0.8813  0.4064  1.5701
  136OSM   H15B14729   5.691   2.971   5.492  1.6275 -2.4514  0.3117
  136OSM   H15C14730   5.636   2.980   5.659 -0.2643  3.1163  0.4223
  136OSM    C1414731   5.886   3.134   5.517  0.8448  0.2996 -0.1288
  136OSM   H14A14732   5.944   3.225   5.514  0.3398  0.6294  0.0521
  136OSM   H14B14733   5.852   3.138   5.415 -2.4015 -2.2067  0.7522
  136OSM   H14C14734   5.955   3.051   5.530  2.2547  1.2464 -1.4006
  136OSM    C1314735   5.660   3.227   5.569  0.2237  0.1441 -0.0180
  136OSM   H13A14736   5.631   3.195   5.470  2.8167 -1.5800 -0.2464
  136OSM   H13B14737   5.686   3.332   5.567 -1.8626  0.6786 -1.0374
  136OSM   H13C14738   5.573   3.217   5.633 -0.5367  1.0397 -0.8879
  136OSM    C1214739   5.811   3.167   5.756 -0.6309 -0.2756  0.2244
  136OSM   H12A14740   5.886   3.094   5.785 -0.2205  0.0480 -0.0106
  136OSM   H12B14741   5.723   3.161   5.818  0.3259  2.0267  1.8521
  136OSM    C1114742   5.885   3.309   5.788 -0.5094 -0.8566 -0.4352
  136OSM   H11A14743   5.900   3.319   5.898  0.9633 -2.9442 -0.4077
  136OSM   H11B14744   5.812   3.381   5.744  1.7870  1.3155 -0.7920
  136OSM      P14745   6.143   3.259   5.808  0.0378  0.0565 -0.3164
  136OSM    O1314746   6.118   3.114   5.822 -0.2801  0.9656 -0.1337
  136OSM    O1414747   6.271   3.298   5.751 -0.3461 -0.1672 -0.5813
  136OSM    O1114748   6.123   3.327   5.948 -0.1287 -0.1334 -0.3243
  136OSM    O1214749   6.019   3.319   5.732  0.0217  0.2012 -0.3430
  136OSM    C1S14750   6.158   3.262   6.071  0.3378 -0.5370 -0.6775
  136OSM    H1S14751   6.262   3.225   6.078  0.4436 -0.6198 -2.4347
  136OSM    H1T14752   6.081   3.183   6.089  0.3042 -0.2085  0.6267
  136OSM     NF14753   6.192   3.325   6.318 -0.2381 -0.3751  0.1676
  136OSM    HNF14754   6.123   3.312   6.389  1.7755 -1.1512  2.0525
  136OSM    C2S14755   6.152   3.375   6.192  0.1887 -0.2848  0.0591
  136OSM    H2S14756   6.219   3.457   6.161 -0.5481  0.6555  0.9483
  136OSM    C3S14757   6.012   3.448   6.182  0.8218  0.6666 -0.7453
  136OSM    H3S14758   5.928   3.375   6.188  3.0086 -1.7938  1.4379
  136OSM     O314759   5.991   3.525   6.064 -0.1177 -0.0232 -0.6465
  136OSM    HO314760   6.042   3.480   5.997 -0.7813 -2.3061  0.3206
  136OSM    C4S14761   6.001   3.540   6.301  0.2114 -0.1267  0.6057
  136OSM    H4S14762   5.939   3.503   6.384 -1.3979  0.3348 -0.3496
  136OSM    C5S14763   6.030   3.667   6.316 -0.6061 -0.7278  0.0200
  136OSM    H5S14764   6.074   3.724   6.233 -0.6820 -2.3591 -1.1675
  136OSM    C6S14765   6.006   3.751   6.440 -0.0432 -0.1318 -0.4409
  136OSM    H6S14766   5.925   3.823   6.418 -1.3552 -1.0240  1.3501
  136OSM    H6T14767   6.095   3.813   6.465  0.7963 -1.9510  1.2126
  136OSM    C7S14768   5.967   3.690   6.571  0.5822 -0.1150 -0.2308
  136OSM    H7S14769   6.057   3.654   6.625  1.7756  1.4630 -1.1161
  136OSM    H7T14770   5.895   3.606   6.566  2.6159 -2.0110  1.2347
  136OSM    C8S14771   5.911   3.805   6.661 -0.5083  0.4316  0.2027
  136OSM    H8S14772   5.817   3.852   6.625  0.5935  0.1794 -3.2738
  136OSM    H8T14773   5.986   3.887   6.662  0.3004 -0.2626 -1.0898
  136OSM    C9S14774   5.893   3.761   6.812 -0.0108  0.9469  0.1278
  136OSM    H9S14775   5.990   3.743   6.862  0.0091  0.0794 -0.2180
  136OSM    H9T14776   5.832   3.668   6.807 -4.3031  3.5631  0.6888
  136OSM   C10S14777   5.813   3.869   6.886  0.0904 -0.7226 -1.0229
  136OSM   H10S14778   5.710   3.887   6.847  0.0438  1.7038  0.1164
  136OSM   H10T14779   5.856   3.970   6.865 -1.5178  0.2751  0.4054
  136OSM   C11S14780   5.807   3.845   7.031  0.4729  0.4147  0.6336
  136OSM   H11S14781   5.912   3.835   7.068  1.2924 -1.1481 -1.9801
  136OSM   H11T14782   5.756   3.747   7.050  0.9434  0.3412  1.5844
  136OSM   C12S14783   5.736   3.954   7.112  1.0641 -0.5643  0.0372
  136OSM   H12S14784   5.629   3.958   7.082  1.2009 -3.1700 -0.9898
  136OSM   H12T14785   5.768   4.058   7.091 -0.1019 -0.0092  0.9757
  136OSM   C13S14786   5.740   3.925   7.261  0.4034 -0.2946  0.3924
  136OSM   H13S14787   5.822   3.858   7.294  1.3513  0.7351  0.1635
  136OSM   H13T14788   5.651   3.862   7.283 -0.8872  1.1518 -0.5818
  136OSM   C14S14789   5.730   4.051   7.347 -0.1581  0.0171 -0.1471
  136OSM   H14S14790   5.638   4.105   7.316 -0.0424  1.3239  1.6879
  136OSM   H14T14791   5.820   4.115   7.334 -2.1196  2.7202 -0.8010
  136OSM   C15S14792   5.714   4.009   7.491  0.3569  0.3028 -0.6994
  136OSM   H15S14793   5.810   3.964   7.523 -0.5696 -0.1962  1.4257
  136OSM   H15T14794   5.637   3.930   7.499  0.9478 -0.3791 -1.4987
  136OSM   C16S14795   5.684   4.125   7.590 -0.0773  0.0868  0.1638
  136OSM   H16S14796   5.599   4.176   7.542 -0.9144 -0.6920  0.7962
  136OSM   H16T14797   5.778   4.183   7.604  0.3535 -0.7342  0.7404
  136OSM   C17S14798   5.639   4.077   7.729 -0.1165 -0.0984  0.4474
  136OSM   H17S14799   5.732   4.034   7.771 -0.4406 -0.8954  0.3594
  136OSM   H17T14800   5.563   3.997   7.718 -0.8179  0.4740  0.9783
  136OSM   C18S14801   5.591   4.198   7.810  0.7511  0.7638 -0.3970
  136OSM   H18S14802   5.677   4.262   7.840  1.1099  0.7659 -1.4055
  136OSM   H18T14803   5.531   4.179   7.902  1.2396  0.8051 -0.0632
  136OSM   H18U14804   5.524   4.261   7.748 -2.4745 -1.7063  0.4519
  136OSM    C1F14805   6.314   3.299   6.347 -0.3601  0.0107 -0.1098
  136OSM     OF14806   6.400   3.323   6.261 -1.0824  0.9675 -0.7799
  136OSM    C2F14807   6.337   3.253   6.492  0.0729 -0.3080 -1.0942
  136OSM    H2F14808   6.435   3.202   6.502  0.2252  0.0885 -0.5753
  136OSM    H2G14809   6.263   3.173   6.512  0.7344 -0.4047  1.0514
  136OSM    C3F14810   6.334   3.373   6.594  0.3445  0.4262  0.3011
  136OSM    H3F14811   6.230   3.413   6.587 -1.2870 -3.4799  0.8492
  136OSM    H3G14812   6.398   3.458   6.560 -0.2021  0.4710 -0.6450
  136OSM    C4F14813   6.369   3.327   6.735  0.3837 -0.3500 -0.1750
  136OSM    H4F14814   6.459   3.262   6.740  0.9751  0.5272  0.6179
  136OSM    H4G14815   6.281   3.264   6.762 -0.4737  1.7308  2.0385
  136OSM    C5F14816   6.384   3.448   6.828  0.0286  0.2224 -0.7252
  136OSM    H5F14817   6.459   3.518   6.785  1.2928 -1.0466 -0.6249
  136OSM    H5G14818   6.429   3.407   6.921 -0.7750 -2.9374 -1.6639
  136OSM    C6F14819   6.258   3.525   6.861 -0.0529  0.2223 -0.4898
  136OSM    H6F14820   6.190   3.454   6.913 -0.5748  0.7596 -0.4415
  136OSM    H6G14821   6.204   3.553   6.768 -4.0852 -1.3599  1.2607
  136OSM    C7F14822   6.273   3.642   6.951 -0.5901  0.1736  0.2664
  136OSM    H7F14823   6.179   3.693   6.980 -1.0907 -1.7894  2.2498
  136OSM    H7G14824   6.337   3.712   6.893 -0.6160 -1.5694 -1.9362
  136OSM    C8F14825   6.346   3.612   7.081  0.4100  0.1160 -0.6877
  136OSM    H8F14826   6.445   3.578   7.045  0.5311 -0.5957  0.3120
  136OSM    H8G14827   6.298   3.518   7.117 -0.6528  1.3305  1.0942
  136OSM    C9F14828   6.347   3.722   7.180 -1.6166 -0.3070  0.1516
  136OSM    H9F14829   6.430   3.794   7.167 -0.6753 -1.3233  0.4515
  136OSM   C10F14830   6.260   3.753   7.272 -0.5124  0.0618 -0.0208
  136OSM   H10F14831   6.277   3.846   7.328  0.7141  1.4412 -2.5639
  136OSM   C11F14832   6.133   3.677   7.298 -0.8435  0.2008 -0.7360
  136OSM   H11F14833   6.141   3.580   7.245  1.3871  0.2482 -0.5599
  136OSM   H11G14834   6.047   3.736   7.261  1.1333  3.6981  0.0048
  136OSM   C12F14835   6.110   3.638   7.452  0.6486  0.4329  0.3572
  136OSM   H12F14836   6.191   3.568   7.481  2.6856  0.9208 -3.8649
  136OSM   H12G14837   6.016   3.579   7.467  0.3108  0.5848 -1.1263
  136OSM   C13F14838   6.100   3.756   7.551 -0.4125 -0.5550  0.7394
  136OSM   H13F14839   6.048   3.838   7.499  4.6891  1.7340 -1.0889
  136OSM   H13G14840   6.205   3.786   7.573 -0.1969  0.5563 -1.6394
  136OSM   C14F14841   6.022   3.716   7.677  0.2306  0.1581  0.9419
  136OSM   H14F14842   6.049   3.614   7.712 -3.0587 -1.8183 -1.8734
  136OSM   H14G14843   5.916   3.725   7.644  0.1963 -0.1064  0.9795
  136OSM   C15F14844   6.038   3.821   7.784 -0.4825  0.8330  0.0922
  136OSM   H15F14845   6.027   3.920   7.735 -1.9220 -0.7915 -3.0449
  136OSM   H15G14846   6.142   3.814   7.822 -0.2307  0.9569 -0.5595
  136OSM   C16F14847   5.937   3.816   7.901 -0.5472  0.6045 -0.2274
  136OSM   H16F14848   5.944   3.723   7.961 -1.6196  0.6167 -0.0664
  136OSM   H16G14849   5.833   3.818   7.860 -0.9454  2.4398  0.8041
  136OSM   C17F14850   5.949   3.943   7.987  0.5540 -0.0732 -0.0370
  136OSM   H17F14851   5.858   3.943   8.051 -0.8475  3.1970 -1.9104
  136OSM   H17G14852   5.946   4.035   7.925 -3.3915 -0.6846 -0.9225
  136OSM   C18F14853   6.073   3.946   8.078  0.5564 -0.4207  0.3332
  136OSM   H18F14854   6.101   3.840   8.099 -0.6793 -0.9250 -0.4479
  136OSM   H18G14855   6.061   4.010   8.168  0.3461 -1.2375  0.9008
  136OSM   H18H14856   6.152   3.987   8.012  0.2968  0.1818  0.3894
  137OSM      N14857   3.318   1.851   6.195 -0.2513  0.6360  0.4338
  137OSM    C1514858   3.363   1.898   6.065 -1.4887  1.0149  1.1318
  137OSM   H15A14859   3.278   1.945   6.017 -1.0590 -0.0399 -0.7302
  137OSM   H15B14860   3.386   1.822   5.992 -1.1302  2.0518  0.1464
  137OSM   H15C14861   3.448   1.964   6.067 -0.3687 -0.3038 -0.8083
  137OSM    C1414862   3.207   1.763   6.179 -0.4640 -0.1383  0.2784
  137OSM   H14A14863   3.165   1.736   6.275  0.9751  0.8188  1.2044
  137OSM   H14B14864   3.239   1.683   6.114  1.3519  1.0346 -0.3241
  137OSM   H14C14865   3.127   1.807   6.122  1.5625  0.7851 -1.9489
  137OSM    C1314866   3.427   1.763   6.252 -0.2127  0.5568 -0.5851
  137OSM   H13A14867   3.444   1.677   6.188 -0.1600  0.9083 -1.0485
  137OSM   H13B14868   3.395   1.728   6.349 -0.0125 -0.0231 -0.7245
  137OSM   H13C14869   3.519   1.820   6.260  0.6970 -0.7172 -1.7288
  137OSM    C1214870   3.292   1.963   6.285  0.5614 -0.7109 -0.4208
  137OSM   H12A14871   3.204   2.021   6.259  0.7520 -0.2115  0.0258
  137OSM   H12B14872   3.379   2.026   6.272  2.0769 -1.6506  4.2562
  137OSM    C1114873   3.282   1.930   6.436 -0.4488 -0.8115 -0.0845
  137OSM   H11A14874   3.260   2.026   6.488 -2.9621 -1.3766 -0.0321
  137OSM   H11B14875   3.377   1.904   6.487  1.6034  1.4384 -2.6038
  137OSM      P14876   3.039   1.882   6.493 -0.0734 -0.1584 -0.1654
  137OSM    O1314877   2.999   1.985   6.391  0.0559  0.1439 -0.0350
  137OSM    O1414878   2.963   1.760   6.496  0.1898  0.5398 -0.3725
  137OSM    O1114879   3.030   1.951   6.635 -0.1329  0.1182  0.1858
  137OSM    O1214880   3.186   1.833   6.480 -0.4732  0.0629 -0.7347
  137OSM    C1S14881   3.110   1.908   6.748 -0.1389  0.3485  0.3353
  137OSM    H1S14882   3.208   1.960   6.738  0.0492 -0.2305 -0.8599
  137OSM    H1T14883   3.142   1.803   6.737 -0.7530  0.1514  0.3735
  137OSM     NF14884   3.163   1.942   6.984 -0.5775  0.0412 -0.3123
  137OSM    HNF14885   3.198   1.852   7.012 -0.9630  0.0160  0.0893
  137OSM    C2S14886   3.059   1.946   6.890  0.4865 -0.3593  0.2925
  137OSM    H2S14887   3.015   2.047   6.877  0.3847 -0.7920 -3.3409
  137OSM    C3S14888   2.940   1.851   6.933  0.0982 -1.2682  0.4371
  137OSM    H3S14889   2.988   1.751   6.931  0.9509 -0.8540 -1.5684
  137OSM     O314890   2.842   1.837   6.830  0.1818  0.1716 -0.0568
  137OSM    HO314891   2.878   1.887   6.756 -1.6166 -1.2972 -1.9807
  137OSM    C4S14892   2.882   1.894   7.065 -0.2490  0.6628  0.4232
  137OSM    H4S14893   2.933   1.847   7.150  0.1610 -1.9773 -1.1875
  137OSM    C5S14894   2.791   1.995   7.083 -0.2472 -0.2895 -0.0720
  137OSM    H5S14895   2.751   2.046   6.993  0.7893 -0.8692 -0.8693
  137OSM    C6S14896   2.733   2.036   7.215  0.2152 -0.4638  0.2684
  137OSM    H6S14897   2.630   1.996   7.222  0.4264 -1.2721 -0.9515
  137OSM    H6T14898   2.717   2.145   7.205 -1.2092 -0.5489  1.4417
  137OSM    C7S14899   2.812   1.992   7.337  0.6541  0.6170 -0.4927
  137OSM    H7S14900   2.915   2.030   7.323  0.6300 -0.6742 -4.5787
  137OSM    H7T14901   2.832   1.883   7.335  0.4932  0.5820 -0.2641
  137OSM    C8S14902   2.752   2.041   7.472 -0.4405  0.2774  0.4170
  137OSM    H8S14903   2.658   1.989   7.501 -1.3200  1.5526 -0.1035
  137OSM    H8T14904   2.718   2.145   7.452  1.6482  1.3774  2.4388
  137OSM    C9S14905   2.873   2.057   7.565 -0.0528 -0.5610  0.2207
  137OSM    H9S14906   2.956   2.122   7.530 -1.4346  0.3917 -1.3819
  137OSM    H9T14907   2.912   1.957   7.592  0.5814  0.3555  2.9028
  137OSM   C10S14908   2.819   2.124   7.692  0.4160  0.0747 -0.4930
  137OSM   H10S14909   2.711   2.103   7.703  0.0842  2.5001  1.4589
  137OSM   H10T14910   2.848   2.231   7.684 -0.4098  0.2499 -1.2547
  137OSM   C11S14911   2.903   2.076   7.818  0.0152 -0.0150 -0.0125
  137OSM   H11S14912   3.009   2.097   7.792 -0.2973 -0.4176 -1.6174
  137OSM   H11T14913   2.890   1.966   7.818 -0.4993  0.0072 -2.9848
  137OSM   C12S14914   2.861   2.150   7.941  0.4618  0.3741 -0.1519
  137OSM   H12S14915   2.767   2.100   7.974  0.1034  0.6956 -0.6717
  137OSM   H12T14916   2.852   2.259   7.923 -0.4995  0.1927 -0.8313
  137OSM   C13S14917   2.973   2.134   8.044  0.3702 -0.0551 -0.3084
  137OSM   H13S14918   3.061   2.188   8.002 -0.0344 -0.1979 -1.3503
  137OSM   H13T14919   2.996   2.029   8.072  1.9600  0.2742 -0.2874
  137OSM   C14S14920   2.940   2.191   8.193  0.0057 -0.3071  0.3470
  137OSM   H14S14921   2.845   2.147   8.229 -0.6777  0.5000 -0.4443
  137OSM   H14T14922   2.935   2.302   8.191  1.1881 -0.2529 -0.0320
  137OSM   C15S14923   3.055   2.161   8.291  0.1226 -0.3120  0.7294
  137OSM   H15S14924   3.058   2.249   8.359  1.2384 -0.7868  1.3044
  137OSM   H15T14925   3.147   2.154   8.229  1.0035  1.9557  1.7419
  137OSM   C16S14926   3.020   2.045   8.386 -0.1414  0.1051 -0.4459
  137OSM   H16S14927   2.985   1.946   8.348  0.3188  0.3547 -1.5570
  137OSM   H16T14928   2.942   2.089   8.451  2.4308  1.3781  1.8727
  137OSM   C17S14929   3.145   2.010   8.471  0.1199 -0.4241  0.6263
  137OSM   H17S14930   3.214   1.961   8.399 -1.1385 -0.4934 -0.5460
  137OSM   H17T14931   3.110   1.924   8.531  0.6581 -1.4033 -0.4593
  137OSM   C18S14932   3.223   2.123   8.547 -0.8219 -0.0606  0.3274
  137OSM   H18S14933   3.159   2.186   8.612  0.6145  2.6589 -0.8041
  137OSM   H18T14934   3.273   2.191   8.475 -1.2958 -0.4290 -0.3509
  137OSM   H18U14935   3.312   2.085   8.602 -0.3035  0.8567  0.1122
  137OSM    C1F14936   3.261   2.032   6.980  0.1065  0.3217 -0.3668
  137OSM     OF14937   3.251   2.128   6.905  0.2294 -0.9137  0.2745
  137OSM    C2F14938   3.382   2.027   7.066  0.2416  0.9524 -0.8423
  137OSM    H2F14939   3.474   2.029   7.004  0.4574  0.1465 -0.5534
  137OSM    H2G14940   3.380   1.934   7.126  1.1074  2.2775  1.3162
  137OSM    C3F14941   3.393   2.152   7.154 -0.6670  1.3096 -0.1761
  137OSM    H3F14942   3.309   2.136   7.225 -0.8243 -1.6050 -0.9253
  137OSM    H3G14943   3.380   2.243   7.091 -0.5884  2.5889  1.6404
  137OSM    C4F14944   3.528   2.166   7.232  0.2290  0.4062 -0.5123
  137OSM    H4F14945   3.611   2.193   7.163  0.3376 -1.9988 -1.3870
  137OSM    H4G14946   3.558   2.064   7.264  1.4447  0.4027 -1.6243
  137OSM    C5F14947   3.522   2.254   7.350  0.9485 -0.2225  0.9769
  137OSM    H5F14948   3.433   2.230   7.412  1.1305 -1.4612  0.7671
  137OSM    H5G14949   3.502   2.361   7.327 -3.1098 -0.2941  3.7210
  137OSM    C6F14950   3.645   2.235   7.446  0.2973 -0.1091 -0.4803
  137OSM    H6F14951   3.732   2.281   7.395  0.9171  1.0508  1.5583
  137OSM    H6G14952   3.663   2.126   7.463 -1.9826 -0.3562  0.5851
  137OSM    C7F14953   3.626   2.314   7.581  0.4547 -0.2810  0.1229
  137OSM    H7F14954   3.517   2.306   7.598  0.5249 -3.8740 -0.6653
  137OSM    H7G14955   3.645   2.422   7.562 -2.0506  0.0601 -0.6243
  137OSM    C8F14956   3.724   2.261   7.687  0.7636 -0.3946 -0.4360
  137OSM    H8F14957   3.749   2.341   7.759  0.6360  0.0795 -0.9119
  137OSM    H8G14958   3.820   2.257   7.631  1.2869  1.4964  0.3184
  137OSM    C9F14959   3.692   2.125   7.752 -0.9052  0.3925 -0.0969
  137OSM    H9F14960   3.599   2.085   7.708 -1.0538  0.2689  0.3332
  137OSM   C10F14961   3.773   2.055   7.830 -0.0990 -0.8752 -0.2575
  137OSM   H10F14962   3.742   1.953   7.860  1.5627 -0.9412  1.3475
  137OSM   C11F14963   3.905   2.089   7.891  0.2498 -0.0805 -0.3568
  137OSM   H11F14964   3.950   2.185   7.861 -1.7444  1.3218  0.9861
  137OSM   H11G14965   3.972   2.004   7.865 -0.2908 -0.6045 -0.0575
  137OSM   C12F14966   3.893   2.100   8.048  0.0503  0.0130  0.1016
  137OSM   H12F14967   3.996   2.121   8.085  0.8532 -1.3491 -1.3281
  137OSM   H12G14968   3.855   2.008   8.095 -0.9001  0.3498 -0.0046
  137OSM   C13F14969   3.810   2.218   8.097  0.1786  0.1037  0.3892
  137OSM   H13F14970   3.705   2.204   8.064  0.3378 -0.1631 -0.0144
  137OSM   H13G14971   3.846   2.309   8.044  1.2218 -0.9134 -0.6899
  137OSM   C14F14972   3.824   2.221   8.248  0.8863  0.0412  0.5488
  137OSM   H14F14973   3.933   2.231   8.265  0.6060  2.0735  1.3728
  137OSM   H14G14974   3.772   2.135   8.294 -1.3372  1.0061 -0.0469
  137OSM   C15F14975   3.754   2.341   8.313  0.1389  0.1159 -0.0273
  137OSM   H15F14976   3.648   2.338   8.280 -0.0944  1.6769  0.5465
  137OSM   H15G14977   3.800   2.436   8.279  0.4762  0.7560  2.1761
  137OSM   C16F14978   3.772   2.350   8.464 -0.3341  0.1974  0.0690
  137OSM   H16F14979   3.874   2.362   8.506 -0.2524 -4.0293  1.3825
  137OSM   H16G14980   3.741   2.251   8.507 -0.7494  0.1686 -0.3004
  137OSM   C17F14981   3.683   2.454   8.526  0.1836  0.1111 -0.3704
  137OSM   H17F14982   3.578   2.424   8.505  0.1339 -0.7981  1.1716
  137OSM   H17G14983   3.696   2.550   8.471  1.7416  0.2578  0.2532
  137OSM   C18F14984   3.715   2.485   8.672  0.4299  0.7917 -0.2504
  137OSM   H18F14985   3.631   2.534   8.725 -0.6609  0.5655 -1.7366
  137OSM   H18G14986   3.805   2.549   8.684  0.2136  0.5049  3.6819
  137OSM   H18H14987   3.739   2.392   8.728  1.7332  0.3397 -1.5382
  138OSM      N14988   3.285   3.058   6.286  0.6022 -0.0857  0.6292
  138OSM    C1514989   3.216   3.018   6.157 -0.1696  0.2884  0.0182
  138OSM   H15A14990   3.131   2.954   6.174  0.3133  0.4664  3.5247
  138OSM   H15B14991   3.285   2.972   6.088  1.4367  1.9954  0.4115
  138OSM   H15C14992   3.174   3.100   6.100 -1.3339  0.1917  0.7306
  138OSM    C1414993   3.183   3.127   6.375 -0.0710  0.4274 -0.7532
  138OSM   H14A14994   3.221   3.147   6.474 -1.4019  0.4630 -0.2418
  138OSM   H14B14995   3.095   3.067   6.390  1.5392 -1.5885  1.0584
  138OSM   H14C14996   3.153   3.218   6.326 -4.2240 -1.2100 -1.4731
  138OSM    C1314997   3.320   2.928   6.350 -0.7256  0.6057  0.5157
  138OSM   H13A14998   3.380   2.866   6.286 -0.7523 -0.1543  1.2243
  138OSM   H13B14999   3.228   2.877   6.375  0.3402 -2.0231 -0.7934
  138OSM   H13C15000   3.379   2.935   6.441 -0.3970  1.4889  0.2427
  138OSM    C1215001   3.403   3.150   6.259  0.5789 -0.0154 -0.0123
  138OSM   H12A15002   3.474   3.094   6.202  0.8736  0.0091  0.3260
  138OSM   H12B15003   3.460   3.167   6.349  0.5839  0.8001 -0.1611
  138OSM    C1115004   3.377   3.278   6.182  0.2608  0.0774  0.4193
  138OSM   H11A15005   3.335   3.240   6.087  1.4898  0.0916 -0.1379
  138OSM   H11B15006   3.469   3.334   6.154  0.0715 -0.4424 -1.2969
  138OSM      P15007   3.195   3.475   6.163  0.1445  0.1491  0.1927
  138OSM    O1315008   3.270   3.531   6.052  0.6068  0.1030  0.0573
  138OSM    O1415009   3.073   3.404   6.128  0.1195  0.1701 -0.3337
  138OSM    O1115010   3.169   3.591   6.264 -0.2842 -0.9737 -0.3127
  138OSM    O1215011   3.291   3.376   6.248 -0.5194 -0.2816 -0.0755
  138OSM    C1S15012   3.096   3.591   6.384 -1.3488  0.9083  0.6139
  138OSM    H1S15013   3.155   3.528   6.453 -2.1034 -1.1581 -0.5673
  138OSM    H1T15014   2.999   3.538   6.369 -1.2733  0.7209  0.7946
  138OSM     NF15015   2.999   3.706   6.573 -0.5483  0.4976  0.0788
  138OSM    HNF15016   2.901   3.725   6.573 -0.8971 -1.2231  0.6544
  138OSM    C2S15017   3.063   3.727   6.450 -0.2242 -0.4679  0.4911
  138OSM    H2S15018   3.157   3.780   6.478 -0.7157 -0.4548  2.1327
  138OSM    C3S15019   2.985   3.822   6.348 -0.2410  0.3755  0.0715
  138OSM    H3S15020   2.883   3.781   6.338 -0.2582  0.8813 -2.1077
  138OSM     O315021   3.041   3.823   6.214  0.2769 -0.5615  0.6466
  138OSM    HO315022   3.094   3.742   6.210  0.4605 -0.3741 -0.9947
  138OSM    C4S15023   2.970   3.962   6.400  0.0282 -0.2581 -0.1012
  138OSM    H4S15024   3.070   4.002   6.421  0.0417 -0.5284  0.3438
  138OSM    C5S15025   2.862   4.042   6.412  0.2106 -0.3979  0.1422
  138OSM    H5S15026   2.770   4.014   6.360 -0.0343 -1.1307  0.9565
  138OSM    C6S15027   2.858   4.187   6.459  0.6355  0.1418  0.4954
  138OSM    H6S15028   2.810   4.190   6.559  1.8032  1.0060  1.0317
  138OSM    H6T15029   2.794   4.240   6.386  1.9539  2.7798  1.2048
  138OSM    C7S15030   2.993   4.256   6.481  0.8159 -0.4480  0.3704
  138OSM    H7S15031   3.045   4.266   6.383 -3.0259  0.4628 -1.6378
  138OSM    H7T15032   3.058   4.194   6.546  2.4124  1.0740  0.2835
  138OSM    C8S15033   2.983   4.394   6.554 -0.3893  0.4437  0.1063
  138OSM    H8S15034   2.909   4.454   6.497 -2.5567 -0.5482  1.8257
  138OSM    H8T15035   3.083   4.442   6.546 -0.9036  1.2728 -1.6620
  138OSM    C9S15036   2.939   4.405   6.699  0.8015 -0.2910  0.6166
  138OSM    H9S15037   3.006   4.345   6.764 -0.3225 -1.6979  0.5026
  138OSM    H9T15038   2.838   4.360   6.704  0.7876 -0.4464 -0.8894
  138OSM   C10S15039   2.931   4.545   6.748  0.1965  0.7384  0.5456
  138OSM   H10S15040   2.885   4.609   6.670 -0.0289  0.5143  0.4950
  138OSM   H10T15041   3.034   4.588   6.755  0.9030 -0.9529  0.9620
  138OSM   C11S15042   2.854   4.548   6.890 -0.8767  0.7424  0.9538
  138OSM   H11S15043   2.758   4.492   6.893 -1.7048  2.1339  1.6704
  138OSM   H11T15044   2.844   4.657   6.914 -2.7016  0.8122 -0.0087
  138OSM   C12S15045   2.946   4.490   6.997  0.4584  0.1778 -0.8689
  138OSM   H12S15046   3.047   4.535   6.988  0.1905  0.4201 -2.9394
  138OSM   H12T15047   2.957   4.380   6.984  0.2444 -0.3949  3.0346
  138OSM   C13S15048   2.903   4.521   7.140 -0.0864 -0.2925  0.1891
  138OSM   H13S15049   2.804   4.474   7.153  0.0549 -0.9082 -0.9087
  138OSM   H13T15050   2.897   4.632   7.149  0.6054 -0.2293 -0.0817
  138OSM   C14S15051   3.004   4.465   7.244 -0.3413 -0.2638  0.0209
  138OSM   H14S15052   3.105   4.510   7.237 -1.2912  2.1199  0.9821
  138OSM   H14T15053   3.008   4.356   7.225  0.4540 -0.8566  3.3925
  138OSM   C15S15054   2.949   4.483   7.386 -0.1475  0.1469 -0.4522
  138OSM   H15S15055   2.854   4.435   7.418 -0.7168  0.8876 -1.0023
  138OSM   H15T15056   2.937   4.594   7.381 -0.4316  0.0876 -1.0886
  138OSM   C16S15057   3.063   4.448   7.478 -0.0514  0.5487  0.1181
  138OSM   H16S15058   3.166   4.478   7.447  0.8345 -3.2512 -0.8912
  138OSM   H16T15059   3.069   4.338   7.471 -1.2690  0.4402  0.7190
  138OSM   C17S15060   3.051   4.512   7.619 -0.2771  0.1141  0.7307
  138OSM   H17S15061   2.951   4.501   7.667 -0.5056  2.0393  0.7289
  138OSM   H17T15062   3.068   4.622   7.616 -0.7410  0.2284  1.8783
  138OSM   C18S15063   3.147   4.440   7.712  0.6566  0.4865  0.6200
  138OSM   H18S15064   3.254   4.467   7.692  0.5508  0.5438  0.1152
  138OSM   H18T15065   3.121   4.333   7.700  0.6609  0.8537 -3.4221
  138OSM   H18U15066   3.119   4.461   7.817 -0.7073 -1.4500  0.6546
  138OSM    C1F15067   3.053   3.652   6.686  0.2966  0.0721  0.4632
  138OSM     OF15068   3.172   3.625   6.686 -0.6221 -0.2289 -0.3809
  138OSM    C2F15069   2.950   3.608   6.784 -0.3482  0.7501  0.0216
  138OSM    H2F15070   2.876   3.546   6.729  0.7117 -0.1839 -0.3683
  138OSM    H2G15071   2.894   3.697   6.821 -1.4812  0.1684 -0.2760
  138OSM    C3F15072   3.003   3.536   6.911  0.4967 -0.5244 -0.2072
  138OSM    H3F15073   3.099   3.585   6.937 -0.3971  0.1680  1.8477
  138OSM    H3G15074   3.021   3.428   6.893  0.4234 -0.2381 -2.1331
  138OSM    C4F15075   2.902   3.549   7.029 -0.4773  0.6647  0.4774
  138OSM    H4F15076   2.806   3.528   6.977  0.6675 -1.7709 -0.7657
  138OSM    H4G15077   2.902   3.642   7.089  1.8127  0.2461  1.1836
  138OSM    C5F15078   2.918   3.431   7.127 -0.3202 -0.1680 -0.3585
  138OSM    H5F15079   2.892   3.332   7.085 -0.5308 -0.8739  1.3905
  138OSM    H5G15080   2.844   3.432   7.210 -0.7965 -2.5116 -0.7355
  138OSM    C6F15081   3.054   3.430   7.198 -0.3074 -0.1297 -0.3973
  138OSM    H6F15082   3.128   3.443   7.117  0.8992  0.4131  0.7641
  138OSM    H6G15083   3.072   3.330   7.245 -1.5240 -1.2402 -2.2375
  138OSM    C7F15084   3.082   3.549   7.295  0.6347 -0.0388 -0.2526
  138OSM    H7F15085   3.005   3.543   7.374 -0.2949  0.5135 -1.1011
  138OSM    H7G15086   3.064   3.641   7.234 -0.9840 -1.6673 -2.3090
  138OSM    C8F15087   3.219   3.539   7.362 -0.0970 -0.5954  0.2482
  138OSM    H8F15088   3.240   3.636   7.413  0.4724 -0.5241 -0.1189
  138OSM    H8G15089   3.291   3.514   7.281  0.8042  0.7506  0.6013
  138OSM    C9F15090   3.235   3.423   7.457 -0.4003 -0.5576  0.7644
  138OSM    H9F15091   3.212   3.325   7.413  1.6329 -0.8487  0.3141
  138OSM   C10F15092   3.256   3.432   7.590  0.9414  0.3220  0.2202
  138OSM   H10F15093   3.278   3.336   7.638 -2.4519  0.1621  1.5534
  138OSM   C11F15094   3.289   3.555   7.669 -0.0506 -0.7859  0.0729
  138OSM   H11F15095   3.202   3.609   7.712  0.2349 -2.0117  2.2888
  138OSM   H11G15096   3.344   3.630   7.607 -1.5402 -0.3923 -0.7975
  138OSM   C12F15097   3.367   3.513   7.800 -0.3013  0.0894 -1.1692
  138OSM   H12F15098   3.401   3.605   7.851  0.9805  0.3993 -2.5466
  138OSM   H12G15099   3.454   3.447   7.779  1.2283  2.3209 -2.0070
  138OSM   C13F15100   3.266   3.454   7.901  0.0306 -0.0942  0.7626
  138OSM   H13F15101   3.225   3.366   7.847 -2.3149  1.7633 -0.6434
  138OSM   H13G15102   3.182   3.527   7.905 -0.5777 -0.8279  1.4368
  138OSM   C14F15103   3.328   3.425   8.038 -0.2030  0.4160 -0.0063
  138OSM   H14F15104   3.250   3.391   8.109 -1.1450 -1.4959 -1.8919
  138OSM   H14G15105   3.373   3.516   8.083  1.1961  0.7260 -1.9509
  138OSM   C15F15106   3.433   3.305   8.038  1.0689  0.9707 -0.1295
  138OSM   H15F15107   3.500   3.326   7.952 -2.0822 -0.3133 -2.9937
  138OSM   H15G15108   3.389   3.205   8.018 -0.7852  1.3675  1.8613
  138OSM   C16F15109   3.521   3.285   8.163  0.6960 -0.0632  0.4627
  138OSM   H16F15110   3.582   3.377   8.166  2.2813 -1.0953  0.5721
  138OSM   H16G15111   3.597   3.207   8.140  3.4786  2.1890  1.6335
  138OSM   C17F15112   3.444   3.267   8.303 -0.0291  0.0108 -0.7058
  138OSM   H17F15113   3.378   3.178   8.287  0.3211 -0.3835  0.0590
  138OSM   H17G15114   3.375   3.353   8.310 -1.5775 -1.3092  0.7981
  138OSM   C18F15115   3.522   3.260   8.434  0.4726  0.3760  0.0643
  138OSM   H18F15116   3.572   3.161   8.435 -2.7813 -1.3479  0.0733
  138OSM   H18G15117   3.463   3.275   8.527 -0.0392 -0.8668 -0.0564
  138OSM   H18H15118   3.598   3.341   8.438  1.6212 -0.5832 -1.8310
  139OSM      N15119   2.232   5.256   6.000 -0.0613 -0.7675 -0.0356
  139OSM    C1515120   2.262   5.389   6.066 -0.1335  0.4844 -0.3492
  139OSM   H15A15121   2.202   5.467   6.022 -1.2719 -0.8738 -1.2493
  139OSM   H15B15122   2.366   5.416   6.055  0.7073 -1.7394  1.6374
  139OSM   H15C15123   2.244   5.373   6.172  0.7252  0.6693 -0.1691
  139OSM    C1415124   2.085   5.228   6.022 -0.4145 -0.5171 -0.1667
  139OSM   H14A15125   2.069   5.188   6.122 -0.8008  1.4553  0.5846
  139OSM   H14B15126   2.057   5.159   5.944  0.6932 -0.5064 -0.5723
  139OSM   H14C15127   2.021   5.313   6.003 -1.4432 -1.5883 -1.5397
  139OSM    C1315128   2.255   5.281   5.852 -0.4878  0.1371  1.0214
  139OSM   H13A15129   2.211   5.376   5.825  0.4504 -0.1138 -1.4393
  139OSM   H13B15130   2.207   5.205   5.792 -1.5018  0.7907  0.9807
  139OSM   H13C15131   2.359   5.287   5.825 -0.2352  1.1863  2.1417
  139OSM    C1215132   2.325   5.153   6.046 -0.1751  0.4586  0.4041
  139OSM   H12A15133   2.425   5.181   6.017  0.1703 -1.6223 -0.5451
  139OSM   H12B15134   2.299   5.062   5.994  1.5359  0.1147  0.1067
  139OSM    C1115135   2.341   5.116   6.197 -0.2200  0.2250  0.0671
  139OSM   H11A15136   2.373   5.213   6.240 -0.2932 -0.2142  1.1396
  139OSM   H11B15137   2.417   5.037   6.211  2.0749  2.6013  1.4987
  139OSM      P15138   2.160   4.932   6.221 -0.2472 -0.2789  0.3775
  139OSM    O1315139   2.021   4.920   6.264 -0.2362  0.0814  0.9434
  139OSM    O1415140   2.179   4.896   6.082 -0.1105  0.2746  0.5802
  139OSM    O1115141   2.257   4.833   6.309 -0.4169 -0.3944 -0.1138
  139OSM    O1215142   2.217   5.078   6.254 -0.2238 -0.3975  0.4767
  139OSM    C1S15143   2.302   4.849   6.444 -0.2422 -0.5275  0.2112
  139OSM    H1S15144   2.321   4.955   6.471 -1.4573 -1.0114  3.1660
  139OSM    H1T15145   2.392   4.788   6.464 -1.5658 -2.2076  1.1488
  139OSM     NF15146   2.216   4.852   6.684  0.3127 -0.6402  0.5120
  139OSM    HNF15147   2.225   4.779   6.752 -1.5551 -0.9958  0.4057
  139OSM    C2S15148   2.193   4.802   6.550 -0.9166 -0.0278  0.1201
  139OSM    H2S15149   2.099   4.851   6.518 -1.3480  0.5591  2.2134
  139OSM    C3S15150   2.181   4.645   6.544 -0.0853  0.8438 -1.0500
  139OSM    H3S15151   2.276   4.600   6.581 -0.4907  0.4987 -0.4107
  139OSM     O315152   2.158   4.597   6.410 -0.4112  0.1617 -0.5631
  139OSM    HO315153   2.170   4.675   6.357  2.0452 -0.3337 -0.7750
  139OSM    C4S15154   2.072   4.602   6.639  0.7931  0.3913 -0.1750
  139OSM    H4S15155   1.976   4.656   6.632 -0.9068 -2.2776  1.9590
  139OSM    C5S15156   2.077   4.504   6.730 -0.3993  0.1598  0.0201
  139OSM    H5S15157   2.174   4.452   6.741 -1.2455 -0.9966  2.3106
  139OSM    C6S15158   1.958   4.460   6.811 -0.2525  0.4654  0.3068
  139OSM    H6S15159   1.977   4.381   6.887  2.2744 -0.4375 -1.2063
  139OSM    H6T15160   1.867   4.428   6.756 -1.1837 -0.6061  2.4101
  139OSM    C7S15161   1.890   4.572   6.887  0.1932 -0.4639 -0.2178
  139OSM    H7S15162   1.795   4.529   6.927  0.5555 -0.7565  0.3447
  139OSM    H7T15163   1.858   4.643   6.808  1.0251  0.9509  0.7006
  139OSM    C8S15164   1.968   4.652   6.986  0.0900  0.5356 -0.5470
  139OSM    H8S15165   2.033   4.732   6.944  1.9365 -1.5463 -1.7949
  139OSM    H8T15166   2.024   4.579   7.047 -1.7162 -2.0010 -1.8218
  139OSM    C9S15167   1.879   4.732   7.083 -0.4686  0.8695  0.2669
  139OSM    H9S15168   1.815   4.665   7.144  0.9901 -1.2371 -0.4468
  139OSM    H9T15169   1.807   4.799   7.030 -1.7279 -1.2396 -0.7377
  139OSM   C10S15170   1.954   4.799   7.188  0.8199  0.6491  0.0356
  139OSM   H10S15171   1.896   4.877   7.243 -3.4568 -2.0091 -0.4564
  139OSM   H10T15172   2.038   4.850   7.136  1.3236 -0.0369  0.1644
  139OSM   C11S15173   2.024   4.713   7.291  0.0602  0.1826 -0.3043
  139OSM   H11S15174   2.090   4.643   7.236 -0.1559  1.8302 -2.7690
  139OSM   H11T15175   1.951   4.658   7.355 -1.5549  2.7423  0.1163
  139OSM   C12S15176   2.101   4.792   7.387  0.0742  0.9016  0.2044
  139OSM   H12S15177   2.045   4.881   7.422  1.3707  1.6660  0.3677
  139OSM   H12T15178   2.191   4.827   7.332 -0.9187  1.2704 -1.2109
  139OSM   C13S15179   2.148   4.707   7.504  0.3503  0.9397 -0.6572
  139OSM   H13S15180   2.197   4.614   7.467 -0.4565 -0.1460  0.9963
  139OSM   H13T15181   2.071   4.679   7.578  1.9885  1.0085  1.1136
  139OSM   C14S15182   2.247   4.784   7.596 -0.2632 -0.5236  0.6437
  139OSM   H14S15183   2.185   4.862   7.644  0.2625 -0.5611  1.4066
  139OSM   H14T15184   2.323   4.839   7.537  0.6937  0.0868  2.4073
  139OSM   C15S15185   2.295   4.691   7.707 -0.5751  0.4771 -0.5739
  139OSM   H15S15186   2.377   4.633   7.659 -1.6158 -1.6422  0.1738
  139OSM   H15T15187   2.214   4.619   7.730  0.8190 -0.7204  0.7050
  139OSM   C16S15188   2.327   4.757   7.838 -0.1998  0.0658 -0.3835
  139OSM   H16S15189   2.244   4.829   7.856  1.4794  2.4612 -1.8511
  139OSM   H16T15190   2.422   4.813   7.825 -0.1974  0.7144  2.1276
  139OSM   C17S15191   2.351   4.653   7.945 -0.3779 -0.9683 -1.0570
  139OSM   H17S15192   2.416   4.571   7.907  1.7223  1.2527 -2.4041
  139OSM   H17T15193   2.259   4.606   7.984 -0.6032  0.9039  0.7233
  139OSM   C18S15194   2.401   4.708   8.082 -0.3823  0.4101  1.2775
  139OSM   H18S15195   2.492   4.764   8.050 -0.0458 -0.1022  1.3333
  139OSM   H18T15196   2.423   4.619   8.146  1.6036 -0.5130 -0.6246
  139OSM   H18U15197   2.325   4.780   8.120 -1.6090  1.4243 -2.8682
  139OSM    C1F15198   2.218   4.977   6.723  0.7175  0.0855  0.4838
  139OSM     OF15199   2.189   5.063   6.644  0.2648  0.0518 -0.3314
  139OSM    C2F15200   2.254   5.013   6.860  0.0077 -0.3341  0.0528
  139OSM    H2F15201   2.345   4.959   6.894 -0.1049 -0.9178 -0.5622
  139OSM    H2G15202   2.175   4.986   6.933  0.1683  1.5700  0.9790
  139OSM    C3F15203   2.301   5.166   6.871  0.1415  0.0919 -0.3319
  139OSM    H3F15204   2.223   5.242   6.851  0.1405  0.0355 -0.5450
  139OSM    H3G15205   2.373   5.184   6.789  0.0023 -1.8973 -0.9331
  139OSM    C4F15206   2.374   5.202   7.006 -0.4585 -0.2191 -0.2507
  139OSM    H4F15207   2.393   5.311   7.001  0.4783 -0.3940 -0.6747
  139OSM    H4G15208   2.466   5.139   7.016 -0.0385  0.4657  0.1860
  139OSM    C5F15209   2.283   5.176   7.130  0.4205 -0.1087  0.3876
  139OSM    H5F15210   2.261   5.068   7.144  0.9353 -0.1680  0.7555
  139OSM    H5G15211   2.191   5.230   7.102  0.4423 -0.8741 -1.2127
  139OSM    C6F15212   2.343   5.233   7.264  0.4251 -0.4212  0.4530
  139OSM    H6F15213   2.344   5.344   7.255 -0.2793 -0.4806 -0.4023
  139OSM    H6G15214   2.448   5.200   7.276 -0.2222 -1.9772  1.9805
  139OSM    C7F15215   2.259   5.190   7.383 -0.2922 -0.2292 -0.0009
  139OSM    H7F15216   2.264   5.079   7.383  2.0248 -0.1382 -0.6193
  139OSM    H7G15217   2.152   5.210   7.360 -0.4703  0.0076  1.0095
  139OSM    C8F15218   2.298   5.264   7.511 -0.1550 -0.4076 -0.3495
  139OSM    H8F15219   2.288   5.374   7.497  0.2981 -0.4635 -1.1881
  139OSM    H8G15220   2.404   5.240   7.535 -0.9751 -0.8016  3.1268
  139OSM    C9F15221   2.200   5.214   7.611 -0.2458 -0.5692 -0.3932
  139OSM    H9F15222   2.096   5.204   7.577  0.4693  2.2426 -3.6491
  139OSM   C10F15223   2.224   5.176   7.734 -0.1219  0.8430  0.4350
  139OSM   H10F15224   2.137   5.142   7.793  1.8460 -0.2563  2.8127
  139OSM   C11F15225   2.356   5.162   7.810  0.0083 -0.2780 -0.1553
  139OSM   H11F15226   2.441   5.212   7.760 -0.0068 -1.4522 -1.3907
  139OSM   H11G15227   2.383   5.054   7.808  1.6821  0.0551  2.7661
  139OSM   C12F15228   2.346   5.203   7.960 -0.4381 -0.3781  0.3459
  139OSM   H12F15229   2.247   5.188   8.008  0.4644 -0.1218  2.3376
  139OSM   H12G15230   2.355   5.314   7.956 -1.6781 -0.1990  2.1896
  139OSM   C13F15231   2.475   5.154   8.024  0.4555  0.6351 -0.0549
  139OSM   H13F15232   2.563   5.157   7.956 -2.5766  1.3906 -4.2087
  139OSM   H13G15233   2.458   5.044   8.032 -2.0363  1.0552  0.8144
  139OSM   C14F15234   2.498   5.202   8.167 -0.0065 -0.8864 -0.6615
  139OSM   H14F15235   2.526   5.309   8.177 -0.1322 -1.0466  1.7418
  139OSM   H14G15236   2.595   5.163   8.207 -0.0950 -0.4684 -0.0248
  139OSM   C15F15237   2.370   5.165   8.266  0.1041  0.0464 -0.0707
  139OSM   H15F15238   2.278   5.222   8.242  0.6961  0.7639 -0.6730
  139OSM   H15G15239   2.403   5.192   8.368  2.2561  0.8709 -0.9484
  139OSM   C16F15240   2.329   5.019   8.276 -0.2438  0.4453 -0.2211
  139OSM   H16F15241   2.416   4.956   8.301  0.6291  0.7390 -2.3940
  139OSM   H16G15242   2.282   4.996   8.178  2.1065 -1.8105 -0.8659
  139OSM   C17F15243   2.228   4.993   8.394  0.4844  1.1105 -0.0387
  139OSM   H17F15244   2.129   5.037   8.371 -0.4624 -1.5771 -1.2238
  139OSM   H17G15245   2.263   5.049   8.484  1.3030 -1.0663  1.0108
  139OSM   C18F15246   2.212   4.848   8.424  0.7375  0.1934  0.5041
  139OSM   H18F15247   2.173   4.821   8.524  1.5277 -1.4058  0.3927
  139OSM   H18G15248   2.306   4.792   8.403 -0.1935 -0.7813 -1.1363
  139OSM   H18H15249   2.137   4.801   8.357  2.3092  0.7455 -1.7044
  140OSM      N15250   2.243   6.074   6.397  1.0259 -0.1184  0.1417
  140OSM    C1515251   2.198   6.161   6.510 -0.2170 -0.2998 -0.1724
  140OSM   H15A15252   2.151   6.251   6.473 -1.0927 -1.2079 -1.2784
  140OSM   H15B15253   2.279   6.188   6.576 -0.4975 -0.2603  0.1537
  140OSM   H15C15254   2.130   6.099   6.566  0.2850 -1.9248 -1.3411
  140OSM    C1415255   2.326   5.963   6.451  0.5843 -0.5942  1.4193
  140OSM   H14A15256   2.429   5.989   6.472  0.6482 -1.2791  1.9613
  140OSM   H14B15257   2.336   5.886   6.376 -0.3883 -0.4012  1.0801
  140OSM   H14C15258   2.279   5.938   6.545  0.3400  0.4527  1.5797
  140OSM    C1315259   2.125   6.005   6.340  0.1071 -0.3121  0.4153
  140OSM   H13A15260   2.067   5.950   6.413  0.8339 -2.1776 -0.3797
  140OSM   H13B15261   2.163   5.940   6.263  0.2473 -1.7937  1.7227
  140OSM   H13C15262   2.057   6.076   6.295 -0.3983 -0.6884  0.5792
  140OSM    C1215263   2.318   6.149   6.290 -0.5946 -0.9736 -0.7487
  140OSM   H12A15264   2.256   6.226   6.246  1.0554  0.0948 -1.2555
  140OSM   H12B15265   2.343   6.083   6.208 -1.8770 -3.8907  1.1331
  140OSM    C1115266   2.454   6.220   6.322  0.0225 -0.1594  0.6362
  140OSM   H11A15267   2.495   6.265   6.229 -0.8350  1.2065  0.9034
  140OSM   H11B15268   2.527   6.143   6.356  0.3180 -0.3617 -0.4524
  140OSM      P15269   2.397   6.457   6.408 -0.0946 -0.2529 -0.2974
  140OSM    O1315270   2.453   6.507   6.281 -0.6093 -0.1297 -0.7649
  140OSM    O1415271   2.246   6.456   6.412  0.2444 -0.0847 -0.1503
  140OSM    O1115272   2.434   6.547   6.530 -0.2525  0.4601  0.7194
  140OSM    O1215273   2.447   6.311   6.437  0.2722  0.5851 -0.5792
  140OSM    C1S15274   2.577   6.574   6.553 -0.2226  0.0706 -0.4907
  140OSM    H1S15275   2.593   6.671   6.503 -0.9317  0.8176  0.7213
  140OSM    H1T15276   2.643   6.497   6.507 -0.3242  0.6936 -1.7034
  140OSM     NF15277   2.737   6.649   6.722  0.0870  0.1705 -0.1781
  140OSM    HNF15278   2.796   6.598   6.784  0.1943  2.3011  1.5221
  140OSM    C2S15279   2.607   6.590   6.701 -0.3316  0.0032 -0.3629
  140OSM    H2S15280   2.525   6.655   6.741  0.1572  0.2200  0.2951
  140OSM    C3S15281   2.596   6.451   6.778 -0.3510  0.4702 -0.1188
  140OSM    H3S15282   2.685   6.393   6.745  1.4571  3.1233 -0.0299
  140OSM     O315283   2.483   6.367   6.747  0.2503  0.4055  0.4854
  140OSM    HO315284   2.426   6.430   6.703  0.6886  0.0939 -0.5592
  140OSM    C4S15285   2.602   6.483   6.927 -0.2556 -0.0873  0.9376
  140OSM    H4S15286   2.709   6.483   6.953 -0.3399 -0.3563  1.2819
  140OSM    C5S15287   2.500   6.518   7.010  0.4915  0.3545 -0.0055
  140OSM    H5S15288   2.399   6.534   6.969  0.0351  0.2511  1.0638
  140OSM    C6S15289   2.507   6.565   7.150 -1.0133 -0.4810 -0.0023
  140OSM    H6S15290   2.432   6.509   7.210 -2.4897 -0.9085 -2.1936
  140OSM    H6T15291   2.471   6.670   7.149 -0.7837 -0.4060 -0.4775
  140OSM    C7S15292   2.653   6.564   7.218  0.1520 -0.0444  0.6253
  140OSM    H7S15293   2.713   6.619   7.142 -1.0407 -0.8729 -0.9633
  140OSM    H7T15294   2.697   6.461   7.215 -1.8350 -0.9123  0.3669
  140OSM    C8S15295   2.657   6.628   7.354  0.3837 -0.3123  0.8506
  140OSM    H8S15296   2.569   6.590   7.410 -1.0326  2.4139  0.5927
  140OSM    H8T15297   2.634   6.737   7.355 -0.1776 -0.3920 -1.5134
  140OSM    C9S15298   2.785   6.627   7.438 -0.9306 -0.0468  0.6241
  140OSM    H9S15299   2.863   6.673   7.375 -0.6920 -1.3809 -0.0606
  140OSM    H9T15300   2.812   6.521   7.459  0.9373  0.0354 -1.2516
  140OSM   C10S15301   2.783   6.698   7.578 -0.2075  0.1062  0.2748
  140OSM   H10S15302   2.706   6.776   7.561  0.3785  0.8443  0.9908
  140OSM   H10T15303   2.881   6.749   7.588 -1.1176  1.6880  1.3589
  140OSM   C11S15304   2.738   6.598   7.689  0.4921 -0.0962  0.5831
  140OSM   H11S15305   2.786   6.625   7.786 -0.0833  0.6495  0.6686
  140OSM   H11T15306   2.778   6.498   7.661 -1.9706 -0.4924 -1.7442
  140OSM   C12S15307   2.580   6.598   7.708  0.2430 -0.0373 -0.1483
  140OSM   H12S15308   2.532   6.549   7.620  2.4689 -0.6351 -1.0554
  140OSM   H12T15309   2.535   6.699   7.722 -1.5072 -0.6855 -0.8911
  140OSM   C13S15310   2.542   6.530   7.841  0.4895  0.3403 -0.8813
  140OSM   H13S15311   2.601   6.436   7.850  0.7475  0.4452 -1.4514
  140OSM   H13T15312   2.442   6.482   7.831  1.1850 -1.5980  0.8810
  140OSM   C14S15313   2.553   6.621   7.969  0.4307 -0.4787  0.1206
  140OSM   H14S15314   2.491   6.713   7.963  0.6937 -0.2918  0.2559
  140OSM   H14T15315   2.661   6.646   7.973 -0.0003  1.4834  0.2204
  140OSM   C15S15316   2.527   6.533   8.096 -0.1029  0.3418  0.0740
  140OSM   H15S15317   2.574   6.433   8.087 -1.2822 -0.1962 -0.2004
  140OSM   H15T15318   2.417   6.516   8.101 -0.0227 -1.1008 -2.4357
  140OSM   C16S15319   2.559   6.597   8.231 -0.7953  0.4139  0.4312
  140OSM   H16S15320   2.527   6.532   8.315 -1.5259  0.2916  0.0617
  140OSM   H16T15321   2.494   6.687   8.226 -0.5939  0.4692 -1.5582
  140OSM   C17S15322   2.711   6.644   8.250  0.2186  0.4097  0.2611
  140OSM   H17S15323   2.723   6.739   8.195  0.7460  0.1201 -0.1280
  140OSM   H17T15324   2.781   6.574   8.199  0.6444  1.1936 -0.2335
  140OSM   C18S15325   2.759   6.665   8.391  0.2087 -0.2183 -0.0354
  140OSM   H18S15326   2.859   6.711   8.401 -0.3131  0.7323  1.0264
  140OSM   H18T15327   2.760   6.574   8.454  0.9649 -0.4273 -0.3461
  140OSM   H18U15328   2.685   6.729   8.445 -0.6276 -1.3464  0.1812
  140OSM    C1F15329   2.780   6.768   6.681  0.3211 -0.9690 -1.0061
  140OSM     OF15330   2.706   6.852   6.632 -0.2498 -0.1938 -0.1896
  140OSM    C2F15331   2.926   6.793   6.709 -0.2634 -0.2366  0.2188
  140OSM    H2F15332   2.971   6.877   6.651 -0.7736  1.1512  1.7795
  140OSM    H2G15333   2.977   6.698   6.684 -1.2281 -0.8357  0.4822
  140OSM    C3F15334   2.948   6.835   6.855 -0.2941 -0.0090 -0.3701
  140OSM    H3F15335   2.895   6.760   6.918  0.6221 -1.3175 -1.1230
  140OSM    H3G15336   2.906   6.937   6.867  0.8114  0.1648  2.1353
  140OSM    C4F15337   3.092   6.833   6.894  0.6906 -0.3856 -0.3870
  140OSM    H4F15338   3.159   6.887   6.823  0.5920 -1.4706 -1.3107
  140OSM    H4G15339   3.096   6.723   6.885 -0.5296 -0.4596 -0.0783
  140OSM    C5F15340   3.129   6.878   7.039 -1.1630  0.4905 -0.1343
  140OSM    H5F15341   3.115   6.988   7.047  2.4293  1.0014  0.0531
  140OSM    H5G15342   3.236   6.853   7.058 -1.0141  1.0292 -0.2632
  140OSM    C6F15343   3.038   6.810   7.142  0.1050 -0.3806 -0.1454
  140OSM    H6F15344   3.042   6.700   7.126  1.5096 -0.4397  0.6252
  140OSM    H6G15345   2.932   6.844   7.137 -0.1557 -0.9237  1.4575
  140OSM    C7F15346   3.071   6.844   7.292 -0.0721  0.4083 -0.1427
  140OSM    H7F15347   2.979   6.841   7.355  0.6607  2.2072  1.0859
  140OSM    H7G15348   3.123   6.943   7.290  0.3472  0.1785 -0.6750
  140OSM    C8F15349   3.183   6.747   7.347 -0.0433  0.2509 -0.2880
  140OSM    H8F15350   3.260   6.806   7.402  1.8037 -0.6416 -1.8422
  140OSM    H8G15351   3.243   6.705   7.264  0.0451 -0.8230  0.3121
  140OSM    C9F15352   3.126   6.629   7.426  0.1196  0.5043 -0.0829
  140OSM    H9F15353   3.068   6.558   7.366  0.5609 -0.6812  0.8781
  140OSM   C10F15354   3.148   6.594   7.552 -0.9267  0.0370 -0.1977
  140OSM   H10F15355   3.087   6.510   7.586 -0.0256 -0.2020  0.8679
  140OSM   C11F15356   3.221   6.681   7.656  0.1832  0.2307 -0.6474
  140OSM   H11F15357   3.245   6.784   7.622  1.1596  0.8243  1.7679
  140OSM   H11G15358   3.316   6.631   7.686 -0.3021 -0.5659 -0.4025
  140OSM   C12F15359   3.145   6.679   7.792 -0.0735  0.3973  0.7834
  140OSM   H12F15360   3.117   6.574   7.818  1.4076 -0.1867  0.1237
  140OSM   H12G15361   3.049   6.734   7.787 -0.5601 -0.3468  1.7128
  140OSM   C13F15362   3.227   6.735   7.908  0.6117  0.3211  0.0710
  140OSM   H13F15363   3.288   6.815   7.861 -0.0587  0.4690 -0.5431
  140OSM   H13G15364   3.307   6.665   7.941  0.5320  1.1598  2.1514
  140OSM   C14F15365   3.140   6.781   8.024 -0.5976 -0.4370  0.6976
  140OSM   H14F15366   3.067   6.854   7.983  0.5788 -0.0767 -0.7744
  140OSM   H14G15367   3.196   6.841   8.099  0.2574 -0.6121  0.1987
  140OSM   C15F15368   3.058   6.675   8.097 -0.5459  0.7718 -0.6750
  140OSM   H15F15369   2.986   6.627   8.029 -3.5193  2.2790  1.2918
  140OSM   H15G15370   2.990   6.732   8.164 -0.2214  1.7565 -1.1724
  140OSM   C16F15371   3.141   6.580   8.176 -0.4536  0.3825 -0.0822
  140OSM   H16F15372   3.204   6.639   8.247 -0.9695 -1.5683  2.0685
  140OSM   H16G15373   3.212   6.516   8.120  0.8810  2.6528 -1.0665
  140OSM   C17F15374   3.058   6.480   8.262  0.3733 -0.2481  0.3416
  140OSM   H17F15375   2.981   6.434   8.196 -0.5705 -0.0256  1.2714
  140OSM   H17G15376   2.996   6.533   8.337  1.3219 -1.2019  1.8222
  140OSM   C18F15377   3.139   6.374   8.337 -0.3877  0.8317  0.2803
  140OSM   H18F15378   3.207   6.420   8.412 -2.2112  0.5943  2.1426
  140OSM   H18G15379   3.213   6.329   8.268 -0.5741  0.0410  0.5819
  140OSM   H18H15380   3.067   6.309   8.393 -0.6870  0.9856  0.0732
  141OSM      N15381   1.937   2.217   6.123  0.6195 -0.1048 -0.7303
  141OSM    C1515382   2.061   2.254   6.063  0.2992  0.0625 -0.2933
  141OSM   H15A15383   2.059   2.283   5.959  0.4568 -0.9509 -0.5930
  141OSM   H15B15384   2.127   2.168   6.056 -0.0710 -0.2189 -0.3521
  141OSM   H15C15385   2.123   2.315   6.127  1.4116  0.9901 -2.2000
  141OSM    C1415386   1.852   2.342   6.115 -0.4902  0.6322 -0.2813
  141OSM   H14A15387   1.750   2.318   6.139  0.4995 -3.3056  0.4910
  141OSM   H14B15388   1.849   2.379   6.014  0.2745 -0.4378 -0.7090
  141OSM   H14C15389   1.886   2.425   6.175  0.1038  0.6641 -0.6531
  141OSM    C1315390   1.869   2.113   6.047 -0.4579  0.6471  0.0655
  141OSM   H13A15391   1.926   2.024   6.025 -1.8694 -0.0551 -0.8431
  141OSM   H13B15392   1.837   2.134   5.946 -0.8607 -3.9422 -0.8474
  141OSM   H13C15393   1.781   2.073   6.095 -1.1297  2.0546  0.0536
  141OSM    C1215394   1.949   2.185   6.278 -0.4463 -0.1371  0.8233
  141OSM   H12A15395   1.852   2.142   6.300  0.3017 -2.5843 -0.4174
  141OSM   H12B15396   1.965   2.273   6.338  3.2812  0.6692 -1.1942
  141OSM    C1115397   2.056   2.080   6.330 -0.9727 -0.5985  0.4381
  141OSM   H11A15398   2.053   2.070   6.440 -0.7487 -0.3485  0.4682
  141OSM   H11B15399   2.154   2.127   6.310 -0.2501 -2.1398  0.2651
  141OSM      P15400   2.159   1.883   6.183 -0.1386  0.1370  0.0722
  141OSM    O1315401   2.098   1.894   6.048 -0.0679  0.5887  0.1693
  141OSM    O1415402   2.295   1.940   6.200 -0.1579 -0.2155  0.2258
  141OSM    O1115403   2.153   1.733   6.229  0.0793  0.1442 -0.0462
  141OSM    O1215404   2.047   1.947   6.272 -0.8989 -0.3550 -0.4325
  141OSM    C1S15405   2.201   1.702   6.359  0.1175 -0.0250  0.6413
  141OSM    H1S15406   2.293   1.759   6.386  0.5329  1.1637 -3.0696
  141OSM    H1T15407   2.227   1.594   6.347  0.1404 -0.1139  1.4297
  141OSM     NF15408   2.156   1.699   6.599  0.4265  0.3757 -1.0691
  141OSM    HNF15409   2.140   1.613   6.647 -0.5658  1.4228  0.5352
  141OSM    C2S15410   2.094   1.710   6.470 -0.0465 -0.5255  0.0977
  141OSM    H2S15411   2.054   1.813   6.459 -0.1100 -0.7740 -2.4738
  141OSM    C3S15412   1.980   1.616   6.446 -0.4254  0.5057  0.3003
  141OSM    H3S15413   2.010   1.509   6.445 -2.2528 -0.0169  0.6843
  141OSM     O315414   1.927   1.621   6.310 -0.2544 -0.5641 -0.0678
  141OSM    HO315415   1.999   1.667   6.266 -1.0254  0.2435 -0.4855
  141OSM    C4S15416   1.867   1.642   6.547  0.1458 -0.0529  0.0941
  141OSM    H4S15417   1.830   1.743   6.569  0.2913 -0.2021  1.0460
  141OSM    C5S15418   1.807   1.531   6.605 -0.5861 -0.1600 -0.7835
  141OSM    H5S15419   1.848   1.432   6.579  1.1346  0.5894 -0.9754
  141OSM    C6S15420   1.690   1.549   6.709  0.1381  0.0363 -0.4541
  141OSM    H6S15421   1.597   1.495   6.682 -1.9790  2.8118  1.1805
  141OSM    H6T15422   1.663   1.656   6.700  0.3838  0.0219 -1.4513
  141OSM    C7S15423   1.738   1.533   6.863  0.4577 -0.4316 -0.3200
  141OSM    H7S15424   1.811   1.616   6.875  0.7661 -0.8757  1.0470
  141OSM    H7T15425   1.786   1.435   6.885  1.2062  0.3200  1.5029
  141OSM    C8S15426   1.628   1.570   6.970 -0.1146  0.4481 -0.1856
  141OSM    H8S15427   1.538   1.508   6.949 -0.4722  1.2242 -0.9431
  141OSM    H8T15428   1.588   1.672   6.957 -0.0597  0.6818  1.3582
  141OSM    C9S15429   1.683   1.553   7.112 -0.0331  0.5995 -0.2244
  141OSM    H9S15430   1.783   1.602   7.116 -0.0851  0.8120 -1.2174
  141OSM    H9T15431   1.697   1.444   7.129 -0.0972  0.7266  0.6437
  141OSM   C10S15432   1.601   1.640   7.208  0.5592  0.2252 -0.6775
  141OSM   H10S15433   1.495   1.608   7.199  0.5153 -0.0700  0.7050
  141OSM   H10T15434   1.613   1.741   7.164  0.7007 -0.2584 -1.7612
  141OSM   C11S15435   1.636   1.626   7.359  0.2197 -0.4440  0.8413
  141OSM   H11S15436   1.654   1.519   7.382  3.7903  0.2440  1.6144
  141OSM   H11T15437   1.546   1.650   7.419 -1.0021 -0.2122 -1.0462
  141OSM   C12S15438   1.752   1.718   7.407  0.0984 -0.3445  0.5016
  141OSM   H12S15439   1.708   1.820   7.397  2.0822  0.4556 -0.2609
  141OSM   H12T15440   1.840   1.697   7.342  1.2168  0.0535  1.8701
  141OSM   C13S15441   1.777   1.714   7.558 -0.0228 -0.4086 -0.2964
  141OSM   H13S15442   1.818   1.814   7.586  1.0671 -0.9309 -0.0127
  141OSM   H13T15443   1.861   1.646   7.585  0.0981  0.3267  1.2484
  141OSM   C14S15444   1.659   1.666   7.643  0.5659  0.5261 -0.2301
  141OSM   H14S15445   1.636   1.561   7.615 -1.1369  1.3115 -1.9425
  141OSM   H14T15446   1.570   1.728   7.615 -0.2363 -0.7520 -0.5274
  141OSM   C15S15447   1.703   1.671   7.796  0.0466  0.5976 -0.2329
  141OSM   H15S15448   1.725   1.776   7.824 -1.8463  0.9805 -0.1275
  141OSM   H15T15449   1.802   1.622   7.806 -1.3307 -2.2979 -0.2872
  141OSM   C16S15450   1.602   1.620   7.892 -0.1422 -0.0427 -0.4752
  141OSM   H16S15451   1.592   1.512   7.867 -0.6811 -0.0028 -0.4424
  141OSM   H16T15452   1.506   1.673   7.876  0.2397  0.9577  0.4700
  141OSM   C17S15453   1.655   1.629   8.038  0.5449 -0.1181 -0.3178
  141OSM   H17S15454   1.676   1.737   8.056  0.3535  0.0155 -0.8861
  141OSM   H17T15455   1.758   1.586   8.042  3.1385  5.4390 -1.7472
  141OSM   C18S15456   1.572   1.561   8.135 -0.3293 -0.0740 -1.0777
  141OSM   H18S15457   1.618   1.567   8.237  0.6623 -2.3970 -1.3633
  141OSM   H18T15458   1.555   1.454   8.110  2.4787 -1.0105  0.7313
  141OSM   H18U15459   1.478   1.620   8.142  0.1652  0.4678  1.5992
  141OSM    C1F15460   2.239   1.787   6.647 -0.1968  0.1690 -0.2169
  141OSM     OF15461   2.252   1.901   6.599  0.1384  0.4116 -0.4288
  141OSM    C2F15462   2.313   1.741   6.776  0.5281  0.4868  0.2715
  141OSM    H2F15463   2.387   1.660   6.762 -1.1647 -1.3410  1.5779
  141OSM    H2G15464   2.237   1.702   6.847  0.0444 -0.4371 -0.7372
  141OSM    C3F15465   2.397   1.859   6.841 -0.0765  0.6190  0.1264
  141OSM    H3F15466   2.330   1.947   6.851 -1.9679 -0.8670  0.9038
  141OSM    H3G15467   2.488   1.885   6.784 -0.9285 -0.4724 -1.8149
  141OSM    C4F15468   2.469   1.819   6.975  0.4482 -0.1801 -1.0052
  141OSM    H4F15469   2.558   1.877   7.009 -1.2703  0.0328  3.4745
  141OSM    H4G15470   2.509   1.717   6.955  1.2090  0.0034 -0.4612
  141OSM    C5F15471   2.371   1.830   7.089  0.7612 -0.3226 -0.2825
  141OSM    H5F15472   2.286   1.765   7.059 -0.4548  1.0768  0.0750
  141OSM    H5G15473   2.338   1.936   7.093  0.2897 -0.3097 -3.3275
  141OSM    C6F15474   2.411   1.773   7.221 -0.1853  0.5324 -0.6707
  141OSM    H6F15475   2.500   1.833   7.251 -1.3603  1.8957  0.1304
  141OSM    H6G15476   2.420   1.663   7.221 -1.2410  0.4379 -1.7324
  141OSM    C7F15477   2.296   1.817   7.313  0.7726  0.2371  0.1765
  141OSM    H7F15478   2.200   1.778   7.273 -0.9794  0.5354  3.8496
  141OSM    H7G15479   2.276   1.926   7.309 -2.0182 -0.2147  0.5258
  141OSM    C8F15480   2.296   1.780   7.464 -0.0182  0.3584 -0.0465
  141OSM    H8F15481   2.385   1.841   7.493  1.3963 -1.1083 -1.1893
  141OSM    H8G15482   2.340   1.678   7.465 -0.8915 -0.0161  1.3385
  141OSM    C9F15483   2.179   1.804   7.554  0.4215 -0.9831  0.8009
  141OSM    H9F15484   2.105   1.881   7.528 -0.8659 -2.4811 -0.0392
  141OSM   C10F15485   2.151   1.741   7.665 -0.4364 -0.3770 -0.5118
  141OSM   H10F15486   2.071   1.775   7.732  0.7010  2.1015 -0.3535
  141OSM   C11F15487   2.223   1.621   7.717 -0.5268 -0.4830 -0.5106
  141OSM   H11F15488   2.329   1.635   7.686 -0.5865 -1.1818 -1.0492
  141OSM   H11G15489   2.181   1.538   7.656 -1.9167 -1.1747  1.3400
  141OSM   C12F15490   2.213   1.603   7.869 -0.7067 -0.1452  0.2209
  141OSM   H12F15491   2.274   1.518   7.905 -1.1312  0.4310  2.3939
  141OSM   H12G15492   2.108   1.583   7.901 -0.9224 -0.4936 -0.7112
  141OSM   C13F15493   2.267   1.726   7.947  0.4562  0.4813  0.0965
  141OSM   H13F15494   2.232   1.825   7.909 -0.9603 -0.2959 -0.6767
  141OSM   H13G15495   2.378   1.724   7.938  0.6203  1.3321  1.8001
  141OSM   C14F15496   2.240   1.702   8.097 -0.1121 -0.3588 -0.4090
  141OSM   H14F15497   2.307   1.620   8.131  0.1156 -0.4521 -1.0706
  141OSM   H14G15498   2.133   1.685   8.122 -0.1459 -0.8835 -0.9021
  141OSM   C15F15499   2.291   1.821   8.184 -0.7177 -0.3894  0.2372
  141OSM   H15F15500   2.240   1.909   8.141  0.1344  1.8294  3.5799
  141OSM   H15G15501   2.397   1.848   8.163 -1.5135  2.2582 -0.5439
  141OSM   C16F15502   2.262   1.808   8.339 -0.8841 -0.0046  0.4549
  141OSM   H16F15503   2.323   1.729   8.387  0.9317  1.9168  1.3453
  141OSM   H16G15504   2.154   1.782   8.347 -1.2153  1.2187 -0.0863
  141OSM   C17F15505   2.272   1.939   8.410  0.3571 -0.0982  0.2925
  141OSM   H17F15506   2.209   2.018   8.363 -2.3902 -1.4084  1.6207
  141OSM   H17G15507   2.376   1.974   8.391  0.3360 -1.4964 -2.6660
  141OSM   C18F15508   2.217   1.937   8.557  0.8910  0.0213  0.0970
  141OSM   H18F15509   2.110   1.911   8.548  1.3011 -0.6254 -3.8223
  141OSM   H18G15510   2.234   2.036   8.606 -0.2974 -0.3824  1.3500
  141OSM   H18H15511   2.275   1.862   8.615  2.1318 -0.3246 -1.5614
  142OSM      N15512   2.309   2.967   6.000  0.4041 -0.1553 -0.3967
  142OSM    C1515513   2.301   2.883   5.881  0.2802  0.0963 -0.0770
  142OSM   H15A15514   2.310   2.779   5.907  1.9866 -0.3767 -2.4056
  142OSM   H15B15515   2.385   2.896   5.814 -0.9048 -0.6460 -1.7579
  142OSM   H15C15516   2.211   2.907   5.826  1.1448  1.4772 -0.9145
  142OSM    C1415517   2.438   2.928   6.072 -0.4265 -0.1600 -0.5232
  142OSM   H14A15518   2.524   2.943   6.008  0.0603  0.1581  0.2008
  142OSM   H14B15519   2.431   2.823   6.094 -2.0600 -0.5601 -2.7454
  142OSM   H14C15520   2.464   2.991   6.156  1.6720  0.1581 -1.3782
  142OSM    C1315521   2.321   3.111   5.948 -0.3337  0.6195  0.4015
  142OSM   H13A15522   2.240   3.128   5.880  0.8838  2.6041 -0.5937
  142OSM   H13B15523   2.418   3.133   5.905 -1.4662  0.7113 -2.1696
  142OSM   H13C15524   2.305   3.172   6.036 -0.0189  2.0180 -0.4911
  142OSM    C1215525   2.183   2.948   6.090  0.0167  0.3203  0.4373
  142OSM   H12A15526   2.180   2.844   6.118  0.7421 -0.1712 -1.2225
  142OSM   H12B15527   2.092   2.970   6.035  1.0962 -3.2393 -3.0138
  142OSM    C1115528   2.191   3.028   6.224  0.1750 -0.2248 -0.5254
  142OSM   H11A15529   2.293   3.009   6.264 -0.5006  0.2232  1.4550
  142OSM   H11B15530   2.115   2.986   6.294 -0.0555  0.1455 -0.5475
  142OSM      P15531   2.050   3.243   6.209 -0.2729  0.5176 -0.6699
  142OSM    O1315532   2.064   3.382   6.157 -0.0853 -0.2371  0.1990
  142OSM    O1415533   1.940   3.159   6.162 -0.3844  0.3352  0.1574
  142OSM    O1115534   2.036   3.244   6.364  0.4816  0.0719 -0.3393
  142OSM    O1215535   2.190   3.171   6.199  0.8407  0.1196  0.4896
  142OSM    C1S15536   2.145   3.288   6.454  0.0234  0.2229 -0.0851
  142OSM    H1S15537   2.190   3.383   6.419 -1.1948  0.4873 -1.0003
  142OSM    H1T15538   2.229   3.217   6.466 -1.4462 -1.6201 -0.3834
  142OSM     NF15539   2.204   3.403   6.672  0.0145  0.0709 -1.0898
  142OSM    HNF15540   2.255   3.374   6.752 -1.2543 -1.5061 -0.8284
  142OSM    C2S15541   2.098   3.322   6.605 -0.3217 -0.3397 -0.0778
  142OSM    H2S15542   2.016   3.396   6.596 -1.2270 -1.2564  0.6425
  142OSM    C3S15543   2.071   3.193   6.683  0.6273 -0.0002 -0.0049
  142OSM    H3S15544   2.165   3.146   6.716  0.0610 -1.7656 -0.8387
  142OSM     O315545   1.997   3.102   6.601 -0.1852  0.0351  0.3593
  142OSM    HO315546   2.021   3.134   6.514 -0.6076  0.1661  0.2909
  142OSM    C4S15547   1.996   3.230   6.807  0.3048  0.5120 -0.0874
  142OSM    H4S15548   1.908   3.291   6.781  1.7420  2.4124 -0.6238
  142OSM    C5S15549   2.018   3.208   6.934 -0.0769  0.2913 -0.0292
  142OSM    H5S15550   2.108   3.149   6.958 -0.2477  0.0356 -0.0192
  142OSM    C6S15551   1.936   3.242   7.050  0.1673 -0.6181 -0.2332
  142OSM    H6S15552   1.897   3.152   7.102 -0.7592 -1.6486 -2.6451
  142OSM    H6T15553   1.854   3.315   7.032  1.6836  1.3553  0.7574
  142OSM    C7S15554   2.026   3.320   7.145 -0.2167  0.3912  0.3481
  142OSM    H7S15555   2.067   3.411   7.095  0.8328 -0.3677 -0.2024
  142OSM    H7T15556   2.118   3.258   7.159  0.0718 -0.3134 -3.9142
  142OSM    C8S15557   1.967   3.355   7.280  0.3015 -0.3532  0.2296
  142OSM    H8S15558   1.941   3.260   7.331  3.0675 -0.5605  1.2885
  142OSM    H8T15559   1.877   3.420   7.268  0.4882 -0.3550 -1.2239
  142OSM    C9S15560   2.063   3.435   7.376  0.5996  0.1523  0.4258
  142OSM    H9S15561   2.009   3.480   7.462 -0.9739  4.2220 -2.5084
  142OSM    H9T15562   2.104   3.514   7.309 -0.3298 -0.6680 -1.1480
  142OSM   C10S15563   2.168   3.339   7.435  0.8980  0.5005  0.1269
  142OSM   H10S15564   2.244   3.319   7.356  0.9419  1.2504 -0.0319
  142OSM   H10T15565   2.116   3.243   7.452  0.9225  0.2897 -0.9809
  142OSM   C11S15566   2.233   3.397   7.561 -0.1010  0.3836  0.3002
  142OSM   H11S15567   2.152   3.445   7.619 -2.9926 -0.4011 -2.9116
  142OSM   H11T15568   2.296   3.484   7.533 -0.6374  0.8525  0.5630
  142OSM   C12S15569   2.304   3.300   7.651 -0.5012  0.4368  0.1905
  142OSM   H12S15570   2.409   3.289   7.617 -0.3350  0.1671  0.7934
  142OSM   H12T15571   2.265   3.196   7.646  0.0126  0.2740 -0.5108
  142OSM   C13S15572   2.298   3.349   7.804  0.2688 -0.2802  0.2412
  142OSM   H13S15573   2.191   3.359   7.833 -1.0621 -2.5639 -3.5763
  142OSM   H13T15574   2.339   3.452   7.802  0.4037 -0.3567 -2.0586
  142OSM   C14S15575   2.379   3.269   7.905 -0.1579  0.4248  1.0037
  142OSM   H14S15576   2.485   3.260   7.874 -1.0832 -2.7590 -1.4710
  142OSM   H14T15577   2.342   3.164   7.899  1.8180 -0.1892 -0.9333
  142OSM   C15S15578   2.370   3.335   8.039 -1.0881  0.0946  0.1033
  142OSM   H15S15579   2.267   3.352   8.077 -0.9502  1.1353  0.0293
  142OSM   H15T15580   2.440   3.421   8.031  0.5837 -0.8980  3.2066
  142OSM   C16S15581   2.443   3.252   8.149 -0.5659  0.1780 -0.0220
  142OSM   H16S15582   2.388   3.163   8.187  0.0453  0.6847  2.0582
  142OSM   H16T15583   2.452   3.318   8.237  1.3082 -1.5072  1.0723
  142OSM   C17S15584   2.598   3.227   8.121  0.1894  0.2924 -0.6843
  142OSM   H17S15585   2.643   3.310   8.062 -0.8409  2.0121  0.8754
  142OSM   H17T15586   2.593   3.142   8.051 -1.6235 -0.6490  0.5243
  142OSM   C18S15587   2.666   3.201   8.257  0.5188  0.3652  0.1911
  142OSM   H18S15588   2.697   3.293   8.310 -0.3802  0.5313  0.4362
  142OSM   H18T15589   2.766   3.152   8.255  0.7049  0.7155  0.6135
  142OSM   H18U15590   2.607   3.151   8.337  0.0170  1.2473  0.3770
  142OSM    C1F15591   2.245   3.524   6.641 -0.4395 -0.0153  0.1732
  142OSM     OF15592   2.178   3.595   6.567  0.9710  0.2086 -0.2075
  142OSM    C2F15593   2.365   3.577   6.703  0.0815 -0.2837  0.1310
  142OSM    H2F15594   2.397   3.670   6.652 -1.3463  0.1214 -0.0708
  142OSM    H2G15595   2.446   3.501   6.711  3.5820  3.2467 -0.2921
  142OSM    C3F15596   2.337   3.622   6.846 -0.2970  0.3961 -0.1186
  142OSM    H3F15597   2.295   3.539   6.907  2.0943 -0.3104  0.6326
  142OSM    H3G15598   2.252   3.693   6.838 -1.6378 -1.1008  0.4089
  142OSM    C4F15599   2.455   3.695   6.916 -0.2263  0.0203  1.0496
  142OSM    H4F15600   2.471   3.793   6.866  0.8332 -0.2186  0.9029
  142OSM    H4G15601   2.548   3.640   6.893  0.3991  1.9582 -1.1840
  142OSM    C5F15602   2.441   3.697   7.066  0.0584 -0.6104  0.0711
  142OSM    H5F15603   2.415   3.595   7.099 -0.8442 -0.8951 -1.4778
  142OSM    H5G15604   2.347   3.751   7.093  0.8044 -0.2515  2.0651
  142OSM    C6F15605   2.561   3.755   7.138  0.6248  0.4929  0.3984
  142OSM    H6F15606   2.584   3.856   7.098 -0.7571  0.2616 -1.0401
  142OSM    H6G15607   2.653   3.694   7.131 -1.1178 -2.2650  0.9377
  142OSM    C7F15608   2.546   3.793   7.291 -0.4379  0.6688  0.3798
  142OSM    H7F15609   2.468   3.873   7.294  0.1418  1.4251 -2.8613
  142OSM    H7G15610   2.641   3.835   7.330 -0.2603 -0.8785  1.6934
  142OSM    C8F15611   2.500   3.677   7.386 -0.0867 -0.3207 -0.7760
  142OSM    H8F15612   2.400   3.637   7.359  0.2080 -2.0878  0.6921
  142OSM    H8G15613   2.486   3.714   7.490  2.5213 -2.6026  0.4230
  142OSM    C9F15614   2.593   3.558   7.390 -0.1693 -0.3271  0.1833
  142OSM    H9F15615   2.589   3.488   7.304 -3.1128 -1.4520  1.1461
  142OSM   C10F15616   2.677   3.531   7.486 -0.1213  0.2144 -0.7876
  142OSM   H10F15617   2.740   3.442   7.477  1.3834  0.9782  1.5345
  142OSM   C11F15618   2.700   3.618   7.606  0.3802 -1.0266  0.3038
  142OSM   H11F15619   2.643   3.574   7.691 -2.1243 -0.3367 -0.9878
  142OSM   H11G15620   2.664   3.722   7.588 -0.0190 -1.0558  0.8950
  142OSM   C12F15621   2.845   3.625   7.651 -0.6822  0.1509 -0.5660
  142OSM   H12F15622   2.913   3.669   7.576  0.0312 -1.2306 -0.7419
  142OSM   H12G15623   2.885   3.523   7.671  2.4093  1.5654  0.7872
  142OSM   C13F15624   2.869   3.702   7.783  0.8916  0.1116  0.4865
  142OSM   H13F15625   2.813   3.798   7.774 -0.7877 -0.9843 -1.2628
  142OSM   H13G15626   2.979   3.716   7.792  0.8304  0.1970  1.1261
  142OSM   C14F15627   2.831   3.621   7.909  0.1596  0.5883 -1.1820
  142OSM   H14F15628   2.882   3.523   7.912 -2.3311 -0.7742 -1.5004
  142OSM   H14G15629   2.722   3.602   7.893  0.1121  3.6313 -5.3707
  142OSM   C15F15630   2.848   3.689   8.047  0.2264 -0.4146  0.1645
  142OSM   H15F15631   2.783   3.778   8.030  0.1158 -0.5592 -0.1687
  142OSM   H15G15632   2.956   3.716   8.046 -0.1119  0.9370 -0.7897
  142OSM   C16F15633   2.807   3.609   8.166 -0.3299  0.6307  0.1061
  142OSM   H16F15634   2.706   3.573   8.139  0.0183  0.1027 -0.4874
  142OSM   H16G15635   2.801   3.666   8.262 -0.2779 -1.9164  1.6776
  142OSM   C17F15636   2.901   3.491   8.197 -0.3224  0.0185  0.8107
  142OSM   H17F15637   2.904   3.429   8.104 -0.6349  3.4735 -1.6292
  142OSM   H17G15638   2.858   3.436   8.283  2.0848 -0.3737  1.7827
  142OSM   C18F15639   3.042   3.525   8.240  0.4051 -0.1970 -0.1857
  142OSM   H18F15640   3.052   3.581   8.335 -0.3987 -1.4567  0.6521
  142OSM   H18G15641   3.093   3.566   8.150  0.9340 -1.3750 -0.4278
  142OSM   H18H15642   3.097   3.432   8.265  0.8458  0.3150  0.7957
  143OSM      N15643   3.263   5.058   5.690 -0.3881  0.1617  0.0388
  143OSM    C1515644   3.160   5.137   5.624  0.3022  0.2894  0.2949
  143OSM   H15A15645   3.186   5.187   5.532 -0.7798 -2.2366 -1.4487
  143OSM   H15B15646   3.124   5.219   5.685  0.8304  0.3688  0.5019
  143OSM   H15C15647   3.079   5.073   5.594  0.0552 -0.0274  1.6221
  143OSM    C1415648   3.203   4.975   5.802  0.0157  0.2184 -0.1209
  143OSM   H14A15649   3.141   5.034   5.868  0.2076 -1.1990  1.3416
  143OSM   H14B15650   3.278   4.922   5.859 -1.3449 -2.1496 -0.4844
  143OSM   H14C15651   3.134   4.903   5.760  1.4206 -0.9294 -0.5099
  143OSM    C1315652   3.328   4.969   5.589  0.4842 -0.1649 -0.9370
  143OSM   H13A15653   3.250   4.907   5.548 -0.4374  0.0548  0.4703
  143OSM   H13B15654   3.413   4.917   5.630 -1.4292 -1.8360  1.0092
  143OSM   H13C15655   3.375   5.028   5.511  2.1382  1.8333  1.4660
  143OSM    C1215656   3.369   5.152   5.739  0.3456  0.2164 -0.1995
  143OSM   H12A15657   3.431   5.187   5.658 -0.9435  0.6379 -1.0241
  143OSM   H12B15658   3.440   5.097   5.799  1.1689  0.4056 -1.0013
  143OSM    C1115659   3.319   5.272   5.836 -0.8212  0.1749 -0.5700
  143OSM   H11A15660   3.239   5.327   5.782 -0.8654  1.0850  0.4081
  143OSM   H11B15661   3.409   5.330   5.863 -0.6236 -0.6920  0.7044
  143OSM      P15662   3.350   5.161   6.073  0.0880 -0.2181 -0.2246
  143OSM    O1315663   3.252   5.103   6.166  0.0517 -0.3512  0.1909
  143OSM    O1415664   3.448   5.063   6.030  0.2586 -0.5340  0.9012
  143OSM    O1115665   3.413   5.289   6.144  0.8054 -0.5473  0.0541
  143OSM    O1215666   3.266   5.220   5.957  0.0228 -0.5753 -0.1587
  143OSM    C1S15667   3.538   5.279   6.210  0.5788 -0.4544 -0.2190
  143OSM    H1S15668   3.618   5.286   6.133  1.6232  1.3816  1.0104
  143OSM    H1T15669   3.544   5.194   6.282 -2.4572  0.6263  1.4053
  143OSM     NF15670   3.699   5.400   6.348  0.2645  0.0108 -0.3684
  143OSM    HNF15671   3.721   5.360   6.436 -1.3909 -1.2168 -0.4943
  143OSM    C2S15672   3.560   5.398   6.306  0.2399  0.7068 -0.4259
  143OSM    H2S15673   3.537   5.488   6.245 -0.3116  0.2235 -0.9365
  143OSM    C3S15674   3.459   5.381   6.427 -0.5562  1.2758  0.4815
  143OSM    H3S15675   3.491   5.285   6.472 -1.0198  0.2086 -1.4327
  143OSM     O315676   3.322   5.367   6.389  0.2641  0.3121 -0.3555
  143OSM    HO315677   3.329   5.346   6.295  0.6757  3.1683 -1.0239
  143OSM    C4S15678   3.485   5.492   6.524  0.3448 -0.8069 -0.5014
  143OSM    H4S15679   3.560   5.468   6.600  0.1232  0.5504  0.1538
  143OSM    C5S15680   3.426   5.611   6.538 -0.6886  0.0494 -0.3786
  143OSM    H5S15681   3.345   5.633   6.466 -0.1486  1.3672 -0.5946
  143OSM    C6S15682   3.453   5.721   6.635 -0.0666 -0.2517  0.2803
  143OSM    H6S15683   3.364   5.766   6.683  0.6384  2.0846 -0.5045
  143OSM    H6T15684   3.496   5.805   6.576  0.7234  0.3717  1.7271
  143OSM    C7S15685   3.550   5.687   6.753  0.2237  0.3922  0.1417
  143OSM    H7S15686   3.563   5.773   6.823 -0.0555  0.2710  0.3449
  143OSM    H7T15687   3.647   5.652   6.712 -0.2671  0.1934 -0.8634
  143OSM    C8S15688   3.499   5.581   6.857 -0.1309 -0.5820  0.5196
  143OSM    H8S15689   3.524   5.485   6.809  0.4327 -1.1928  2.0009
  143OSM    H8T15690   3.388   5.593   6.862 -0.1824  1.3626 -3.3055
  143OSM    C9S15691   3.574   5.582   6.998  0.5945 -0.2865  0.3097
  143OSM    H9S15692   3.594   5.689   7.021  1.0674 -0.5261  1.0121
  143OSM    H9T15693   3.672   5.537   6.973 -0.3292 -1.6878 -0.8493
  143OSM   C10S15694   3.506   5.500   7.105 -0.0497 -0.9424  0.5740
  143OSM   H10S15695   3.489   5.394   7.075 -1.4342  0.1755 -2.8192
  143OSM   H10T15696   3.410   5.554   7.114 -1.6092 -3.7397  1.1912
  143OSM   C11S15697   3.578   5.508   7.240 -0.5653  0.6017  0.0725
  143OSM   H11S15698   3.596   5.609   7.283 -0.7052  0.1421  1.2310
  143OSM   H11T15699   3.676   5.458   7.224 -1.0793 -0.7849  1.0699
  143OSM   C12S15700   3.504   5.422   7.345  0.1562  0.1784 -0.5930
  143OSM   H12S15701   3.475   5.325   7.300 -0.0634 -0.1561  0.2552
  143OSM   H12T15702   3.412   5.481   7.366  1.2874  2.5213 -2.0223
  143OSM   C13S15703   3.585   5.397   7.473 -0.4906 -0.0865 -0.6119
  143OSM   H13S15704   3.636   5.493   7.496 -2.2419  1.6914 -3.7588
  143OSM   H13T15705   3.662   5.318   7.467 -1.2041 -0.8629  0.3589
  143OSM   C14S15706   3.493   5.353   7.593  0.7199 -0.3258 -0.0394
  143OSM   H14S15707   3.431   5.270   7.553  0.1259  0.0395  0.1242
  143OSM   H14T15708   3.428   5.440   7.615 -0.5769 -0.7143 -2.1961
  143OSM   C15S15709   3.570   5.301   7.716  0.2429 -0.2902  0.4150
  143OSM   H15S15710   3.626   5.390   7.751 -0.7584  0.7477 -0.5672
  143OSM   H15T15711   3.638   5.217   7.689 -1.5834 -1.5667 -0.3683
  143OSM   C16S15712   3.480   5.238   7.820  0.0286 -0.5589 -0.3450
  143OSM   H16S15713   3.427   5.155   7.769 -0.7311 -0.3036  0.0319
  143OSM   H16T15714   3.411   5.317   7.855 -0.4190 -0.6874 -0.9388
  143OSM   C17S15715   3.558   5.184   7.940  0.2927  0.3313  0.5666
  143OSM   H17S15716   3.642   5.250   7.969  2.3049 -2.1421  0.6009
  143OSM   H17T15717   3.616   5.094   7.907  0.3328  0.2153  0.9537
  143OSM   C18S15718   3.469   5.143   8.056  0.4959  1.0161 -0.3989
  143OSM   H18S15719   3.531   5.115   8.144 -0.2568  1.6060  0.3265
  143OSM   H18T15720   3.398   5.061   8.032  0.0287  1.3936 -0.3313
  143OSM   H18U15721   3.411   5.235   8.081  0.7875  0.7701  1.2534
  143OSM    C1F15722   3.796   5.439   6.259 -0.4560 -0.7149 -0.0679
  143OSM     OF15723   3.768   5.495   6.152  0.0606 -0.6494 -0.2094
  143OSM    C2F15724   3.942   5.426   6.310  0.4272 -0.4562 -0.3761
  143OSM    H2F15725   3.975   5.331   6.262  0.4728  1.1619 -3.6720
  143OSM    H2G15726   3.934   5.414   6.420  1.5144  0.9839 -0.1234
  143OSM    C3F15727   4.030   5.541   6.253  0.6044  0.7439 -0.2101
  143OSM    H3F15728   3.974   5.633   6.281  0.3871  0.3569  0.6356
  143OSM    H3G15729   4.048   5.526   6.144  0.2227  0.4231 -0.2273
  143OSM    C4F15730   4.171   5.542   6.317 -0.0816  0.0206  0.2737
  143OSM    H4F15731   4.229   5.624   6.267  2.0830 -1.2108  0.6892
  143OSM    H4G15732   4.232   5.459   6.276  1.6529  1.4081 -0.0268
  143OSM    C5F15733   4.188   5.532   6.467 -0.2518 -0.0147  0.0237
  143OSM    H5F15734   4.298   5.533   6.479  0.0085 -0.2815 -2.0599
  143OSM    H5G15735   4.144   5.435   6.498 -0.3877 -0.4755 -1.5210
  143OSM    C6F15736   4.119   5.647   6.539 -0.1446  0.1770 -0.1443
  143OSM    H6F15737   4.010   5.622   6.540  0.1227 -1.0275 -0.3537
  143OSM    H6G15738   4.134   5.729   6.466  2.7397  2.1359  2.5143
  143OSM    C7F15739   4.170   5.695   6.678 -0.3399 -0.8631  0.3943
  143OSM    H7F15740   4.280   5.707   6.676 -0.2089 -1.9555  0.5308
  143OSM    H7G15741   4.141   5.605   6.737  4.1035 -2.0427  0.9700
  143OSM    C8F15742   4.108   5.834   6.709 -0.3788 -0.0960 -0.1861
  143OSM    H8F15743   4.146   5.918   6.648 -1.8552 -1.4525 -3.0691
  143OSM    H8G15744   4.147   5.855   6.811 -0.6633 -1.2283  0.1666
  143OSM    C9F15745   3.957   5.825   6.716 -0.0180  0.0282  0.2037
  143OSM    H9F15746   3.906   5.827   6.619 -2.6577 -0.0027  1.5637
  143OSM   C10F15747   3.885   5.822   6.832  0.1551  0.0674  0.6792
  143OSM   H10F15748   3.777   5.803   6.820  0.2973 -1.0227  1.1638
  143OSM   C11F15749   3.932   5.814   6.973  0.4376 -0.1014  0.6001
  143OSM   H11F15750   3.843   5.839   7.035 -1.1056 -2.1133 -0.7178
  143OSM   H11G15751   4.019   5.880   6.992  0.0592  0.6803 -0.2722
  143OSM   C12F15752   3.963   5.669   7.015 -0.6910  0.6736 -0.1806
  143OSM   H12F15753   4.033   5.610   6.953  0.0448  1.4799 -0.1111
  143OSM   H12G15754   3.869   5.609   7.013 -0.5962  0.4746  0.9234
  143OSM   C13F15755   4.029   5.675   7.155 -0.6077  0.8181 -0.4155
  143OSM   H13F15756   4.133   5.713   7.146 -0.0226 -1.2480 -3.2284
  143OSM   H13G15757   4.055   5.573   7.190 -2.1260  1.2120  1.9506
  143OSM   C14F15758   3.950   5.752   7.266 -0.0106 -0.4793  0.3406
  143OSM   H14F15759   3.843   5.730   7.247 -0.1157 -1.2107  1.7432
  143OSM   H14G15760   3.973   5.858   7.245 -0.4996 -0.4304  0.0598
  143OSM   C15F15761   3.981   5.714   7.406  0.7327 -0.2804  0.3613
  143OSM   H15F15762   4.089   5.726   7.429  0.9272  1.0768 -1.2323
  143OSM   H15G15763   3.954   5.607   7.421  0.9283 -0.6630 -1.8524
  143OSM   C16F15764   3.914   5.809   7.507 -0.3844  0.5984 -0.2368
  143OSM   H16F15765   3.807   5.826   7.481 -0.5387 -1.6339 -1.1464
  143OSM   H16G15766   3.963   5.909   7.505  1.0310 -0.0912 -0.0974
  143OSM   C17F15767   3.914   5.756   7.653 -0.7859 -0.8568  0.5787
  143OSM   H17F15768   3.883   5.841   7.716 -2.4615 -1.3756  0.4737
  143OSM   H17G15769   4.020   5.740   7.683  0.2612 -1.9807 -3.3720
  143OSM   C18F15770   3.823   5.636   7.683 -0.2738 -0.4518 -0.6326
  143OSM   H18F15771   3.717   5.664   7.668 -0.2346 -0.6386 -1.2883
  143OSM   H18G15772   3.842   5.594   7.785 -0.1270  1.0927 -0.0120
  143OSM   H18H15773   3.836   5.552   7.611 -1.2531 -1.4581  0.3401
  144OSM      N15774   2.893   5.660   5.930  0.8220  0.5750 -0.1785
  144OSM    C1515775   3.013   5.741   5.962 -0.4182 -0.2603 -0.6287
  144OSM   H15A15776   3.005   5.771   6.066 -2.3361 -0.6827 -0.6407
  144OSM   H15B15777   3.005   5.829   5.899  0.1410  0.2310 -0.0266
  144OSM   H15C15778   3.107   5.688   5.963 -1.4689 -2.1536 -0.7009
  144OSM    C1415779   2.780   5.747   5.904  0.9434 -0.3431  0.0634
  144OSM   H14A15780   2.691   5.696   5.873  0.8907 -1.5601  2.1324
  144OSM   H14B15781   2.794   5.807   5.816 -0.9668  0.7975  0.5110
  144OSM   H14C15782   2.764   5.816   5.985 -0.1857  0.9859 -1.2661
  144OSM    C1315783   2.926   5.580   5.805 -0.1218  0.1629 -0.4517
  144OSM   H13A15784   2.954   5.650   5.728  0.7740  1.9311  1.4160
  144OSM   H13B15785   2.842   5.529   5.760 -0.0803  0.0950 -0.4509
  144OSM   H13C15786   3.010   5.515   5.821 -0.0259  0.8581  2.2018
  144OSM    C1215787   2.861   5.567   6.050  0.2685 -0.4243  0.4578
  144OSM   H12A15788   2.951   5.510   6.067 -0.2221 -1.4973 -0.4380
  144OSM   H12B15789   2.788   5.489   6.036 -2.0589  1.6785  0.3433
  144OSM    C1115790   2.832   5.636   6.181  0.0741  0.2140 -0.0983
  144OSM   H11A15791   2.913   5.710   6.198  1.1152 -1.0618  0.4988
  144OSM   H11B15792   2.838   5.568   6.268  0.5707 -1.1500 -1.1921
  144OSM      P15793   2.572   5.616   6.166 -0.4314  0.1352  0.1240
  144OSM    O1315794   2.462   5.715   6.182  0.0933 -0.0837 -0.0098
  144OSM    O1415795   2.569   5.540   6.040 -0.2891  0.2076  0.6452
  144OSM    O1115796   2.560   5.516   6.284 -0.3494 -0.8716  0.6914
  144OSM    O1215797   2.705   5.702   6.184  0.0347  0.3062 -0.2442
  144OSM    C1S15798   2.578   5.567   6.418 -0.5793  0.5548  1.1455
  144OSM    H1S15799   2.490   5.629   6.447 -0.9845  0.4741  0.1070
  144OSM    H1T15800   2.666   5.631   6.434 -0.3026  0.5352 -0.2330
  144OSM     NF15801   2.587   5.505   6.669  0.3698  0.4614  0.6523
  144OSM    HNF15802   2.678   5.502   6.709  0.8589  1.3376 -0.3482
  144OSM    C2S15803   2.594   5.456   6.525  0.1910 -0.5103 -0.8688
  144OSM    H2S15804   2.506   5.388   6.514  0.5556 -1.2477  0.6506
  144OSM    C3S15805   2.723   5.367   6.504  0.2273 -0.1267 -0.8652
  144OSM    H3S15806   2.810   5.431   6.531  0.4800 -0.7370 -0.2253
  144OSM     O315807   2.728   5.324   6.370 -0.5412  0.3633 -0.0477
  144OSM    HO315808   2.666   5.382   6.327 -1.3252  0.0173  0.6112
  144OSM    C4S15809   2.715   5.253   6.599 -0.1469 -0.4284 -0.2302
  144OSM    H4S15810   2.777   5.267   6.689  0.5873 -3.0008 -0.2966
  144OSM    C5S15811   2.661   5.130   6.580  0.1604 -0.6603 -0.4262
  144OSM    H5S15812   2.627   5.099   6.480  0.8836  0.5878 -1.0818
  144OSM    C6S15813   2.655   5.024   6.683 -1.1952 -0.3622 -0.2710
  144OSM    H6S15814   2.714   4.939   6.642  0.5991 -0.1153  1.6897
  144OSM    H6T15815   2.552   4.986   6.697 -1.1175 -0.3014  0.4937
  144OSM    C7S15816   2.716   5.047   6.820  0.2114  0.0222 -0.3191
  144OSM    H7S15817   2.684   5.144   6.865 -0.1262  0.2560 -1.0735
  144OSM    H7T15818   2.827   5.053   6.812  0.2982 -0.4626  0.4245
  144OSM    C8S15819   2.681   4.944   6.917  0.0075 -0.3412  0.2822
  144OSM    H8S15820   2.717   4.844   6.885  0.3278  0.1317 -0.8339
  144OSM    H8T15821   2.570   4.938   6.919 -0.0800  0.5028 -1.3833
  144OSM    C9S15822   2.727   4.978   7.059  0.2542  0.2089 -0.7275
  144OSM    H9S15823   2.688   5.079   7.085 -3.0675 -0.9570 -0.9539
  144OSM    H9T15824   2.838   4.989   7.058  0.1004  2.1040 -0.0319
  144OSM   C10S15825   2.677   4.879   7.169 -0.2507 -0.7031 -0.1408
  144OSM   H10S15826   2.707   4.777   7.139 -1.2149 -0.3892 -2.3399
  144OSM   H10T15827   2.565   4.879   7.170 -0.2583 -0.1497 -0.5126
  144OSM   C11S15828   2.732   4.914   7.311 -0.2426 -0.0989  0.3581
  144OSM   H11S15829   2.717   5.018   7.347 -2.8097  0.0154 -0.9870
  144OSM   H11T15830   2.842   4.901   7.306 -0.3447 -1.3009  1.1096
  144OSM   C12S15831   2.684   4.819   7.424  0.1520  0.5217 -0.0768
  144OSM   H12S15832   2.718   4.716   7.402 -0.9999  0.3738 -1.2461
  144OSM   H12T15833   2.573   4.808   7.421  0.0274  1.6719 -0.1916
  144OSM   C13S15834   2.730   4.868   7.554  0.2129  0.0564  0.1834
  144OSM   H13S15835   2.710   4.976   7.573 -0.6129 -0.1777  0.6448
  144OSM   H13T15836   2.840   4.853   7.556  0.0767 -0.9689  0.2439
  144OSM   C14S15837   2.676   4.781   7.666 -0.1539  0.1203 -0.0260
  144OSM   H14S15838   2.685   4.672   7.647  0.6646  0.2118 -0.2141
  144OSM   H14T15839   2.570   4.807   7.686 -1.2254 -3.5209 -0.6584
  144OSM   C15S15840   2.758   4.816   7.790  0.2789  0.1312  0.5004
  144OSM   H15S15841   2.869   4.805   7.781  0.2243 -1.3618  1.4787
  144OSM   H15T15842   2.732   4.743   7.870  0.5112  0.5309  0.9428
  144OSM   C16S15843   2.723   4.954   7.855 -0.7855 -0.1071 -0.1269
  144OSM   H16S15844   2.615   4.952   7.881 -0.5508 -0.5328  0.8446
  144OSM   H16T15845   2.727   5.027   7.771  1.0776  1.1969  1.0615
  144OSM   C17S15846   2.804   5.003   7.969 -0.4399  0.2984 -0.2634
  144OSM   H17S15847   2.774   5.110   7.982  2.3599  1.2122 -0.9529
  144OSM   H17T15848   2.909   5.006   7.932  0.0514  1.7594  1.1603
  144OSM   C18S15849   2.773   4.923   8.098 -0.5748  0.9633  0.1408
  144OSM   H18S15850   2.832   4.830   8.080 -1.3641  0.4735  0.0821
  144OSM   H18T15851   2.670   4.882   8.103 -0.6134  0.6300 -2.8690
  144OSM   H18U15852   2.806   4.968   8.195  1.3534  1.2994 -0.6392
  144OSM    C1F15853   2.477   5.557   6.732 -1.0429 -0.0816 -0.0554
  144OSM     OF15854   2.361   5.534   6.686 -0.2631  1.2299 -0.0820
  144OSM    C2F15855   2.494   5.641   6.852  0.7951 -0.3489  0.1524
  144OSM    H2F15856   2.411   5.627   6.924  1.7051 -0.9620  1.0855
  144OSM    H2G15857   2.495   5.744   6.809 -1.8357  0.5973  2.2186
  144OSM    C3F15858   2.630   5.615   6.912 -0.1626 -0.4161 -0.4362
  144OSM    H3F15859   2.707   5.674   6.858  1.2181 -2.0980 -0.3576
  144OSM    H3G15860   2.662   5.508   6.917  0.4335 -0.1605  3.7401
  144OSM    C4F15861   2.655   5.667   7.056  0.1826 -0.1675  0.0508
  144OSM    H4F15862   2.638   5.776   7.059  0.5362 -0.0350 -1.9686
  144OSM    H4G15863   2.763   5.649   7.077  0.1646 -1.4262 -0.8007
  144OSM    C5F15864   2.571   5.599   7.163  0.1613 -0.1183  0.8002
  144OSM    H5F15865   2.570   5.490   7.141 -0.3883 -0.3315  1.8223
  144OSM    H5G15866   2.466   5.633   7.152  0.4659  0.9970  1.2087
  144OSM    C6F15867   2.612   5.642   7.299 -0.3920 -0.0919 -0.7491
  144OSM    H6F15868   2.528   5.629   7.371  0.1962  2.2595  0.4176
  144OSM    H6G15869   2.643   5.749   7.293 -0.5523 -0.0948 -1.8201
  144OSM    C7F15870   2.731   5.563   7.355  0.1322  0.0502  0.6395
  144OSM    H7F15871   2.824   5.576   7.295 -0.5493 -2.6799 -1.1097
  144OSM    H7G15872   2.700   5.456   7.346 -0.9739  0.2205  2.3174
  144OSM    C8F15873   2.750   5.590   7.504  0.0029 -0.2399  0.1978
  144OSM    H8F15874   2.839   5.536   7.540 -0.0520  0.0917  0.8355
  144OSM    H8G15875   2.663   5.563   7.567  0.1735  1.5038  1.2249
  144OSM    C9F15876   2.777   5.743   7.516 -0.4687  0.4504 -0.2577
  144OSM    H9F15877   2.688   5.804   7.537  1.7978  2.6135  3.5237
  144OSM   C10F15878   2.894   5.803   7.536 -0.4514  0.0334 -0.1247
  144OSM   H10F15879   2.893   5.913   7.540 -0.3281  0.0864 -1.2943
  144OSM   C11F15880   3.035   5.743   7.530  0.3575  0.2295 -0.4510
  144OSM   H11F15881   3.103   5.808   7.472  0.5522  0.6155  0.2168
  144OSM   H11G15882   3.032   5.642   7.483  2.6860 -0.2996  0.4720
  144OSM   C12F15883   3.083   5.726   7.676 -0.3845  0.3504 -0.5958
  144OSM   H12F15884   3.004   5.662   7.721 -0.8612 -0.3195 -2.3515
  144OSM   H12G15885   3.084   5.824   7.729  1.1314  0.0567 -0.0691
  144OSM   C13F15886   3.212   5.639   7.683 -0.3555  0.5168 -0.0210
  144OSM   H13F15887   3.273   5.685   7.603 -0.8953 -2.4204 -2.2250
  144OSM   H13G15888   3.190   5.531   7.666 -1.0882  0.6940 -0.2568
  144OSM   C14F15889   3.300   5.667   7.808 -0.0554 -0.2690 -0.2257
  144OSM   H14F15890   3.325   5.775   7.808 -1.9945  0.1940 -0.5504
  144OSM   H14G15891   3.398   5.614   7.806  0.3001  0.1511  3.3620
  144OSM   C15F15892   3.234   5.615   7.938  0.6641  0.3199 -0.7540
  144OSM   H15F15893   3.223   5.504   7.943  0.4701  0.3882  0.6809
  144OSM   H15G15894   3.136   5.665   7.953  1.3265  1.1496  0.9551
  144OSM   C16F15895   3.311   5.651   8.067 -0.3480 -0.2658  0.2871
  144OSM   H16F15896   3.267   5.613   8.162 -1.3826  1.6565  0.6198
  144OSM   H16G15897   3.319   5.762   8.064 -0.2304 -0.3110 -1.1659
  144OSM   C17F15898   3.454   5.581   8.083 -0.4216 -0.1407  0.1907
  144OSM   H17F15899   3.521   5.628   8.009 -0.6151  0.9401  0.6947
  144OSM   H17G15900   3.438   5.477   8.047  0.6622 -0.3282  0.2413
  144OSM   C18F15901   3.511   5.582   8.221 -1.2503 -0.2084  1.7602
  144OSM   H18F15902   3.460   5.505   8.282 -0.4778 -2.0232  0.1482
  144OSM   H18G15903   3.490   5.681   8.269 -1.1098  0.6979  0.0010
  144OSM   H18H15904   3.621   5.571   8.213 -1.5628 -2.7729  0.6042
  145SAPE     N15905   1.501   6.055  10.908 -0.1823 -0.1027  0.8072
  145SAPE   HN115906   1.437   6.073  10.989  1.2239 -2.0597  2.4219
  145SAPE   HN215907   1.529   5.955  10.910 -0.2323 -0.1219  0.5124
  145SAPE   HN315908   1.585   6.116  10.913 -0.4229  0.2457  0.5953
  145SAPE   C1215909   1.429   6.081  10.778  0.4622  0.2145 -0.0038
  145SAPE  H12A15910   1.417   6.191  10.775 -1.2125  0.0076 -1.4635
  145SAPE  H12B15911   1.336   6.026  10.803  0.2893  0.4601 -0.1052
  145SAPE   C1115912   1.483   5.998  10.655  0.1100  0.4860  0.0819
  145SAPE  H11A15913   1.592   6.012  10.647 -0.0369  1.5306 -0.1779
  145SAPE  H11B15914   1.431   6.044  10.568  0.2412  0.8376  0.1874
  145SAPE     P15915   1.335   5.788  10.600  0.2975  0.0922  0.2863
  145SAPE   O1315916   1.358   5.646  10.624  1.1542 -0.4454 -0.1570
  145SAPE   O1415917   1.208   5.846  10.651  0.1581 -0.0780  0.0833
  145SAPE   O1215918   1.457   5.858  10.668 -0.1506 -0.1916  0.4243
  145SAPE   O1115919   1.355   5.830  10.450  0.1847  0.1118 -0.1873
  145SAPE    C115920   1.471   5.797  10.370  0.2490  0.2433  0.1205
  145SAPE    HA15921   1.551   5.873  10.384  0.0481  0.2741  1.1649
  145SAPE    HB15922   1.523   5.707  10.411  1.5644  1.4218  1.0566
  145SAPE    C215923   1.439   5.795  10.216 -0.6250  0.3393 -0.1273
  145SAPE    HS15924   1.534   5.787  10.159 -0.5675  0.0448  0.0102
  145SAPE   O2115925   1.361   5.913  10.186  0.6753  0.0869  0.3483
  145SAPE   C2115926   1.424   6.024  10.204  0.3995 -0.1259  0.2814
  145SAPE   O2215927   1.546   6.035  10.183  0.7001 -0.3721 -0.2724
  145SAPE   C2215928   1.329   6.131  10.234 -0.2927 -0.2706 -0.5851
  145SAPE   H2R15929   1.310   6.172  10.133 -0.3579 -1.4770 -1.0637
  145SAPE   H2S15930   1.241   6.097  10.293 -0.0365  1.2993  0.7363
  145SAPE    C315931   1.360   5.670  10.183  0.0947  0.1766  0.4264
  145SAPE    HX15932   1.272   5.668  10.252 -1.3433  1.3937 -1.3205
  145SAPE    HY15933   1.422   5.581  10.208  1.4536  0.4657 -1.7931
  145SAPE   O3115934   1.326   5.670  10.045  0.0115  0.1330 -0.2503
  145SAPE   C3115935   1.203   5.695  10.003 -0.4344  0.6622  0.1513
  145SAPE   O3215936   1.100   5.688  10.074 -0.3389 -0.3738  0.2441
  145SAPE   C3215937   1.215   5.752   9.862  0.3037 -0.6929 -0.4177
  145SAPE   H2X15938   1.277   5.688   9.796 -1.5002  0.6034 -3.5093
  145SAPE   H2Y15939   1.275   5.844   9.883  1.7589 -1.6670 -0.2348
  145SAPE   C2315940   1.388   6.245  10.316 -0.0502 -0.4473  0.2609
  145SAPE   H3R15941   1.472   6.284  10.254 -0.9666  1.7080  0.3201
  145SAPE   H3S15942   1.427   6.219  10.416 -0.0560 -0.4240  0.2689
  145SAPE   C2415943   1.278   6.348  10.342  0.4110  0.7309 -0.0157
  145SAPE   H4R15944   1.294   6.415  10.430 -3.0159 -1.3226  2.2706
  145SAPE   H4S15945   1.186   6.293  10.370  0.4789  0.1208 -0.9634
  145SAPE   C2515946   1.240   6.429  10.224  0.5143  0.3890  0.1045
  145SAPE   H5R15947   1.162   6.383  10.161  0.1187 -0.1391  0.9643
  145SAPE   C2615948   1.276   6.554  10.205  0.0317  0.0801 -0.1811
  145SAPE   H6R15949   1.252   6.591  10.105  1.6026  0.6546 -0.3632
  145SAPE   C2715950   1.370   6.640  10.283  0.2226  0.1565  0.4626
  145SAPE   H7R15951   1.374   6.611  10.390  0.8494  3.1848  1.3038
  145SAPE   H7S15952   1.334   6.745  10.281  0.4287  0.2195 -0.2501
  145SAPE   C2815953   1.519   6.616  10.240  0.6293 -0.1990 -0.1866
  145SAPE   H8R15954   1.575   6.559  10.315  1.0553 -0.0877 -0.4166
  145SAPE   C2915955   1.573   6.677  10.132  0.1112 -0.1192 -0.4563
  145SAPE   H9R15956   1.681   6.666  10.119  0.4591  0.6019  1.6278
  145SAPE  C21015957   1.502   6.777  10.040 -0.2972  0.3263  0.0746
  145SAPE  H10R15958   1.413   6.827  10.083 -1.0253 -1.4553  0.6619
  145SAPE  H10S15959   1.461   6.723   9.952  0.9061  0.0049 -0.3037
  145SAPE  C21115960   1.591   6.890   9.982 -0.7958 -0.0159 -0.0091
  145SAPE  H11R15961   1.659   6.936  10.056 -0.1285  1.9378 -1.7890
  145SAPE  C21215962   1.588   6.941   9.855  0.4875  0.8518  0.2516
  145SAPE  H12R15963   1.658   7.021   9.829  1.4815  0.1385  0.6707
  145SAPE  C21315964   1.489   6.903   9.741  0.0323  0.1659 -0.1689
  145SAPE  H13R15965   1.489   6.978   9.659 -0.5816 -0.9498 -1.2101
  145SAPE  H13S15966   1.386   6.903   9.783 -0.2450 -2.1295 -0.7843
  145SAPE  C21415967   1.519   6.765   9.680 -0.0818 -0.1320 -0.0049
  145SAPE  H14R15968   1.610   6.717   9.719  0.0325  1.7880  2.2231
  145SAPE  C21515969   1.431   6.704   9.598  0.4594 -0.8112  0.3682
  145SAPE  H15R15970   1.464   6.616   9.541 -1.0399 -1.2520  0.1725
  145SAPE  C21615971   1.300   6.748   9.549 -0.4248  0.3751  0.2678
  145SAPE  H16R15972   1.304   6.790   9.446 -0.2620  0.9144  0.4886
  145SAPE  H16S15973   1.258   6.831   9.610 -0.7642 -0.3723  1.0611
  145SAPE  C21715974   1.192   6.638   9.550  0.5995  0.0825 -0.1695
  145SAPE  H17R15975   1.098   6.679   9.506  1.7276  4.1534  0.9749
  145SAPE  H17S15976   1.184   6.603   9.655  0.0947  1.9394  0.4380
  145SAPE  C21815977   1.233   6.518   9.467  0.1456  0.3304  0.0375
  145SAPE  H18R15978   1.308   6.447   9.507 -2.4188 -2.0519  0.8586
  145SAPE  H18S15979   1.272   6.553   9.370  0.7639 -0.3559  0.0347
  145SAPE  C21915980   1.111   6.428   9.455 -0.2072 -0.6013  0.3783
  145SAPE  H19R15981   1.021   6.489   9.434 -0.1854 -1.0142 -0.9336
  145SAPE  H19S15982   1.087   6.369   9.547  0.2781 -1.3921  0.0105
  145SAPE  C22015983   1.119   6.336   9.331 -0.5424 -0.5113  0.8865
  145SAPE  H20R15984   1.210   6.273   9.329  0.4146  0.9018 -1.1798
  145SAPE  H20S15985   1.117   6.400   9.241  3.5908 -3.0916 -1.1877
  145SAPE  H20T15986   1.026   6.274   9.329 -0.5325 -0.5041 -0.0902
  145SAPE   C3315987   1.077   5.787   9.803  0.0228 -0.1282 -0.5207
  145SAPE   H3X15988   1.041   5.876   9.858  0.0824 -1.2176  1.3214
  145SAPE   H3Y15989   1.004   5.707   9.824 -1.2630  1.3988  0.9483
  145SAPE   C3415990   1.074   5.837   9.659 -1.1941 -0.7085 -0.1982
  145SAPE   H4X15991   0.974   5.883   9.643 -2.5359 -3.3905  0.1943
  145SAPE   H4Y15992   1.070   5.749   9.591  0.9608 -2.0237  1.3171
  145SAPE   C3515993   1.189   5.927   9.621 -0.0924  0.5188  0.0266
  145SAPE   H5X15994   1.278   5.863   9.605 -0.2089 -0.1596  1.9718
  145SAPE   H5Y15995   1.219   6.003   9.697  0.0223  2.4067 -1.8335
  145SAPE   C3615996   1.168   6.011   9.490 -0.7100 -0.0762 -1.0535
  145SAPE   H6X15997   1.251   6.085   9.479 -1.5961  1.1342  0.2163
  145SAPE   H6Y15998   1.078   6.072   9.513 -1.2061 -1.1773 -0.0230
  145SAPE   C3715999   1.163   5.930   9.361 -0.1505 -0.1627 -0.4887
  145SAPE   H7X16000   1.093   5.843   9.370 -0.7824  0.5079  1.3510
  145SAPE   H7Y16001   1.260   5.876   9.361  0.3455  0.6530 -2.6411
  145SAPE   C3816002   1.137   6.002   9.230 -0.1173  0.1642 -0.1461
  145SAPE   H8X16003   1.218   6.075   9.210  0.6568 -0.6108  0.1648
  145SAPE   H8Y16004   1.042   6.058   9.247 -0.7636 -0.5334 -1.3674
  145SAPE   C3916005   1.118   5.900   9.118  0.0957 -0.2197 -0.1879
  145SAPE   H9X16006   1.027   5.840   9.144  0.7636 -0.9314  0.5322
  145SAPE   H9Y16007   1.202   5.829   9.112  0.1496 -0.0897 -0.9748
  145SAPE  C31016008   1.087   5.966   8.985 -0.2935  0.0335  0.4021
  145SAPE  H10X16009   1.013   6.048   8.996 -0.6723 -0.6462  3.1308
  145SAPE  H10Y16010   1.052   5.888   8.914  0.0160 -0.2866  0.5993
  145SAPE  C31116011   1.209   6.037   8.924 -0.0186 -0.5654  0.0317
  145SAPE  H11X16012   1.291   5.962   8.910  2.0726  1.8887 -1.3875
  145SAPE  H11Y16013   1.243   6.133   8.968 -0.9901  0.1555 -0.7715
  145SAPE  C31216014   1.190   6.075   8.774 -0.1891 -0.2200 -0.2157
  145SAPE  H12X16015   1.114   6.154   8.757  0.2355  0.6117  1.5717
  145SAPE  H12Y16016   1.155   5.985   8.720 -1.2880  0.4300 -0.6169
  145SAPE  C31316017   1.331   6.115   8.716 -0.2380 -0.4602 -0.2499
  145SAPE  H13X16018   1.326   6.099   8.607  1.2828 -1.8398 -0.1300
  145SAPE  H13Y16019   1.405   6.043   8.758  0.3866  0.8210  0.8964
  145SAPE  C31416020   1.372   6.260   8.745 -0.3191  0.5075 -0.2744
  145SAPE  H14X16021   1.385   6.277   8.854  0.1758 -1.0072 -0.0823
  145SAPE  H14Y16022   1.293   6.327   8.704 -0.2400 -0.7892 -2.6524
  145SAPE  C31516023   1.505   6.285   8.676 -0.0145  0.0431  0.6665
  145SAPE  H15X16024   1.581   6.214   8.715 -1.3676 -2.0724 -0.4517
  145SAPE  H15Y16025   1.541   6.384   8.712 -1.7222  0.6914  0.6554
  145SAPE  C31616026   1.497   6.283   8.526  0.2439 -0.3159  0.0776
  145SAPE  H16X16027   1.422   6.353   8.485 -0.7240 -0.3037  1.7885
  145SAPE  H16Y16028   1.466   6.184   8.487  0.6380 -0.9442  1.2979
  145SAPE  C31716029   1.633   6.326   8.457  0.1762 -0.2409  0.1916
  145SAPE  H17X16030   1.668   6.425   8.495  1.2384  0.5587 -2.7871
  145SAPE  H17Y16031   1.607   6.345   8.351  1.1114 -3.3183 -0.6352
  145SAPE  C31816032   1.744   6.229   8.462  0.2063  0.2575 -0.4008
  145SAPE  H18X16033   1.811   6.243   8.374  0.9532  2.1195  0.4341
  145SAPE  H18Y16034   1.696   6.130   8.447 -2.2006  1.7806 -3.0758
  145SAPE  H18Z16035   1.806   6.226   8.554 -0.8159 -0.2225  0.2755
  146SAPE     N16036   0.355   0.293  10.861 -0.4791  0.1684  0.3337
  146SAPE   HN116037   0.293   0.285  10.778  1.0560 -1.3794 -0.6960
  146SAPE   HN216038   0.420   0.369  10.834  0.1440  0.0585  1.5072
  146SAPE   HN316039   0.401   0.200  10.858 -0.9844 -0.0883  0.3846
  146SAPE   C1216040   0.272   0.308  10.980 -0.0831 -0.4401 -0.0343
  146SAPE  H12A16041   0.333   0.307  11.073 -1.6303 -0.9556  0.9971
  146SAPE  H12B16042   0.196   0.228  10.975 -1.0847  0.5215 -0.4039
  146SAPE   C1116043   0.199   0.441  10.969  0.3850  0.3681 -0.2287
  146SAPE  H11A16044   0.269   0.527  10.970  0.6749  0.1819 -2.7063
  146SAPE  H11B16045   0.127   0.460  11.052 -0.0104 -1.2315 -0.2014
  146SAPE     P16046   0.069   0.593  10.797 -0.0887  0.2885 -0.3397
  146SAPE   O1316047  -0.077   0.576  10.774  0.5149 -0.3346 -0.4658
  146SAPE   O1416048   0.100   0.697  10.896 -0.1081 -0.5890  0.1247
  146SAPE   O1216049   0.119   0.453  10.848  0.4204 -0.2594 -0.5886
  146SAPE   O1116050   0.142   0.610  10.659 -0.2118  0.7564 -0.0179
  146SAPE    C116051   0.285   0.651  10.673 -0.1308 -0.6776  0.3355
  146SAPE    HA16052   0.314   0.691  10.772  0.9909  0.1018 -0.2950
  146SAPE    HB16053   0.359   0.571  10.655  1.1021  0.2549  1.2238
  146SAPE    C216054   0.329   0.759  10.568 -0.8906 -1.0509 -0.5398
  146SAPE    HS16055   0.278   0.855  10.593 -1.2743 -0.5393 -3.1200
  146SAPE   O2116056   0.315   0.708  10.427 -0.0213 -0.6163 -0.2414
  146SAPE   C2116057   0.263   0.797  10.335 -0.2129  0.4692  0.1347
  146SAPE   O2216058   0.243   0.917  10.346 -0.4047  0.0896 -0.2094
  146SAPE   C2216059   0.242   0.717  10.206 -0.8327 -0.3610  0.7895
  146SAPE   H2R16060   0.344   0.687  10.172 -0.7410 -0.7583  1.4211
  146SAPE   H2S16061   0.186   0.624  10.231  1.2994 -1.7312  0.5659
  146SAPE    C316062   0.482   0.788  10.571 -0.2006  0.5048 -0.1000
  146SAPE    HX16063   0.538   0.693  10.557 -1.7476 -0.6758  1.4871
  146SAPE    HY16064   0.512   0.821  10.673  0.4223 -2.6372  0.7878
  146SAPE   O3116065   0.511   0.880  10.466 -0.6141 -0.1498 -0.1543
  146SAPE   C3116066   0.623   0.948  10.479  0.3105  0.1134 -0.2591
  146SAPE   O3216067   0.704   0.932  10.571  0.0582 -0.1479  0.3840
  146SAPE   C3216068   0.629   1.052  10.374  0.0166 -0.2721 -0.1799
  146SAPE   H2X16069   0.685   1.140  10.413  0.9128 -0.7478 -0.3787
  146SAPE   H2Y16070   0.537   1.098  10.333 -0.2387  0.7382  1.4426
  146SAPE   C2316071   0.160   0.796  10.099 -0.1932 -0.9167 -0.1605
  146SAPE   H3R16072   0.218   0.887  10.073 -1.4408 -1.1195 -3.9126
  146SAPE   H3S16073   0.058   0.823  10.132 -0.7045 -2.3559 -0.4899
  146SAPE   C2416074   0.150   0.720   9.957  0.4814  0.1630  0.1983
  146SAPE   H4R16075   0.094   0.624   9.959  1.6524 -0.5464 -0.4571
  146SAPE   H4S16076   0.252   0.689   9.927  1.2778  1.3567  1.6175
  146SAPE   C2516077   0.089   0.810   9.854  0.3994  0.3483  0.6938
  146SAPE   H5R16078  -0.001   0.855   9.897  0.0583  3.3504 -2.9197
  146SAPE   C2616079   0.141   0.843   9.733 -0.1111 -0.4842 -0.1941
  146SAPE   H6R16080   0.089   0.904   9.657 -1.6589 -2.6260 -0.8838
  146SAPE   C2716081   0.276   0.789   9.679 -0.3134 -0.3292  0.4471
  146SAPE   H7R16082   0.358   0.803   9.753  0.8623 -0.1999 -0.8519
  146SAPE   H7S16083   0.291   0.843   9.584  1.2367 -0.2298  0.7267
  146SAPE   C2816084   0.272   0.642   9.650  0.8906 -0.4491  0.3553
  146SAPE   H8R16085   0.294   0.580   9.737  1.3040 -0.3334  0.3324
  146SAPE   C2916086   0.269   0.584   9.529 -0.1905 -0.5086 -0.0300
  146SAPE   H9R16087   0.259   0.474   9.531  0.2885 -0.5486  1.9462
  146SAPE  C21016088   0.264   0.647   9.388  0.5390 -1.0197 -0.1275
  146SAPE  H10R16089   0.370   0.660   9.359  1.2467  0.1711  2.8659
  146SAPE  H10S16090   0.227   0.752   9.390  1.9618 -0.5442  2.0923
  146SAPE  C21116091   0.183   0.574   9.284  0.7478 -0.6826  0.1821
  146SAPE  H11R16092   0.148   0.478   9.325  1.1138 -0.8464  0.1143
  146SAPE  C21216093   0.144   0.611   9.158  0.0741  0.5869 -0.4222
  146SAPE  H12R16094   0.074   0.550   9.098  0.7499 -0.2752 -0.3403
  146SAPE  C21316095   0.190   0.729   9.087  0.6839  0.2846  0.1880
  146SAPE  H13R16096   0.183   0.816   9.155  0.0398  0.4819 -0.1202
  146SAPE  H13S16097   0.124   0.750   8.999  0.0952  0.0864  0.5770
  146SAPE  C21416098   0.336   0.726   9.036  0.2614  0.5274 -0.3810
  146SAPE  H14R16099   0.416   0.772   9.095  0.3240 -0.6496  0.4578
  146SAPE  C21516100   0.377   0.677   8.915  0.0285 -0.2316 -0.8152
  146SAPE  H15R16101   0.483   0.688   8.886  0.4364 -0.8765  0.3610
  146SAPE  C21616102   0.281   0.618   8.813  0.5239  0.3246 -0.2223
  146SAPE  H16R16103   0.203   0.693   8.790  0.8183  0.9506  0.7985
  146SAPE  H16S16104   0.233   0.535   8.868 -3.5472  1.7823 -1.3927
  146SAPE  C21716105   0.346   0.573   8.684 -0.2008  0.2676 -0.4347
  146SAPE  H17R16106   0.273   0.496   8.651  1.1526 -1.4118  0.4227
  146SAPE  H17S16107   0.444   0.522   8.695 -1.0536 -1.4463 -0.7717
  146SAPE  C21816108   0.359   0.685   8.584  0.1565  0.0097 -0.1878
  146SAPE  H18R16109   0.442   0.744   8.627 -0.6798 -0.6625  2.4351
  146SAPE  H18S16110   0.262   0.739   8.586 -0.4695 -1.0205 -1.6794
  146SAPE  C21916111   0.394   0.654   8.437 -1.4581  0.6251  0.0055
  146SAPE  H19R16112   0.491   0.602   8.426 -1.5374  0.8318 -1.7006
  146SAPE  H19S16113   0.418   0.743   8.375 -2.2621 -0.3107 -1.6887
  146SAPE  C22016114   0.285   0.571   8.371  0.5645  0.1359  0.5252
  146SAPE  H20R16115   0.193   0.631   8.389  0.6060  1.2794 -2.6878
  146SAPE  H20S16116   0.273   0.470   8.416 -0.0278 -0.6354 -1.3036
  146SAPE  H20T16117   0.284   0.572   8.260 -0.5737 -0.8603  0.5196
  146SAPE   C3316118   0.713   1.005  10.248  0.3907  0.4896 -0.1170
  146SAPE   H3X16119   0.800   0.942  10.276  0.0025 -0.9153 -2.0156
  146SAPE   H3Y16120   0.765   1.091  10.203  0.2547  0.5202 -0.2148
  146SAPE   C3416121   0.629   0.926  10.153  0.0107  0.2613 -0.2012
  146SAPE   H4X16122   0.562   1.001  10.105  0.6601  1.8818  1.3978
  146SAPE   H4Y16123   0.568   0.844  10.199 -0.3966  1.0321  0.6448
  146SAPE   C3516124   0.715   0.876  10.030  0.7076  0.3325 -0.0927
  146SAPE   H5X16125   0.788   0.801  10.067  1.3405  0.9004 -0.1881
  146SAPE   H5Y16126   0.769   0.965   9.993  1.3563 -0.5549 -1.2891
  146SAPE   C3616127   0.629   0.818   9.914 -0.1598 -0.8956 -0.1163
  146SAPE   H6X16128   0.553   0.887   9.872 -0.0097  0.4055  1.7016
  146SAPE   H6Y16129   0.576   0.722   9.931  0.1975 -1.1099 -0.2166
  146SAPE   C3716130   0.734   0.802   9.797  0.0881  0.1151  0.3914
  146SAPE   H7X16131   0.806   0.722   9.823  1.1259  1.6608  2.3847
  146SAPE   H7Y16132   0.788   0.898   9.779  0.2570 -0.1431 -0.4970
  146SAPE   C3816133   0.663   0.766   9.663  0.0071 -0.0864 -0.0096
  146SAPE   H8X16134   0.606   0.859   9.640  1.7823  0.7329 -1.2493
  146SAPE   H8Y16135   0.585   0.691   9.686  0.0878 -0.6981 -1.6407
  146SAPE   C3916136   0.754   0.719   9.553 -0.5287  0.3030  0.0998
  146SAPE   H9X16137   0.788   0.621   9.593 -1.1684  0.2026  0.4070
  146SAPE   H9Y16138   0.847   0.777   9.533  0.7513 -1.5822  0.3912
  146SAPE  C31016139   0.683   0.700   9.417 -0.9379  0.2213  0.9473
  146SAPE  H10X16140   0.635   0.791   9.375  0.3812  2.2360  3.6601
  146SAPE  H10Y16141   0.608   0.619   9.425  0.0968 -1.1377 -2.1859
  146SAPE  C31116142   0.774   0.656   9.300  0.2422 -0.2413 -0.3648
  146SAPE  H11X16143   0.838   0.570   9.330 -0.0007 -0.4958 -0.5755
  146SAPE  H11Y16144   0.842   0.741   9.279  0.5375 -0.3369  0.1902
  146SAPE  C31216145   0.693   0.635   9.168 -0.1389  0.0955 -0.0288
  146SAPE  H12X16146   0.654   0.732   9.131  0.5534 -0.0914 -1.2674
  146SAPE  H12Y16147   0.601   0.577   9.190  1.2012 -2.1868 -0.2550
  146SAPE  C31316148   0.775   0.561   9.068  0.3276  0.0396 -0.7530
  146SAPE  H13X16149   0.823   0.468   9.105 -2.3232 -0.7364  0.8352
  146SAPE  H13Y16150   0.858   0.632   9.044  0.4867 -0.3651 -1.4067
  146SAPE  C31416151   0.702   0.523   8.939 -0.0493  0.2644  0.2860
  146SAPE  H14X16152   0.665   0.611   8.884  0.9459  1.6424  1.7704
  146SAPE  H14Y16153   0.616   0.459   8.969  1.1479 -1.9816 -0.9326
  146SAPE  C31516154   0.798   0.446   8.846 -0.3619  0.0387  0.3496
  146SAPE  H15X16155   0.820   0.344   8.883 -0.5834 -0.7483 -1.6492
  146SAPE  H15Y16156   0.893   0.502   8.837 -0.7931  0.6713 -0.3518
  146SAPE  C31616157   0.746   0.428   8.703 -0.4084  0.0626 -0.5930
  146SAPE  H16X16158   0.787   0.504   8.633 -1.1902  1.1753  0.1448
  146SAPE  H16Y16159   0.636   0.440   8.712 -0.4425 -0.5256 -0.2328
  146SAPE  C31716160   0.781   0.284   8.654  0.3603  0.1321  0.3330
  146SAPE  H17X16161   0.727   0.207   8.713  1.4908 -1.0114 -0.0896
  146SAPE  H17Y16162   0.891   0.276   8.670  0.2153 -0.1737  1.2573
  146SAPE  C31816163   0.755   0.266   8.504 -0.1634 -1.0199 -0.0737
  146SAPE  H18X16164   0.821   0.338   8.452 -0.7823  0.9504  1.7965
  146SAPE  H18Y16165   0.652   0.287   8.466  0.3313 -0.4106 -1.0774
  146SAPE  H18Z16166   0.794   0.168   8.469  0.9910  0.0992 -1.9779
  147SAPE     N16167   1.474   3.452  11.130 -0.4396  0.2378 -0.0938
  147SAPE   HN116168   1.461   3.409  11.224  0.8492  3.9053  1.8564
  147SAPE   HN216169   1.435   3.386  11.060 -3.0904  0.8649  0.7263
  147SAPE   HN316170   1.572   3.484  11.116  0.0483 -1.2353 -0.1007
  147SAPE   C1216171   1.392   3.580  11.123 -0.3659  0.6317  0.2745
  147SAPE  H12A16172   1.424   3.641  11.210 -0.0690 -1.4162  1.6514
  147SAPE  H12B16173   1.287   3.548  11.141 -0.5596 -0.2280 -2.2002
  147SAPE   C1116174   1.413   3.654  10.991  0.3069  0.1371 -0.5838
  147SAPE  H11A16175   1.517   3.692  10.982  0.4649  0.6231  2.7431
  147SAPE  H11B16176   1.351   3.746  10.991  2.2736  1.5267  1.9782
  147SAPE     P16177   1.305   3.605  10.757  0.4617  0.3671 -0.2345
  147SAPE   O1316178   1.180   3.522  10.729 -0.0122 -0.0273 -0.0330
  147SAPE   O1416179   1.297   3.753  10.750  0.3270  0.3964 -0.1461
  147SAPE   O1216180   1.372   3.562  10.886 -0.6219  0.5510 -0.4944
  147SAPE   O1116181   1.413   3.558  10.655  0.0658  0.1702  0.3944
  147SAPE    C116182   1.480   3.433  10.666 -0.1326  0.6752 -0.0016
  147SAPE    HA16183   1.431   3.363  10.737 -1.0606  0.0427 -1.2447
  147SAPE    HB16184   1.473   3.381  10.568 -0.1768  1.0446 -0.1954
  147SAPE    C216185   1.628   3.439  10.704 -0.0796 -0.7435  0.3229
  147SAPE    HS16186   1.629   3.472  10.810 -0.3711  1.8278 -0.4512
  147SAPE   O2116187   1.681   3.556  10.638  0.3143 -0.3312  0.3043
  147SAPE   C2116188   1.798   3.601  10.687  0.1897 -0.1422 -0.3052
  147SAPE   O2216189   1.860   3.553  10.780 -0.0604 -0.4255 -0.4223
  147SAPE   C2216190   1.848   3.711  10.601 -0.2650 -0.1747 -0.0611
  147SAPE   H2R16191   1.901   3.661  10.518  0.2369  0.6333 -0.2258
  147SAPE   H2S16192   1.760   3.773  10.572 -0.5873 -0.4342  0.3472
  147SAPE    C316193   1.707   3.299  10.691  0.5786  0.1033  0.1140
  147SAPE    HX16194   1.662   3.223  10.758 -2.8368  1.4073 -0.6089
  147SAPE    HY16195   1.812   3.304  10.725  0.3020  0.0458  0.9725
  147SAPE   O3116196   1.685   3.251  10.555  0.2160 -0.0087  0.4614
  147SAPE   C3116197   1.771   3.308  10.463 -0.1588 -0.1897  0.4535
  147SAPE   O3216198   1.856   3.389  10.490  0.0259  0.2593  0.0135
  147SAPE   C3216199   1.735   3.258  10.319 -0.5984 -0.4354 -0.4621
  147SAPE   H2X16200   1.660   3.332  10.282 -0.4656 -0.1929 -0.2531
  147SAPE   H2Y16201   1.688   3.158  10.317  1.3810 -1.4053  0.5635
  147SAPE   C2316202   1.951   3.811  10.668 -0.0302 -0.0780 -0.4452
  147SAPE   H3R16203   2.037   3.745  10.691  0.8679  0.3740 -2.4399
  147SAPE   H3S16204   1.912   3.847  10.766  0.9141 -2.6415  0.9307
  147SAPE   C2416205   1.993   3.929  10.585 -1.2734 -0.9616  0.0931
  147SAPE   H4R16206   2.040   3.896  10.489 -0.5279 -0.1428  0.1630
  147SAPE   H4S16207   2.070   3.989  10.639 -1.9942 -0.7558  0.9014
  147SAPE   C2516208   1.869   4.014  10.570 -0.3830 -0.6271  0.2813
  147SAPE   H5R16209   1.791   4.018  10.647  1.0309 -0.5990  1.7397
  147SAPE   C2616210   1.854   4.106  10.470  0.2238  0.2279  0.4078
  147SAPE   H6R16211   1.758   4.159  10.461  0.9657  1.4449 -0.5516
  147SAPE   C2716212   1.956   4.147  10.367 -0.2625 -1.1780 -0.2905
  147SAPE   H7R16213   1.967   4.059  10.300  0.1636 -0.8655 -0.6352
  147SAPE   H7S16214   2.053   4.158  10.421  0.2225 -1.9936 -0.9933
  147SAPE   C2816215   1.922   4.279  10.293  0.4031 -0.4081  0.0584
  147SAPE   H8R16216   1.930   4.372  10.350 -2.8181 -0.6999  1.0898
  147SAPE   C2916217   1.883   4.306  10.167  0.4305  0.4019 -0.7229
  147SAPE   H9R16218   1.878   4.412  10.138  0.6882 -0.0697 -2.5282
  147SAPE  C21016219   1.862   4.207  10.055  0.0623 -0.3727  0.7071
  147SAPE  H10R16220   1.791   4.252   9.983  1.6334  1.7230  0.4347
  147SAPE  H10S16221   1.815   4.113  10.093 -0.1294  0.3020  2.1820
  147SAPE  C21116222   1.997   4.173   9.998 -0.7129 -0.0658 -0.1760
  147SAPE  H11R16223   2.072   4.134  10.068  2.1249  0.5474 -2.7500
  147SAPE  C21216224   2.033   4.184   9.867  0.1426 -0.8381 -0.4175
  147SAPE  H12R16225   2.135   4.150   9.842  1.4204 -0.6772  4.1868
  147SAPE  C21316226   1.942   4.245   9.760  0.0189 -0.1580  0.2954
  147SAPE  H13R16227   2.019   4.292   9.695  1.7647 -0.6995  1.9063
  147SAPE  H13S16228   1.884   4.327   9.806 -1.8364 -0.8257 -0.7757
  147SAPE  C21416229   1.864   4.131   9.699  0.0230 -0.4837 -0.6278
  147SAPE  H14R16230   1.845   4.041   9.760 -1.8325 -0.3046 -0.9074
  147SAPE  C21516231   1.831   4.126   9.572  0.4080  0.2652  0.2156
  147SAPE  H15R16232   1.785   4.033   9.536 -0.0339  2.2361 -4.7419
  147SAPE  C21616233   1.856   4.235   9.470 -0.2553  0.2973 -0.0704
  147SAPE  H16R16234   1.880   4.336   9.508  2.9061 -0.6824  0.6298
  147SAPE  H16S16235   1.753   4.255   9.433 -0.5836  1.8044  1.5701
  147SAPE  C21716236   1.962   4.194   9.364  0.6191  0.7036 -0.0507
  147SAPE  H17R16237   2.061   4.167   9.407  0.8362  1.4039 -0.1012
  147SAPE  H17S16238   1.987   4.280   9.298 -1.0679  1.5320  0.3777
  147SAPE  C21816239   1.913   4.079   9.269  0.4083 -0.0877  0.5162
  147SAPE  H18R16240   1.808   4.083   9.235  0.2143  0.9250  1.2201
  147SAPE  H18S16241   1.918   3.991   9.335  1.5335  0.7459  1.5788
  147SAPE  C21916242   1.999   4.048   9.148 -0.2419 -0.5442  0.0903
  147SAPE  H19R16243   2.106   4.055   9.178  0.2787 -1.2006 -1.5876
  147SAPE  H19S16244   1.983   4.129   9.075  0.8435 -0.8027 -0.4428
  147SAPE  C22016245   1.961   3.921   9.076 -0.2595 -0.4649  0.4086
  147SAPE  H20R16246   1.861   3.934   9.031  0.8956  0.9387 -1.8045
  147SAPE  H20S16247   1.966   3.831   9.141  1.2493  0.7696  2.0564
  147SAPE  H20T16248   2.027   3.891   8.992 -0.4880 -1.0932  0.4447
  147SAPE   C3316249   1.859   3.252  10.230 -0.0713  1.2152  0.0936
  147SAPE   H3X16250   1.930   3.169  10.252 -1.8830 -0.1453  0.8873
  147SAPE   H3Y16251   1.920   3.345  10.237  1.2232  0.2874  1.5436
  147SAPE   C3416252   1.813   3.244  10.085 -0.9179 -0.2022  0.0342
  147SAPE   H4X16253   1.764   3.329  10.034 -1.8082 -1.6087 -1.4711
  147SAPE   H4Y16254   1.737   3.163  10.075 -1.1290 -0.0713  0.5193
  147SAPE   C3516255   1.931   3.222   9.991  0.1354  0.3694  0.1429
  147SAPE   H5X16256   1.990   3.130  10.012 -2.5904 -1.3145  0.7620
  147SAPE   H5Y16257   2.000   3.309  10.001  0.5816  0.1742 -1.1356
  147SAPE   C3616258   1.888   3.215   9.842 -0.1693 -0.4265  0.5546
  147SAPE   H6X16259   1.816   3.294   9.814 -0.2568 -1.1638 -1.3519
  147SAPE   H6Y16260   1.847   3.113   9.821  0.6283 -0.3217 -1.5984
  147SAPE   C3716261   2.007   3.236   9.750  0.5064  0.2759  0.2141
  147SAPE   H7X16262   2.086   3.159   9.767  2.1117  1.7254 -0.5224
  147SAPE   H7Y16263   2.060   3.330   9.778 -3.5004  2.3195  1.2409
  147SAPE   C3816264   1.956   3.247   9.606  1.0603  0.1018 -0.1502
  147SAPE   H8X16265   1.863   3.308   9.607  2.1868  1.8386 -0.2878
  147SAPE   H8Y16266   1.925   3.147   9.569  2.9679  0.2994 -2.3560
  147SAPE   C3916267   2.054   3.315   9.505  0.2524 -0.2599 -0.6266
  147SAPE   H9X16268   2.155   3.303   9.548 -0.6998 -2.6177  1.1045
  147SAPE   H9Y16269   2.030   3.423   9.509 -3.9770 -1.1042 -0.2289
  147SAPE  C31016270   2.027   3.270   9.361 -0.1222  0.3540 -0.7482
  147SAPE  H10X16271   2.058   3.164   9.350  0.5749  0.5257 -0.4584
  147SAPE  H10Y16272   2.093   3.329   9.295  0.4831 -0.4765 -0.8919
  147SAPE  C31116273   1.880   3.271   9.318  0.1831  0.1348 -0.0094
  147SAPE  H11X16274   1.837   3.372   9.336 -1.8302 -1.0097  1.7310
  147SAPE  H11Y16275   1.822   3.189   9.364 -1.2207  0.5604 -0.9841
  147SAPE  C31216276   1.860   3.247   9.172  0.3714  0.6071 -0.1700
  147SAPE  H12X16277   1.934   3.311   9.119  0.9478  1.4094  1.5730
  147SAPE  H12Y16278   1.763   3.287   9.136 -0.2742 -0.0923  0.8024
  147SAPE  C31316279   1.889   3.101   9.121  0.0123  0.2243 -0.5348
  147SAPE  H13X16280   1.838   3.021   9.180 -2.0547  0.3904 -2.0231
  147SAPE  H13Y16281   1.997   3.081   9.138 -0.0503  0.0097 -0.3878
  147SAPE  C31416282   1.858   3.076   8.979 -0.5393 -0.6041 -0.3580
  147SAPE  H14X16283   1.916   3.156   8.927 -1.3788  0.9799  1.0923
  147SAPE  H14Y16284   1.751   3.098   8.960 -0.0306  0.7579 -1.8274
  147SAPE  C31516285   1.900   2.936   8.924 -0.3256 -0.9015  0.2507
  147SAPE  H15X16286   1.815   2.875   8.962 -0.7806  0.0425  0.7673
  147SAPE  H15Y16287   1.994   2.900   8.969 -0.6509 -1.3172  0.6019
  147SAPE  C31616288   1.891   2.938   8.771 -0.0215  0.0584 -0.1954
  147SAPE  H16X16289   1.978   2.999   8.738 -0.5953  0.4425 -1.0327
  147SAPE  H16Y16290   1.789   2.964   8.733  0.7765 -0.2605 -2.6853
  147SAPE  C31716291   1.917   2.803   8.710 -0.0658 -0.3360 -0.7889
  147SAPE  H17X16292   1.858   2.722   8.758 -0.2710 -0.9301 -2.0237
  147SAPE  H17Y16293   2.020   2.772   8.740 -0.5029 -0.9591  0.0911
  147SAPE  C31816294   1.901   2.796   8.557 -0.0315  0.0745  0.8451
  147SAPE  H18X16295   1.806   2.835   8.516  0.4173  0.4256  0.1090
  147SAPE  H18Y16296   1.933   2.702   8.507 -3.0456 -1.2955  1.3980
  147SAPE  H18Z16297   1.967   2.874   8.512 -1.0015  0.9446  0.9016
  148SAPE     N16298   2.818   6.306  10.683 -0.3245 -0.1102 -0.2359
  148SAPE   HN116299   2.773   6.355  10.603  0.1811  1.7641  0.6101
  148SAPE   HN216300   2.774   6.348  10.768  1.0324  1.1112 -0.1275
  148SAPE   HN316301   2.919   6.327  10.688  0.4054 -3.4749  0.8444
  148SAPE   C1216302   2.805   6.158  10.660 -0.2620 -0.2348 -0.2362
  148SAPE  H12A16303   2.872   6.093  10.720  1.3053  0.7638 -0.8813
  148SAPE  H12B16304   2.834   6.136  10.555 -1.8244  0.1868 -0.7615
  148SAPE   C1116305   2.666   6.095  10.680 -0.3282 -0.6425  0.4643
  148SAPE  H11A16306   2.590   6.160  10.631  1.5244  2.1561  1.1986
  148SAPE  H11B16307   2.637   6.100  10.788  0.6154 -1.1631  0.7509
  148SAPE     P16308   2.556   5.890  10.546 -0.2395  0.3476 -0.2098
  148SAPE   O1316309   2.442   5.839  10.626  0.1617  0.7475 -0.8229
  148SAPE   O1416310   2.530   5.987  10.440 -0.0938 -0.1795 -0.0488
  148SAPE   O1216311   2.654   5.958  10.657 -0.3028  0.7852 -0.3215
  148SAPE   O1116312   2.644   5.772  10.501  0.0760  0.0024 -0.0094
  148SAPE    C116313   2.782   5.795  10.453 -0.3558 -0.1470  0.0434
  148SAPE    HA16314   2.785   5.821  10.345 -0.8026 -1.1248 -0.2090
  148SAPE    HB16315   2.839   5.869  10.513  1.3572 -0.6358 -0.9502
  148SAPE    C216316   2.885   5.678  10.475  0.2180 -0.3255 -0.3185
  148SAPE    HS16317   2.894   5.649  10.582  2.5045 -0.9442 -0.6588
  148SAPE   O2116318   3.001   5.730  10.420 -0.1020 -0.0813  0.6499
  148SAPE   C2116319   3.108   5.659  10.447  0.2802  0.0490  0.1304
  148SAPE   O2216320   3.124   5.569  10.523  0.3777 -0.3340  0.3670
  148SAPE   C2216321   3.225   5.717  10.357  0.5409 -0.3054 -0.0471
  148SAPE   H2R16322   3.297   5.759  10.430  0.3563 -1.3727  0.7640
  148SAPE   H2S16323   3.269   5.629  10.305  2.1734  0.6699 -0.3488
  148SAPE    C316324   2.847   5.542  10.406 -0.3906 -0.3283  0.1637
  148SAPE    HX16325   2.747   5.514  10.447  0.6589 -0.8140  2.4403
  148SAPE    HY16326   2.929   5.468  10.420  0.4333  0.3283 -1.0922
  148SAPE   O3116327   2.822   5.561  10.266  0.6256  0.9120 -0.2432
  148SAPE   C3116328   2.920   5.530  10.186 -0.2692  0.2059  0.3505
  148SAPE   O3216329   3.026   5.482  10.216 -0.4758  0.3095  0.3323
  148SAPE   C3216330   2.870   5.571  10.042  0.3511  0.1863  0.5786
  148SAPE   H2X16331   2.849   5.680  10.039  3.7947  0.8833  0.7368
  148SAPE   H2Y16332   2.777   5.515  10.015  1.5061 -1.6010  0.2162
  148SAPE   C2316333   3.186   5.826  10.246  0.2884  0.3104 -0.0679
  148SAPE   H3R16334   3.152   5.918  10.298  0.2314  0.6543 -0.7063
  148SAPE   H3S16335   3.102   5.790  10.182 -0.2836  0.5219  0.5609
  148SAPE   C2416336   3.299   5.864  10.143  0.3100 -0.5662  0.4168
  148SAPE   H4R16337   3.338   5.766  10.108  2.7234  0.8647 -1.0800
  148SAPE   H4S16338   3.388   5.897  10.202  0.1124  2.1235 -0.7164
  148SAPE   C2516339   3.272   5.966  10.031  0.2859 -0.3437  0.5878
  148SAPE   H5R16340   3.230   6.062  10.066 -0.9645 -1.0985  1.2028
  148SAPE   C2616341   3.266   5.944   9.905  0.3124  0.4416  0.0191
  148SAPE   H6R16342   3.231   6.027   9.842 -0.3473 -0.0250 -0.2337
  148SAPE   C2716343   3.283   5.812   9.828 -0.2914  0.4684 -0.8060
  148SAPE   H7R16344   3.186   5.795   9.777 -3.0475  0.9146  3.9722
  148SAPE   H7S16345   3.289   5.726   9.897  0.9087  0.2271 -1.1975
  148SAPE   C2816346   3.401   5.822   9.738  0.6771 -0.0771  0.4532
  148SAPE   H8R16347   3.496   5.787   9.782  1.4825  1.3271 -0.1471
  148SAPE   C2916348   3.407   5.848   9.610 -0.4379 -0.7433  0.1710
  148SAPE   H9R16349   3.506   5.841   9.564  1.2991 -1.2137  3.8168
  148SAPE  C21016350   3.291   5.879   9.518  0.1902 -0.1382 -0.2254
  148SAPE  H10R16351   3.199   5.899   9.577 -0.1433  0.5589 -0.9682
  148SAPE  H10S16352   3.275   5.776   9.478  1.1613 -0.3176 -0.1576
  148SAPE  C21116353   3.308   5.992   9.422  0.5123 -0.0849 -0.5685
  148SAPE  H11R16354   3.262   6.083   9.463 -1.4595 -0.8721 -0.9369
  148SAPE  C21216355   3.372   5.994   9.311 -0.5468 -0.1291  0.9654
  148SAPE  H12R16356   3.368   6.088   9.255  0.0858 -0.9290 -0.4546
  148SAPE  C21316357   3.442   5.874   9.250  0.0116 -0.7822  0.7197
  148SAPE  H13R16358   3.369   5.814   9.192 -0.5841  1.9954 -1.4927
  148SAPE  H13S16359   3.487   5.810   9.329 -1.0532 -0.4949  1.5574
  148SAPE  C21416360   3.557   5.924   9.173 -1.1364  0.2521  0.3345
  148SAPE  H14R16361   3.651   5.907   9.227 -2.0107 -1.4307  1.3963
  148SAPE  C21516362   3.558   6.007   9.068 -0.1806  1.0885  0.6737
  148SAPE  H15R16363   3.656   6.032   9.025  0.1187  0.1561  0.8101
  148SAPE  C21616364   3.438   6.066   8.992  0.1237 -0.6927 -0.0158
  148SAPE  H16R16365   3.436   6.175   9.012 -1.5062 -0.7808  0.3435
  148SAPE  H16S16366   3.342   6.040   9.040  0.0534  1.3762  1.0147
  148SAPE  C21716367   3.443   6.046   8.849 -0.6420  0.4196  0.2839
  148SAPE  H17R16368   3.445   5.939   8.817 -2.5373  0.5275 -0.2416
  148SAPE  H17S16369   3.533   6.104   8.817 -0.2947 -0.2803 -0.0416
  148SAPE  C21816370   3.322   6.095   8.776 -0.6963 -0.1532  0.0339
  148SAPE  H18R16371   3.240   6.031   8.815 -0.9383 -0.1026 -0.3903
  148SAPE  H18S16372   3.341   6.070   8.669  0.0393  0.0571  0.1111
  148SAPE  C21916373   3.285   6.242   8.799  0.1613  0.3240 -0.2020
  148SAPE  H19R16374   3.379   6.302   8.796  0.8467 -0.7505 -0.4984
  148SAPE  H19S16375   3.239   6.252   8.900  0.7560 -1.9979  0.3305
  148SAPE  C22016376   3.183   6.289   8.694  0.5160  0.1296  0.2549
  148SAPE  H20R16377   3.122   6.374   8.732  2.9853  1.3028  1.6827
  148SAPE  H20S16378   3.117   6.204   8.665 -0.3019  0.2474  1.7546
  148SAPE  H20T16379   3.237   6.302   8.598  0.6500  2.2879  0.5943
  148SAPE   C3316380   2.979   5.538   9.938 -0.1354 -0.0598 -0.2922
  148SAPE   H3X16381   2.965   5.432   9.909  2.8908 -0.8167  0.8404
  148SAPE   H3Y16382   3.075   5.566   9.987 -0.2893 -1.3742  0.7698
  148SAPE   C3416383   2.952   5.611   9.807 -0.1139  1.0122  0.6530
  148SAPE   H4X16384   2.967   5.721   9.804  0.0464  1.0372  2.1087
  148SAPE   H4Y16385   2.844   5.599   9.784 -0.0652  2.4872 -0.4962
  148SAPE   C3516386   3.032   5.549   9.694 -0.6051 -0.5312 -0.4935
  148SAPE   H5X16387   3.023   5.438   9.696  0.7565 -0.6578 -0.9087
  148SAPE   H5Y16388   3.140   5.563   9.718 -0.7774 -0.4016  0.2201
  148SAPE   C3616389   2.998   5.586   9.551 -0.5515  0.5614  0.0453
  148SAPE   H6X16390   3.017   5.695   9.539 -0.7599  0.5962  0.0216
  148SAPE   H6Y16391   2.890   5.565   9.537 -0.5928  0.1197  0.9878
  148SAPE   C3716392   3.070   5.510   9.437  0.2268 -0.1669 -0.0070
  148SAPE   H7X16393   3.066   5.404   9.468 -1.7524 -0.7293 -2.1122
  148SAPE   H7Y16394   3.177   5.540   9.424  0.0672  0.0162 -0.8788
  148SAPE   C3816395   2.997   5.532   9.307  0.2184 -0.1129 -0.0062
  148SAPE   H8X16396   2.944   5.629   9.304 -0.2012 -0.3408 -0.0556
  148SAPE   H8Y16397   2.920   5.452   9.311  0.8926 -0.8565 -1.4175
  148SAPE   C3916398   3.097   5.499   9.192 -0.7956  0.7433 -0.0332
  148SAPE   H9X16399   3.131   5.396   9.216 -0.3297  0.6652 -1.0158
  148SAPE   H9Y16400   3.185   5.565   9.183 -1.0302  1.0495 -0.0786
  148SAPE  C31016401   3.022   5.502   9.059  0.5893 -0.1671 -0.4265
  148SAPE  H10X16402   3.018   5.607   9.022 -2.6762 -0.0295  0.1517
  148SAPE  H10Y16403   2.926   5.455   9.088 -0.1430  0.4752 -1.7611
  148SAPE  C31116404   3.091   5.415   8.943 -0.4141 -0.1450 -0.1688
  148SAPE  H11X16405   3.127   5.321   8.990 -0.1111  1.0956  2.1773
  148SAPE  H11Y16406   3.188   5.464   8.920 -0.0366  1.4120  4.3154
  148SAPE  C31216407   3.004   5.380   8.819  0.0410  0.1061  0.4084
  148SAPE  H12X16408   2.967   5.479   8.788 -3.1845 -0.6846  1.4867
  148SAPE  H12Y16409   2.910   5.327   8.846  0.9579 -1.7585  0.1011
  148SAPE  C31316410   3.086   5.309   8.706  1.4078 -0.2053  0.1308
  148SAPE  H13X16411   3.136   5.220   8.748  2.1878 -0.6081 -1.6082
  148SAPE  H13Y16412   3.172   5.375   8.683  0.2986  1.5849  0.9466
  148SAPE  C31416413   3.001   5.298   8.587 -0.2594 -0.0065 -0.8298
  148SAPE  H14X16414   2.964   5.402   8.577  0.1900  0.6268  3.1404
  148SAPE  H14Y16415   2.933   5.215   8.617  0.6922 -0.2008  0.8676
  148SAPE  C31516416   3.079   5.254   8.470 -0.0647 -0.3298  0.1669
  148SAPE  H15X16417   3.144   5.164   8.479  0.4697  0.2482  2.5982
  148SAPE  H15Y16418   3.141   5.343   8.445 -1.1115  0.0292 -1.1972
  148SAPE  C31616419   2.991   5.237   8.344 -0.0188 -0.7380  0.2850
  148SAPE  H16X16420   2.933   5.332   8.336 -1.3825 -1.5956 -0.0646
  148SAPE  H16Y16421   2.921   5.158   8.377 -1.0125  0.4047  0.9631
  148SAPE  C31716422   3.069   5.221   8.212  0.4015  0.0136 -1.0007
  148SAPE  H17X16423   2.990   5.208   8.135  0.6306 -2.3349 -0.8746
  148SAPE  H17Y16424   3.120   5.123   8.204 -1.2317 -0.6816 -3.7309
  148SAPE  C31816425   3.157   5.340   8.187 -0.0219  0.7529  0.0633
  148SAPE  H18X16426   3.205   5.336   8.086  0.6485  2.9453  0.2772
  148SAPE  H18Y16427   3.244   5.342   8.256  1.7609 -0.7668 -2.0372
  148SAPE  H18Z16428   3.096   5.432   8.184 -0.1999  0.6515  0.6591
  149SAPE     N16429   5.448   0.202  11.123 -0.6392 -0.5338 -0.5501
  149SAPE   HN116430   5.536   0.150  11.103 -0.4275  0.7287 -3.0696
  149SAPE   HN216431   5.454   0.269  11.202  2.4277 -1.8630  0.4104
  149SAPE   HN316432   5.372   0.137  11.150 -0.2506 -1.5369 -1.8157
  149SAPE   C1216433   5.405   0.265  10.987 -0.0218  0.3059  0.1577
  149SAPE  H12A16434   5.366   0.177  10.933  1.9885 -1.8934  2.1786
  149SAPE  H12B16435   5.498   0.300  10.936 -0.3106 -0.0242 -0.5976
  149SAPE   C1116436   5.308   0.384  11.006  0.0421  0.2597  0.1548
  149SAPE  H11A16437   5.231   0.342  11.074  0.5099  2.1777  1.9134
  149SAPE  H11B16438   5.269   0.406  10.905 -1.8270 -0.9903  0.5856
  149SAPE     P16439   5.472   0.593  10.985  0.5016  0.2229 -0.2684
  149SAPE   O1316440   5.430   0.734  10.996  0.3346 -0.0504  0.1867
  149SAPE   O1416441   5.609   0.554  11.027  0.1948 -0.4013  0.4993
  149SAPE   O1216442   5.374   0.495  11.066 -0.1757 -0.4327  0.1770
  149SAPE   O1116443   5.450   0.559  10.830  0.5010 -0.4986  0.3652
  149SAPE    C116444   5.544   0.606  10.732 -0.1417  0.3042 -0.1299
  149SAPE    HA16445   5.588   0.704  10.760 -1.0173  0.7665 -0.3661
  149SAPE    HB16446   5.629   0.535  10.733  1.4063  2.0889  3.8123
  149SAPE    C216447   5.485   0.603  10.591 -0.3867 -0.0080 -0.0769
  149SAPE    HS16448   5.568   0.606  10.518  0.7336  2.6830  1.2388
  149SAPE   O2116449   5.388   0.708  10.568  0.3618 -0.5496 -0.3435
  149SAPE   C2116450   5.442   0.832  10.559  0.5115  0.7047  0.0525
  149SAPE   O2216451   5.559   0.861  10.577 -0.6415  0.3316 -0.1660
  149SAPE   C2216452   5.337   0.936  10.524 -0.5573 -0.2589 -0.5851
  149SAPE   H2R16453   5.235   0.894  10.539 -1.5241  1.0060 -3.3779
  149SAPE   H2S16454   5.363   1.014  10.599 -1.3546  0.8910 -1.5029
  149SAPE    C316455   5.412   0.465  10.567 -0.4675 -0.7433  0.1633
  149SAPE    HX16456   5.331   0.469  10.642  0.2810 -2.1820  1.0695
  149SAPE    HY16457   5.461   0.373  10.605  1.6750  0.4052  0.2324
  149SAPE   O3116458   5.366   0.453  10.434  0.0877  0.2440  0.2893
  149SAPE   C3116459   5.470   0.421  10.344 -0.0549  0.3679  0.3377
  149SAPE   O3216460   5.578   0.382  10.385  0.5960  0.0713 -0.6650
  149SAPE   C3216461   5.435   0.446  10.200 -0.0286 -0.3756 -0.4936
  149SAPE   H2X16462   5.352   0.520  10.191 -0.2766 -0.6916 -0.8134
  149SAPE   H2Y16463   5.413   0.348  10.154  0.5223 -0.5463 -0.3831
  149SAPE   C2316464   5.359   0.983  10.376 -0.2123 -0.1544 -1.0207
  149SAPE   H3R16465   5.447   1.051  10.382  0.2922 -0.8393 -0.6012
  149SAPE   H3S16466   5.269   1.045  10.356 -0.2723  0.2465  0.4239
  149SAPE   C2416467   5.364   0.884  10.265 -0.7530  0.2431  0.4645
  149SAPE   H4R16468   5.451   0.820  10.288 -1.2224 -0.4625  0.2793
  149SAPE   H4S16469   5.397   0.935  10.172 -2.7177 -0.3120 -0.5795
  149SAPE   C2516470   5.223   0.817  10.244  0.2094  0.0411 -0.1659
  149SAPE   H5R16471   5.203   0.745  10.325 -1.8127  0.8154  0.0435
  149SAPE   C2616472   5.143   0.825  10.144  0.2499  0.3794  0.2208
  149SAPE   H6R16473   5.049   0.767  10.146 -0.4623  1.5399  0.6180
  149SAPE   C2716474   5.160   0.912  10.016 -0.3613  0.4282  0.9890
  149SAPE   H7R16475   5.160   1.018  10.049 -0.8455  0.0272  2.3226
  149SAPE   H7S16476   5.067   0.907   9.956  1.2995 -2.3576 -1.5296
  149SAPE   C2816477   5.288   0.886   9.935  0.0498  0.0062  0.5337
  149SAPE   H8R16478   5.373   0.840   9.986  0.7268  2.5476  1.7241
  149SAPE   C2916479   5.299   0.910   9.805  0.0774  0.4032  0.1474
  149SAPE   H9R16480   5.397   0.888   9.760  0.9023  1.7989  1.2132
  149SAPE  C21016481   5.203   0.970   9.703  0.1717 -0.3808 -0.2099
  149SAPE  H10R16482   5.245   1.071   9.680  2.6166 -1.0975  0.8772
  149SAPE  H10S16483   5.103   0.984   9.749  0.3095  1.1018 -0.3263
  149SAPE  C21116484   5.185   0.885   9.582 -0.5261  0.8395  0.9020
  149SAPE  H11R16485   5.214   0.779   9.587 -0.3742  0.6921 -2.1930
  149SAPE  C21216486   5.140   0.927   9.461  0.2214 -0.2826  0.0541
  149SAPE  H12R16487   5.130   0.856   9.378  2.7674 -1.6615  0.8938
  149SAPE  C21316488   5.092   1.065   9.427  0.2749  0.3669 -1.0050
  149SAPE  H13R16489   5.083   1.117   9.525 -1.3445 -1.1827 -0.2989
  149SAPE  H13S16490   4.990   1.054   9.383 -0.7523 -0.5700  1.5252
  149SAPE  C21416491   5.206   1.120   9.346  0.2993  0.0192  0.2187
  149SAPE  H14R16492   5.288   1.166   9.403 -0.0965  1.6261 -0.4896
  149SAPE  C21516493   5.207   1.146   9.209 -0.4833 -0.2280  0.0538
  149SAPE  H15R16494   5.298   1.187   9.164 -0.2115 -2.2372 -1.2355
  149SAPE  C21616495   5.101   1.129   9.109 -0.1597  0.6352  0.0972
  149SAPE  H16R16496   5.089   1.222   9.049  0.5361  1.2538  0.9105
  149SAPE  H16S16497   5.002   1.120   9.158 -2.2959 -0.3947 -4.1116
  149SAPE  C21716498   5.108   1.012   9.010 -0.5486  0.4037  0.2218
  149SAPE  H17R16499   5.186   1.040   8.936  0.0765 -0.9492  0.3542
  149SAPE  H17S16500   5.016   1.003   8.948 -1.7409 -0.4906  2.0670
  149SAPE  C21816501   5.152   0.877   9.058 -0.0048  0.2230  0.0877
  149SAPE  H18R16502   5.081   0.844   9.137 -2.4668  1.4036 -1.5736
  149SAPE  H18S16503   5.254   0.885   9.102  0.4543 -3.1777 -0.1796
  149SAPE  C21916504   5.164   0.777   8.936 -0.2827  0.7811  0.1413
  149SAPE  H19R16505   5.206   0.681   8.974  0.7869  0.3796 -2.0067
  149SAPE  H19S16506   5.224   0.829   8.859  1.1126 -0.0222  0.6636
  149SAPE  C22016507   5.031   0.745   8.872  0.1312 -0.3908  0.1526
  149SAPE  H20R16508   4.970   0.831   8.836 -0.5988 -0.8201  0.3507
  149SAPE  H20S16509   4.976   0.692   8.952 -0.0565 -1.2591 -0.5457
  149SAPE  H20T16510   5.043   0.672   8.790 -1.9240 -1.1027  0.4664
  149SAPE   C3316511   5.549   0.499  10.119 -0.5421  0.2717  0.2496
  149SAPE   H3X16512   5.626   0.419  10.111 -0.0977  0.9741 -3.0654
  149SAPE   H3Y16513   5.590   0.594  10.159  0.9689  0.0329 -0.6996
  149SAPE   C3416514   5.505   0.521   9.972 -0.0624  0.1708 -0.8174
  149SAPE   H4X16515   5.438   0.609   9.962 -0.0511  0.0536 -2.0908
  149SAPE   H4Y16516   5.450   0.427   9.950 -1.0594  0.4225  0.5737
  149SAPE   C3516517   5.625   0.546   9.874  0.6070 -0.1156  0.1728
  149SAPE   H5X16518   5.696   0.462   9.862  3.0518  1.6408  1.9290
  149SAPE   H5Y16519   5.674   0.638   9.912  0.8831 -1.0078  1.9946
  149SAPE   C3616520   5.570   0.580   9.733 -0.8791 -0.0285  0.3760
  149SAPE   H6X16521   5.487   0.654   9.738 -0.0936  0.7988  1.3868
  149SAPE   H6Y16522   5.538   0.485   9.686  2.6891 -1.6276  1.0390
  149SAPE   C3716523   5.691   0.636   9.643 -0.0016 -0.1012 -0.4884
  149SAPE   H7X16524   5.790   0.587   9.656  1.5042  3.0947  0.6296
  149SAPE   H7Y16525   5.707   0.736   9.688 -0.6763 -1.2537  2.5106
  149SAPE   C3816526   5.659   0.655   9.499  0.3032  0.2804 -0.4056
  149SAPE   H8X16527   5.633   0.553   9.464  0.0107 -0.6430  2.3698
  149SAPE   H8Y16528   5.749   0.693   9.446 -1.0660  1.8718 -1.6859
  149SAPE   C3916529   5.532   0.740   9.467 -0.3781 -0.0097 -0.4824
  149SAPE   H9X16530   5.539   0.845   9.503 -1.5231 -0.1961  0.3195
  149SAPE   H9Y16531   5.452   0.700   9.534  0.4359  1.6916  1.5883
  149SAPE  C31016532   5.490   0.729   9.322  0.1620  0.1112  0.5218
  149SAPE  H10X16533   5.407   0.800   9.299  0.0490 -0.9738 -2.6038
  149SAPE  H10Y16534   5.460   0.623   9.310  1.5347 -0.1914 -0.2535
  149SAPE  C31116535   5.599   0.757   9.219  0.3127  0.1414  0.0203
  149SAPE  H11X16536   5.669   0.672   9.230  0.0480 -0.0818 -0.0163
  149SAPE  H11Y16537   5.655   0.848   9.249 -0.2900  1.5012 -2.7551
  149SAPE  C31216538   5.551   0.776   9.073  0.1458  0.4349 -0.2460
  149SAPE  H12X16539   5.508   0.879   9.068  0.8322  0.8455  1.7948
  149SAPE  H12Y16540   5.477   0.700   9.041  0.5641 -0.7120  1.5119
  149SAPE  C31316541   5.661   0.785   8.974  0.0386  0.3953 -1.4144
  149SAPE  H13X16542   5.710   0.685   8.967 -0.6971 -0.0519 -0.2844
  149SAPE  H13Y16543   5.741   0.859   8.997 -1.9165  2.2966 -0.5880
  149SAPE  C31416544   5.606   0.808   8.829 -0.3640  0.2892  0.1741
  149SAPE  H14X16545   5.530   0.728   8.813 -0.5842  0.5402 -0.0298
  149SAPE  H14Y16546   5.694   0.807   8.761 -0.1826 -1.3808  0.4032
  149SAPE  C31516547   5.549   0.946   8.819  0.1664  0.4551  0.9565
  149SAPE  H15X16548   5.620   1.015   8.868 -0.5807 -0.3219  3.1594
  149SAPE  H15Y16549   5.448   0.943   8.866 -0.9800 -1.1817 -1.4505
  149SAPE  C31616550   5.528   0.981   8.661  0.2178  0.1166  0.3899
  149SAPE  H16X16551   5.427   0.945   8.632 -0.2232  1.3364  0.3728
  149SAPE  H16Y16552   5.602   0.919   8.606 -0.3866  0.7739 -1.2139
  149SAPE  C31716553   5.549   1.119   8.598  0.6765  0.0914  0.2914
  149SAPE  H17X16554   5.574   1.097   8.492  1.0857 -0.1928  0.4495
  149SAPE  H17Y16555   5.635   1.173   8.642  1.0161  2.2298 -2.7735
  149SAPE  C31816556   5.432   1.215   8.614  0.7586  0.3898 -0.1198
  149SAPE  H18X16557   5.413   1.237   8.721 -1.8393 -0.8191 -0.2777
  149SAPE  H18Y16558   5.337   1.179   8.568  1.4570  0.8543 -1.9804
  149SAPE  H18Z16559   5.468   1.308   8.566 -0.6695  1.8374  1.5651
  150SAPE     N16560   6.668   0.301  10.879 -0.0749 -0.2570  0.6301
  150SAPE   HN116561   6.734   0.380  10.866 -1.4445  0.8080  0.0239
  150SAPE   HN216562   6.589   0.325  10.942 -1.1304  1.2811 -1.2044
  150SAPE   HN316563   6.728   0.223  10.912  3.0867  2.5887  1.9773
  150SAPE   C1216564   6.606   0.269  10.743 -0.2152 -0.4756  0.6217
  150SAPE  H12A16565   6.552   0.362  10.716  0.4915 -0.3423 -0.3429
  150SAPE  H12B16566   6.531   0.190  10.764 -0.7666  0.1389  0.9845
  150SAPE   C1116567   6.717   0.220  10.644  0.4000 -0.3734 -0.2321
  150SAPE  H11A16568   6.805   0.287  10.644 -1.1571  1.7595 -2.7137
  150SAPE  H11B16569   6.676   0.226  10.541 -2.0221  1.3651  0.7889
  150SAPE     P16570   6.839   0.026  10.784  0.1455  0.3010 -0.2299
  150SAPE   O1316571   6.819   0.084  10.917 -0.6350 -0.3810 -0.4237
  150SAPE   O1416572   6.825  -0.120  10.775  0.2162  0.1468  0.2559
  150SAPE   O1216573   6.739   0.083  10.680 -0.8070 -0.6278 -0.4104
  150SAPE   O1116574   6.986   0.067  10.736  0.4733 -0.6012 -0.2386
  150SAPE    C116575   7.032   0.009  10.618  0.4169 -0.1206  0.0956
  150SAPE    HA16576   7.058  -0.096  10.645 -2.2449 -0.6843  0.5989
  150SAPE    HB16577   6.959  -0.001  10.534  0.2917 -2.0931  0.4166
  150SAPE    C216578   7.167   0.061  10.561  0.6497  0.0079 -1.0718
  150SAPE    HS16579   7.222   0.107  10.645  2.2920 -1.3525 -1.3794
  150SAPE   O2116580   7.129   0.149  10.455  0.1835 -0.2063 -0.3067
  150SAPE   C2116581   7.088   0.268  10.481 -0.0314  0.5470  0.9809
  150SAPE   O2216582   7.096   0.328  10.587 -0.0941 -0.3387 -0.2299
  150SAPE   C2216583   7.040   0.330  10.351  0.5055 -0.3414 -0.4712
  150SAPE   H2R16584   7.003   0.431  10.375 -1.3674 -1.3056  0.7792
  150SAPE   H2S16585   7.129   0.333  10.284 -1.3367 -0.8539 -3.0162
  150SAPE    C316586   7.254  -0.048  10.503 -0.1923  0.1627 -0.7858
  150SAPE    HX16587   7.189  -0.110  10.438  2.0437 -0.9917 -1.9841
  150SAPE    HY16588   7.283  -0.107  10.592 -1.1688 -0.0513 -0.6029
  150SAPE   O3116589   7.363   0.008  10.420  0.0087 -0.2244 -0.0050
  150SAPE   C3116590   7.483  -0.039  10.448  0.1873 -0.2523 -0.1480
  150SAPE   O3216591   7.503  -0.134  10.523  0.1318  0.3745  0.0441
  150SAPE   C3216592   7.589   0.044  10.369 -0.6828 -1.0101  0.4090
  150SAPE   H2X16593   7.680   0.040  10.433 -0.3792 -2.7133 -0.1108
  150SAPE   H2Y16594   7.552   0.148  10.367 -0.4128 -0.8378  2.8813
  150SAPE   C2316595   6.937   0.252  10.273  0.5117  0.0463 -0.0859
  150SAPE   H3R16596   6.858   0.320  10.236 -1.8593 -2.6808 -0.1955
  150SAPE   H3S16597   6.887   0.176  10.337  1.2327  0.2386  0.7055
  150SAPE   C2416598   6.991   0.184  10.150 -0.2366  0.0012 -0.5994
  150SAPE   H4R16599   7.090   0.142  10.178  0.0231  0.6731 -0.5109
  150SAPE   H4S16600   6.996   0.252  10.063 -0.3043 -1.3437 -1.6770
  150SAPE   C2516601   6.902   0.081  10.098 -0.4835  0.2328 -0.9178
  150SAPE   H5R16602   6.800   0.079  10.141  0.8881 -0.0802  2.4848
  150SAPE   C2616603   6.930   0.008   9.994 -0.0822  0.1261  0.1574
  150SAPE   H6R16604   6.853  -0.049   9.941 -0.3412  1.2085 -0.6646
  150SAPE   C2716605   7.055   0.018   9.914 -0.5257 -0.4152 -0.5559
  150SAPE   H7R16606   7.146   0.005   9.976  0.3894  0.5731 -1.6597
  150SAPE   H7S16607   7.076   0.123   9.882 -1.5486  0.2690  0.9795
  150SAPE   C2816608   7.065  -0.067   9.785 -0.2578  0.3838 -0.3121
  150SAPE   H8R16609   7.107  -0.167   9.803 -1.7171  0.1213  1.8178
  150SAPE   C2916610   7.012  -0.038   9.664 -0.3219  0.1953 -0.4129
  150SAPE   H9R16611   7.021  -0.113   9.584  0.1210  0.6537 -0.8024
  150SAPE  C21016612   6.947   0.088   9.623  0.3673  0.8512 -0.7966
  150SAPE  H10R16613   6.965   0.166   9.700  0.3590 -0.1322  0.2113
  150SAPE  H10S16614   6.839   0.061   9.621  0.4636  0.3920 -0.1158
  150SAPE  C21116615   6.992   0.149   9.490  0.2273 -0.8887  0.0261
  150SAPE  H11R16616   7.083   0.210   9.491  0.8194 -1.7945  1.8475
  150SAPE  C21216617   6.946   0.118   9.366  0.3430  0.6349 -0.2301
  150SAPE  H12R16618   6.985   0.163   9.274 -0.4971  1.0060 -0.4120
  150SAPE  C21316619   6.838   0.009   9.337  0.4064 -0.3044 -0.1639
  150SAPE  H13R16620   6.860  -0.089   9.383  0.8603  0.1804  0.6806
  150SAPE  H13S16621   6.844  -0.011   9.228  0.5449 -1.4362  0.0516
  150SAPE  C21416622   6.706   0.062   9.377  0.4502 -0.0660  0.6109
  150SAPE  H14R16623   6.665   0.044   9.477 -2.2414  1.2163 -0.2025
  150SAPE  C21516624   6.621   0.133   9.299  0.3068 -0.1382  0.4812
  150SAPE  H15R16625   6.523   0.160   9.342  0.2054  0.4204 -0.0954
  150SAPE  C21616626   6.636   0.183   9.154 -0.5619  0.0741  0.9853
  150SAPE  H16R16627   6.734   0.167   9.104 -2.5404 -1.4293 -2.5479
  150SAPE  H16S16628   6.626   0.294   9.149  3.2655  0.4566 -0.0579
  150SAPE  C21716629   6.528   0.120   9.066  0.4342 -0.4897 -0.1542
  150SAPE  H17R16630   6.424   0.145   9.094  0.0264 -2.2292 -0.0338
  150SAPE  H17S16631   6.542   0.010   9.076 -0.9545 -0.6638 -0.0218
  150SAPE  C21816632   6.540   0.164   8.924 -0.2788 -0.0046  0.0993
  150SAPE  H18R16633   6.642   0.140   8.887 -0.5923  0.3971 -1.0604
  150SAPE  H18S16634   6.530   0.274   8.916  1.6989  0.4141  2.8808
  150SAPE  C21916635   6.443   0.083   8.841 -0.0747  0.2487  0.1748
  150SAPE  H19R16636   6.338   0.092   8.875 -0.1990  0.6069 -0.3068
  150SAPE  H19S16637   6.464  -0.026   8.845 -2.1743 -0.1540  0.6114
  150SAPE  C22016638   6.448   0.120   8.693 -0.4297 -0.3086  0.5153
  150SAPE  H20R16639   6.388   0.040   8.646  0.4529 -1.8814  1.9856
  150SAPE  H20S16640   6.555   0.116   8.663  0.2220  0.2651  2.6348
  150SAPE  H20T16641   6.400   0.217   8.668  0.2802 -0.8988 -3.4440
  150SAPE   C3316642   7.605  -0.009  10.233  0.4428 -0.3203  0.8385
  150SAPE   H3X16643   7.501  -0.018  10.193  0.2977  2.3311  0.5030
  150SAPE   H3Y16644   7.646  -0.111  10.243 -0.7065 -0.9281 -0.4242
  150SAPE   C3416645   7.714   0.059  10.145 -0.3740 -0.0148  0.3344
  150SAPE   H4X16646   7.800   0.072  10.215 -0.4060  0.3512  0.3086
  150SAPE   H4Y16647   7.687   0.164  10.121 -3.0979 -0.1372  2.5845
  150SAPE   C3516648   7.743  -0.034  10.021 -0.4773 -0.5233  0.5246
  150SAPE   H5X16649   7.743  -0.137  10.062  1.5616 -0.4154  0.8441
  150SAPE   H5Y16650   7.844  -0.012   9.980 -1.3820  3.0254  0.0516
  150SAPE   C3616651   7.632  -0.031   9.917 -0.0066  0.6718  0.5969
  150SAPE   H6X16652   7.636   0.073   9.877  0.2377  1.4925  2.7166
  150SAPE   H6Y16653   7.527  -0.031   9.955 -1.5184  3.4429 -3.1913
  150SAPE   C3716654   7.648  -0.142   9.819  0.2872  1.4657 -0.0359
  150SAPE   H7X16655   7.633  -0.238   9.872  1.1027  0.1076 -2.2183
  150SAPE   H7Y16656   7.744  -0.136   9.764  1.4957 -0.6078  1.8056
  150SAPE   C3816657   7.529  -0.130   9.719 -0.2446  0.5800 -0.3340
  150SAPE   H8X16658   7.490  -0.027   9.733 -0.5088  0.6150 -1.2669
  150SAPE   H8Y16659   7.442  -0.187   9.758 -0.6580  0.5130 -1.3211
  150SAPE   C3916660   7.568  -0.167   9.581 -0.1794 -0.7349  0.3665
  150SAPE   H9X16661   7.607  -0.271   9.585 -0.5771 -0.8130  2.5257
  150SAPE   H9Y16662   7.641  -0.089   9.551 -1.5177  0.2318 -0.4096
  150SAPE  C31016663   7.455  -0.146   9.476 -0.7190 -0.1340  0.4606
  150SAPE  H10X16664   7.493  -0.156   9.372  1.0284 -2.9837  1.3142
  150SAPE  H10Y16665   7.406  -0.048   9.494  0.9712  0.6999  0.5689
  150SAPE  C31116666   7.335  -0.238   9.493  0.2368  0.5852 -0.3817
  150SAPE  H11X16667   7.286  -0.201   9.585  0.0931 -0.5550  0.0008
  150SAPE  H11Y16668   7.362  -0.345   9.502 -0.3874  0.4259 -0.3717
  150SAPE  C31216669   7.219  -0.225   9.389  0.3568 -0.3562 -0.0869
  150SAPE  H12X16670   7.186  -0.120   9.410  0.8191 -0.2777  0.2404
  150SAPE  H12Y16671   7.131  -0.291   9.408  0.1860  0.4020  1.9089
  150SAPE  C31316672   7.261  -0.248   9.247  0.4173 -0.2526 -0.0281
  150SAPE  H13X16673   7.312  -0.346   9.231 -0.6983 -0.5587 -1.8794
  150SAPE  H13Y16674   7.325  -0.160   9.226 -0.0338  0.2661  0.7546
  150SAPE  C31416675   7.136  -0.253   9.145 -0.6215 -1.0398  0.2375
  150SAPE  H14X16676   7.168  -0.247   9.039 -0.1390  2.4838  0.5387
  150SAPE  H14Y16677   7.059  -0.181   9.178 -0.5536  0.5554 -2.9123
  150SAPE  C31516678   7.072  -0.392   9.162 -0.8017 -0.5200 -0.2042
  150SAPE  H15X16679   7.032  -0.396   9.265  1.1036 -1.2318  0.5164
  150SAPE  H15Y16680   7.148  -0.466   9.130  0.3773  0.7798 -0.4683
  150SAPE  C31616681   6.944  -0.412   9.079  0.4250 -0.0277 -0.6752
  150SAPE  H16X16682   6.980  -0.415   8.974  0.9133  0.3721 -0.5224
  150SAPE  H16Y16683   6.868  -0.335   9.102 -0.4194 -1.0711  0.1240
  150SAPE  C31716684   6.875  -0.552   9.099  0.1390 -0.2158 -0.2544
  150SAPE  H17X16685   6.778  -0.549   9.047 -0.3503 -0.6749  0.6186
  150SAPE  H17Y16686   6.865  -0.565   9.209  3.8166  1.6624  0.3791
  150SAPE  C31816687   6.963  -0.667   9.050  0.5251  0.0765 -0.3564
  150SAPE  H18X16688   7.066  -0.664   9.093  0.1303  1.7014  0.5234
  150SAPE  H18Y16689   6.955  -0.674   8.939 -1.6535 -0.8297 -0.1643
  150SAPE  H18Z16690   6.919  -0.759   9.094  2.5863  0.7641  3.3214
  151SAPE     N16691   4.732   3.364  10.413 -0.6333  0.1367  0.3693
  151SAPE   HN116692   4.700   3.409  10.325 -1.4724  1.1312  1.1657
  151SAPE   HN216693   4.832   3.387  10.428 -0.4827  0.3372 -0.8651
  151SAPE   HN316694   4.720   3.261  10.411  1.2001 -0.0823 -0.0442
  151SAPE   C1216695   4.661   3.406  10.534 -0.0264  0.1322  0.0132
  151SAPE  H12A16696   4.731   3.396  10.619 -1.0330  0.4728  0.8933
  151SAPE  H12B16697   4.569   3.346  10.552 -1.2863  2.3174  1.0318
  151SAPE   C1116698   4.616   3.557  10.525 -0.1389 -0.0135 -0.2080
  151SAPE  H11A16699   4.555   3.570  10.617 -0.4460 -1.2560 -0.2191
  151SAPE  H11B16700   4.551   3.568  10.435  1.9327 -1.0145 -1.8796
  151SAPE     P16701   4.722   3.791  10.526  0.2633  0.0991 -0.1024
  151SAPE   O1316702   4.635   3.837  10.634  0.9712  0.3573  0.6958
  151SAPE   O1416703   4.862   3.841  10.524 -0.1962 -0.0836 -0.3472
  151SAPE   O1216704   4.728   3.641  10.523 -0.0837  0.0317  0.7091
  151SAPE   O1116705   4.657   3.836  10.388  0.4228 -0.9634  0.6742
  151SAPE    C116706   4.692   3.767  10.265  0.2683  0.4102  0.0742
  151SAPE    HA16707   4.791   3.718  10.277 -0.1450 -0.3706  0.2917
  151SAPE    HB16708   4.611   3.693  10.248  0.2610  0.2318  0.8635
  151SAPE    C216709   4.694   3.858  10.150 -0.0766  0.5907 -0.4393
  151SAPE    HS16710   4.760   3.944  10.175 -0.5512  0.7402  0.3305
  151SAPE   O2116711   4.561   3.893  10.112 -0.6323 -0.1978 -0.3094
  151SAPE   C2116712   4.550   4.005  10.046 -0.9035  0.1752 -0.1804
  151SAPE   O2216713   4.638   4.089  10.029 -0.3614  0.5678 -0.0692
  151SAPE   C2216714   4.401   4.022  10.003 -0.0449  0.8121 -0.0777
  151SAPE   H2R16715   4.367   3.918   9.986  0.2858  0.9758 -1.9165
  151SAPE   H2S16716   4.341   4.064  10.086  1.4688  1.0040  0.9318
  151SAPE    C316717   4.764   3.782  10.035  0.0762  0.4463 -0.0539
  151SAPE    HX16718   4.691   3.700  10.017  0.0550  1.1120 -3.3526
  151SAPE    HY16719   4.861   3.739  10.068 -0.0045 -0.5748 -1.1199
  151SAPE   O3116720   4.779   3.867   9.917  0.2327 -0.7425 -0.7086
  151SAPE   C3116721   4.900   3.905   9.890  0.2002 -0.2380  0.2039
  151SAPE   O3216722   5.003   3.871   9.950 -0.1630 -0.4491  0.2100
  151SAPE   C3216723   4.892   4.004   9.778  0.3007 -0.1118  0.5142
  151SAPE   H2X16724   4.987   4.061   9.794  0.4220 -0.0078 -0.5467
  151SAPE   H2Y16725   4.806   4.073   9.788 -0.2676 -0.8541  0.7606
  151SAPE   C2316726   4.390   4.118   9.878  0.1432 -0.0941 -0.3891
  151SAPE   H3R16727   4.442   4.215   9.898  1.9477 -1.2541  0.7153
  151SAPE   H3S16728   4.282   4.141   9.875  0.2791  0.4824 -0.9412
  151SAPE   C2416729   4.451   4.068   9.746 -0.7920 -0.2304  0.2769
  151SAPE   H4R16730   4.552   4.034   9.776 -0.3242  0.1756 -0.8063
  151SAPE   H4S16731   4.466   4.155   9.678  2.5516 -0.2756  0.8733
  151SAPE   C2516732   4.376   3.961   9.680 -0.6216  0.4062 -0.2609
  151SAPE   H5R16733   4.399   3.857   9.708 -0.3065  0.9918  1.7812
  151SAPE   C2616734   4.280   3.971   9.586 -0.0362  0.2711 -0.3510
  151SAPE   H6R16735   4.233   3.880   9.547  1.9112 -0.4680 -1.0376
  151SAPE   C2716736   4.228   4.096   9.518 -0.6932  0.4051  0.3461
  151SAPE   H7R16737   4.280   4.177   9.572  2.4734 -1.5786  0.4008
  151SAPE   H7S16738   4.117   4.098   9.516 -0.7056  0.4031  1.0747
  151SAPE   C2816739   4.287   4.104   9.382  0.3964 -0.0294  0.1314
  151SAPE   H8R16740   4.376   4.166   9.366 -0.1290  0.5602 -0.5457
  151SAPE   C2916741   4.245   4.033   9.270  0.4511  0.8296 -0.6326
  151SAPE   H9R16742   4.313   4.041   9.184  1.7867 -0.5998  0.2547
  151SAPE  C21016743   4.132   3.929   9.245  0.8777  0.2804  0.0492
  151SAPE  H10R16744   4.054   3.972   9.179  1.4199  2.1155  0.5627
  151SAPE  H10S16745   4.066   3.919   9.335  0.9481  1.0112  0.1828
  151SAPE  C21116746   4.173   3.785   9.207 -0.6610 -0.9100 -0.2336
  151SAPE  H11R16747   4.142   3.701   9.270  0.0253  1.0498  2.8420
  151SAPE  C21216748   4.235   3.751   9.092  0.6449  0.7172 -0.1471
  151SAPE  H12R16749   4.272   3.648   9.076  1.3966  1.2052 -1.6819
  151SAPE  C21316750   4.282   3.848   8.980  0.3392 -0.6193  0.0786
  151SAPE  H13R16751   4.393   3.841   8.987  0.4976  2.7068  1.6073
  151SAPE  H13S16752   4.254   3.952   9.007  0.8791 -0.2783 -0.6442
  151SAPE  C21416753   4.228   3.815   8.851  0.4327 -0.2411  0.3671
  151SAPE  H14R16754   4.147   3.881   8.817  0.5501 -0.3022 -0.0357
  151SAPE  C21516755   4.275   3.722   8.765  0.1072  0.6128  0.3559
  151SAPE  H15R16756   4.230   3.718   8.665  0.0327  0.9740  0.3727
  151SAPE  C21616757   4.400   3.641   8.802  0.7260 -0.7324 -0.2028
  151SAPE  H16R16758   4.461   3.673   8.888 -1.0752  0.3254  0.7163
  151SAPE  H16S16759   4.464   3.649   8.711 -0.2846  2.4130 -0.6863
  151SAPE  C21716760   4.373   3.490   8.801  0.5944  0.5202  0.2890
  151SAPE  H17R16761   4.302   3.441   8.871 -0.8276  0.6066 -1.0802
  151SAPE  H17S16762   4.473   3.449   8.828  1.6892  2.4536 -0.7300
  151SAPE  C21816763   4.332   3.420   8.671 -0.3764 -0.3715  0.3801
  151SAPE  H18R16764   4.410   3.451   8.599 -0.1423 -0.3560  0.6433
  151SAPE  H18S16765   4.231   3.458   8.641  0.2763  0.0807 -1.3296
  151SAPE  C21916766   4.324   3.272   8.680  0.2038 -0.1142  0.6323
  151SAPE  H19R16767   4.284   3.233   8.584  1.0483  1.9939 -0.5917
  151SAPE  H19S16768   4.253   3.238   8.760 -1.5553  1.3616 -0.2704
  151SAPE  C22016769   4.449   3.210   8.722 -0.1834 -0.2961  0.3789
  151SAPE  H20R16770   4.527   3.232   8.646  1.2575 -0.6693  1.7076
  151SAPE  H20S16771   4.443   3.100   8.737 -1.8095 -0.5799 -2.1753
  151SAPE  H20T16772   4.484   3.249   8.820 -0.0312 -0.5599  0.4307
  151SAPE   C3316773   4.874   3.942   9.638 -0.2660 -0.0553  0.4070
  151SAPE   H3X16774   4.768   3.910   9.630  0.2326 -1.6680  0.1472
  151SAPE   H3Y16775   4.934   3.850   9.627  2.1211  1.1823  2.5887
  151SAPE   C3416776   4.904   4.031   9.521 -0.2717 -0.3019 -0.3765
  151SAPE   H4X16777   5.008   4.068   9.522 -0.2568 -0.1474 -2.8747
  151SAPE   H4Y16778   4.829   4.109   9.497  0.2676  1.1793  2.6426
  151SAPE   C3516779   4.921   3.944   9.393 -0.3009  0.4781  0.3858
  151SAPE   H5X16780   4.852   3.857   9.397  1.0595 -0.6160  0.7546
  151SAPE   H5Y16781   5.022   3.897   9.403 -0.0512  0.7976 -0.5335
  151SAPE   C3616782   4.919   4.030   9.261 -0.7932 -0.2102 -0.5498
  151SAPE   H6X16783   4.986   3.976   9.191 -0.2069  2.8931 -2.4853
  151SAPE   H6Y16784   4.973   4.125   9.275 -1.3495 -0.1882  1.5746
  151SAPE   C3716785   4.776   4.055   9.215  0.8374 -0.0926  0.6532
  151SAPE   H7X16786   4.719   4.112   9.292  0.3723  0.6942 -0.2538
  151SAPE   H7Y16787   4.729   3.956   9.194 -0.1860  0.9170 -2.0229
  151SAPE   C3816788   4.773   4.150   9.097 -0.2386 -0.2531 -0.6590
  151SAPE   H8X16789   4.849   4.125   9.020 -0.6050 -2.4780 -0.3435
  151SAPE   H8Y16790   4.793   4.253   9.133 -1.0554  0.7617 -2.9759
  151SAPE   C3916791   4.632   4.147   9.037 -0.2064  0.3970 -0.1296
  151SAPE   H9X16792   4.562   4.208   9.098 -0.5047 -0.2072  0.1409
  151SAPE   H9Y16793   4.588   4.044   9.037  2.5486 -0.8165  0.0534
  151SAPE  C31016794   4.623   4.201   8.900 -0.3325 -0.0175 -0.4264
  151SAPE  H10X16795   4.670   4.125   8.834  0.2120  1.4165 -1.7271
  151SAPE  H10Y16796   4.667   4.303   8.889 -1.1989  0.5176  1.0176
  151SAPE  C31116797   4.479   4.215   8.849 -0.4551  0.3721  0.0704
  151SAPE  H11X16798   4.422   4.289   8.910 -0.3195  1.1960 -0.7946
  151SAPE  H11Y16799   4.423   4.119   8.839  0.9813 -0.4441 -0.3328
  151SAPE  C31216800   4.474   4.277   8.706  0.0661 -0.1866 -0.4937
  151SAPE  H12X16801   4.525   4.209   8.635  2.6216  1.3641 -0.2003
  151SAPE  H12Y16802   4.518   4.379   8.705 -0.7627  0.2097  0.7652
  151SAPE  C31316803   4.327   4.308   8.670  0.6003 -0.2124 -0.0679
  151SAPE  H13X16804   4.321   4.367   8.576  1.0780  1.3710  0.8752
  151SAPE  H13Y16805   4.287   4.379   8.744 -0.5294 -1.5552  0.6275
  151SAPE  C31416806   4.239   4.184   8.670  0.4782  0.6578  0.4034
  151SAPE  H14X16807   4.248   4.116   8.757  0.7285 -1.3945 -1.2055
  151SAPE  H14Y16808   4.251   4.124   8.577 -0.8148  1.5885 -0.3824
  151SAPE  C31516809   4.089   4.230   8.679 -0.1040  0.1308  0.0807
  151SAPE  H15X16810   4.060   4.284   8.587 -0.1912 -1.4818 -0.8636
  151SAPE  H15Y16811   4.076   4.305   8.760 -0.7690  2.1831 -1.8839
  151SAPE  C31616812   3.991   4.111   8.705  0.1030  0.1195 -0.7488
  151SAPE  H16X16813   4.023   4.054   8.795  0.5913 -2.8369 -2.7021
  151SAPE  H16Y16814   4.007   4.037   8.623  0.1005  0.7521 -1.3205
  151SAPE  C31716815   3.844   4.159   8.693  0.2241 -0.1508 -0.7089
  151SAPE  H17X16816   3.778   4.071   8.709  1.4623 -0.8131  0.9023
  151SAPE  H17Y16817   3.838   4.204   8.592 -2.0460  2.0809  0.3571
  151SAPE  C31816818   3.803   4.271   8.790 -0.4498  0.1279  0.0653
  151SAPE  H18X16819   3.855   4.363   8.757  0.1348  0.1165  0.9441
  151SAPE  H18Y16820   3.828   4.251   8.896 -0.2668  0.5087  0.0947
  151SAPE  H18Z16821   3.692   4.269   8.796 -0.5022 -1.7985 -0.9139
  152SAPE     N16822   6.136   3.010  10.870 -0.5149  0.5061 -0.1011
  152SAPE   HN116823   6.230   2.966  10.856  0.0511  1.0410  1.8487
  152SAPE   HN216824   6.140   3.108  10.835  0.6104  0.7872  0.7614
  152SAPE   HN316825   6.122   3.015  10.973  1.2550  0.3677  0.1780
  152SAPE   C1216826   6.019   2.947  10.797  0.7176  0.0206 -0.1651
  152SAPE  H12A16827   5.982   2.854  10.844 -0.1259  0.2349 -0.3940
  152SAPE  H12B16828   6.064   2.900  10.707 -1.3370 -0.6264 -0.9031
  152SAPE   C1116829   5.906   3.048  10.758 -0.3296 -0.3083  0.0428
  152SAPE  H11A16830   5.871   3.104  10.848  0.9083  0.7201 -0.0784
  152SAPE  H11B16831   5.822   2.996  10.709  1.2788 -0.5154 -2.6201
  152SAPE     P16832   5.870   3.253  10.598  0.2319 -0.2526 -0.0838
  152SAPE   O1316833   5.733   3.210  10.592 -0.0945 -0.2441  0.4796
  152SAPE   O1416834   5.898   3.385  10.659 -0.2278  0.2206 -0.4906
  152SAPE   O1216835   5.962   3.145  10.667  0.2290  0.2383 -0.1421
  152SAPE   O1116836   5.927   3.261  10.452 -0.0257  0.2088 -0.2066
  152SAPE    C116837   6.060   3.206  10.415 -0.1901 -0.6349  0.1931
  152SAPE    HA16838   6.132   3.227  10.497 -1.1972  0.4717  0.8254
  152SAPE    HB16839   6.054   3.096  10.402  0.3015 -0.6891  0.4138
  152SAPE    C216840   6.118   3.268  10.283  0.1116 -0.1025  0.2003
  152SAPE    HS16841   6.226   3.243  10.282 -0.0224 -0.7660  1.7424
  152SAPE   O2116842   6.112   3.415  10.296  0.2213 -0.0694  0.1073
  152SAPE   C2116843   6.230   3.473  10.239 -0.3703 -0.2175  0.0462
  152SAPE   O2216844   6.320   3.418  10.178 -0.2004  0.7494  0.9307
  152SAPE   C2216845   6.199   3.626  10.229 -0.6244 -0.1103  0.1827
  152SAPE   H2R16846   6.115   3.640  10.157  1.0256 -0.2953 -1.8315
  152SAPE   H2S16847   6.158   3.650  10.329 -0.1660 -1.2308  0.6480
  152SAPE    C316848   6.035   3.220  10.165  0.2152 -0.1437  0.7407
  152SAPE    HX16849   5.930   3.255  10.177 -0.4833 -2.2030  0.8002
  152SAPE    HY16850   6.023   3.110  10.169 -0.0253 -0.0573  2.7570
  152SAPE   O3116851   6.101   3.274  10.047 -0.2296 -0.0690 -0.2052
  152SAPE   C3116852   6.182   3.191   9.970  0.0734 -0.6447 -0.3572
  152SAPE   O3216853   6.223   3.083  10.011 -0.9099  0.2622  0.1629
  152SAPE   C3216854   6.198   3.254   9.830  0.5871  0.4165 -0.1799
  152SAPE   H2X16855   6.091   3.267   9.804  0.0293  1.2758  2.3493
  152SAPE   H2Y16856   6.237   3.179   9.758  0.7727  1.1962 -0.9046
  152SAPE   C2316857   6.313   3.715  10.180  0.1110  0.1193 -0.1460
  152SAPE   H3R16858   6.368   3.651  10.109  0.8578  0.0312  0.5099
  152SAPE   H3S16859   6.383   3.755  10.257 -1.3917  0.2358  1.1976
  152SAPE   C2416860   6.271   3.826  10.083 -0.1212  0.1581 -0.0201
  152SAPE   H4R16861   6.199   3.895  10.134 -0.9944 -0.6835 -0.0956
  152SAPE   H4S16862   6.212   3.791   9.996 -1.9487  1.2696  0.7315
  152SAPE   C2516863   6.395   3.892  10.025 -0.6690  0.0907 -0.1319
  152SAPE   H5R16864   6.448   3.949  10.103  1.1443  0.7634 -1.8119
  152SAPE   C2616865   6.449   3.902   9.901 -0.6792 -0.4559 -0.4871
  152SAPE   H6R16866   6.525   3.980   9.890 -1.7362  0.5118 -0.9766
  152SAPE   C2716867   6.396   3.832   9.779  0.3571  0.5449  0.3059
  152SAPE   H7R16868   6.324   3.754   9.811 -0.1354  0.5779 -0.7228
  152SAPE   H7S16869   6.470   3.770   9.724 -0.5395  0.1629 -0.4913
  152SAPE   C2816870   6.333   3.926   9.673 -0.8673  0.4027  0.3898
  152SAPE   H8R16871   6.270   4.004   9.719  0.9800  2.3086 -0.2381
  152SAPE   C2916872   6.366   3.937   9.541  0.3452 -0.0624  0.8843
  152SAPE   H9R16873   6.325   4.027   9.493  1.0441  0.3742  1.1027
  152SAPE  C21016874   6.459   3.851   9.466 -0.0839 -0.6282 -0.3641
  152SAPE  H10R16875   6.498   3.763   9.522  2.4784  1.3688  1.1067
  152SAPE  H10S16876   6.545   3.915   9.436 -1.1789  0.2901 -1.5854
  152SAPE  C21116877   6.400   3.813   9.334 -0.8911 -0.3385  0.1256
  152SAPE  H11R16878   6.334   3.889   9.289  0.0609  0.8509  0.7172
  152SAPE  C21216879   6.414   3.694   9.277 -0.0402 -0.2423  0.3254
  152SAPE  H12R16880   6.368   3.672   9.179  2.0530 -1.0884 -0.4896
  152SAPE  C21316881   6.499   3.579   9.327  0.2517  0.3232  0.0337
  152SAPE  H13R16882   6.471   3.496   9.258  2.4855 -0.0970 -0.4096
  152SAPE  H13S16883   6.460   3.545   9.425 -0.9866 -1.0700 -0.9104
  152SAPE  C21416884   6.649   3.575   9.328  0.2744  0.3819 -0.4415
  152SAPE  H14R16885   6.691   3.538   9.423  0.0105  0.6978 -0.1993
  152SAPE  C21516886   6.727   3.595   9.223  0.2007  0.5011 -0.4266
  152SAPE  H15R16887   6.834   3.575   9.230  0.3581  1.9280  1.3075
  152SAPE  C21616888   6.689   3.618   9.085  1.0642  0.1274  0.7138
  152SAPE  H16R16889   6.713   3.724   9.060  3.3405 -1.0860 -2.4680
  152SAPE  H16S16890   6.578   3.616   9.083  1.0787 -2.0630  0.8138
  152SAPE  C21716891   6.736   3.508   8.995 -0.1882  0.2501 -0.8220
  152SAPE  H17R16892   6.707   3.410   9.038 -1.4552  0.4341 -1.2279
  152SAPE  H17S16893   6.846   3.518   8.981 -0.1193  0.0180 -0.4408
  152SAPE  C21816894   6.671   3.511   8.860  0.0473 -0.1422 -0.4647
  152SAPE  H18R16895   6.563   3.508   8.887  0.2990  0.4964  0.6416
  152SAPE  H18S16896   6.696   3.433   8.785 -1.0942 -1.3793  0.4239
  152SAPE  C21916897   6.702   3.640   8.781 -0.3157  0.0045 -0.2265
  152SAPE  H19R16898   6.639   3.723   8.820  1.1089  0.5478  0.9839
  152SAPE  H19S16899   6.682   3.633   8.672  0.6380  0.2187 -0.4218
  152SAPE  C22016900   6.855   3.686   8.785  0.5114 -0.1269  0.4517
  152SAPE  H20R16901   6.878   3.786   8.741  0.1911  0.2514  1.1353
  152SAPE  H20S16902   6.924   3.610   8.743  1.7797  1.5527 -0.5786
  152SAPE  H20T16903   6.892   3.708   8.887 -0.0362 -0.7252  0.7816
  152SAPE   C3316904   6.260   3.398   9.821 -0.2989  0.4981 -0.4897
  152SAPE   H3X16905   6.361   3.405   9.867 -0.4523  0.4609 -0.1358
  152SAPE   H3Y16906   6.201   3.469   9.884  0.1915  0.1723  0.3557
  152SAPE   C3416907   6.248   3.448   9.677  0.2157  0.1821  0.4831
  152SAPE   H4X16908   6.276   3.362   9.613 -0.0595 -1.1122  2.0893
  152SAPE   H4Y16909   6.310   3.535   9.645  1.7226 -1.9305 -2.5973
  152SAPE   C3516910   6.108   3.492   9.625  0.0981  0.1679  0.1783
  152SAPE   H5X16911   6.076   3.569   9.697  1.1986  0.1570  0.6953
  152SAPE   H5Y16912   6.044   3.401   9.634  2.2155 -1.5116 -1.0582
  152SAPE   C3616913   6.115   3.549   9.477 -0.3556  0.5918 -0.1565
  152SAPE   H6X16914   6.195   3.624   9.457  0.7372 -0.5805 -0.1864
  152SAPE   H6Y16915   6.013   3.592   9.460  0.0188  0.4726 -2.7513
  152SAPE   C3716916   6.145   3.440   9.375  0.6963 -0.4934  0.0025
  152SAPE   H7X16917   6.079   3.352   9.392  0.3392  0.1048  1.8116
  152SAPE   H7Y16918   6.252   3.413   9.390  0.8992 -0.5115 -1.3839
  152SAPE   C3816919   6.114   3.490   9.233 -0.1051  0.1127 -0.0976
  152SAPE   H8X16920   6.152   3.593   9.213 -1.7231  1.0902  1.7023
  152SAPE   H8Y16921   6.007   3.501   9.207 -0.6350 -1.9809  1.0910
  152SAPE   C3916922   6.173   3.395   9.126  0.0126 -0.0365  0.4871
  152SAPE   H9X16923   6.100   3.311   9.116  0.7007 -0.4161 -1.5024
  152SAPE   H9Y16924   6.267   3.345   9.160  1.1927  2.1867  0.5369
  152SAPE  C31016925   6.186   3.450   8.983 -0.1898  0.6693  0.3694
  152SAPE  H10X16926   6.266   3.526   8.972  1.2502 -0.9866 -0.8883
  152SAPE  H10Y16927   6.096   3.506   8.950  0.1093  0.8763 -0.0976
  152SAPE  C31116928   6.217   3.330   8.889  0.7174 -0.1722 -0.3789
  152SAPE  H11X16929   6.133   3.258   8.887 -0.7359  1.5032 -2.0029
  152SAPE  H11Y16930   6.306   3.275   8.926  0.1202 -0.6844  0.3049
  152SAPE  C31216931   6.247   3.397   8.762 -0.7286  0.3300  0.1632
  152SAPE  H12X16932   6.300   3.495   8.770  0.6464 -0.2694 -1.3974
  152SAPE  H12Y16933   6.155   3.423   8.707  0.1784  3.3517 -0.0501
  152SAPE  C31316934   6.335   3.305   8.663 -0.2439  0.5049  0.8019
  152SAPE  H13X16935   6.277   3.212   8.643 -0.4262  0.6825  0.5064
  152SAPE  H13Y16936   6.425   3.274   8.721 -1.7880 -3.8886  1.0917
  152SAPE  C31416937   6.380   3.382   8.536  0.6705  0.0899  0.2655
  152SAPE  H14X16938   6.465   3.444   8.569  1.1225 -0.1583 -0.4181
  152SAPE  H14Y16939   6.294   3.432   8.486 -0.0536  1.0856  2.4568
  152SAPE  C31516940   6.441   3.268   8.444  0.1839 -0.5248 -0.1576
  152SAPE  H15X16941   6.361   3.222   8.381  0.9355 -1.8050 -0.1884
  152SAPE  H15Y16942   6.489   3.184   8.499  0.0625 -0.3555  0.2088
  152SAPE  C31616943   6.535   3.323   8.334 -0.2209 -0.2118 -0.1103
  152SAPE  H16X16944   6.625   3.367   8.383 -2.1797  0.5481  2.9756
  152SAPE  H16Y16945   6.489   3.414   8.289  0.1121  0.7838  1.5237
  152SAPE  C31716946   6.572   3.216   8.232 -0.0096  0.0332  0.0543
  152SAPE  H17X16947   6.479   3.179   8.184  0.8152 -0.0619 -1.5089
  152SAPE  H17Y16948   6.614   3.123   8.277 -0.7660 -0.7042 -0.7515
  152SAPE  C31816949   6.663   3.267   8.122 -0.1571 -0.5341  1.1348
  152SAPE  H18X16950   6.600   3.316   8.045  2.8322  0.8640 -0.5282
  152SAPE  H18Y16951   6.703   3.173   8.078  1.2174  1.4630 -2.1164
  152SAPE  H18Z16952   6.742   3.336   8.159 -0.6207 -0.7474  2.5330
  153SAPE     N16953   5.162   4.817  10.966 -0.1159 -0.5041  0.7676
  153SAPE   HN116954   5.265   4.810  10.954 -0.1926 -0.7076  0.2123
  153SAPE   HN216955   5.138   4.915  10.940 -0.0240 -0.0295  2.4251
  153SAPE   HN316956   5.145   4.803  11.068 -1.1668 -1.5834  0.4571
  153SAPE   C1216957   5.096   4.720  10.880  0.4084  0.3768 -0.1756
  153SAPE  H12A16958   4.987   4.728  10.899  0.4902 -0.1303  0.5329
  153SAPE  H12B16959   5.129   4.617  10.906  2.5971  0.9838 -0.4779
  153SAPE   C1116960   5.123   4.743  10.730 -0.4448 -0.0691 -0.3212
  153SAPE  H11A16961   5.109   4.853  10.716 -1.9923 -0.1251  0.6391
  153SAPE  H11B16962   5.050   4.691  10.665  0.8071 -2.3823  0.0626
  153SAPE     P16963   5.374   4.790  10.671  0.0966  0.2136 -0.0395
  153SAPE   O1316964   5.372   4.902  10.761  0.2724 -0.1329  0.1521
  153SAPE   O1416965   5.497   4.707  10.669  0.8696  0.2440  0.3665
  153SAPE   O1216966   5.254   4.690  10.698 -0.2076 -0.1900  0.4935
  153SAPE   O1116967   5.340   4.839  10.527  0.1935  0.7240  0.0597
  153SAPE    C116968   5.283   4.754  10.424 -0.4232  0.3002 -0.1974
  153SAPE    HA16969   5.311   4.649  10.442  1.0970  1.0028  1.6892
  153SAPE    HB16970   5.173   4.754  10.432 -0.5484  2.9761 -1.1931
  153SAPE    C216971   5.330   4.790  10.277 -1.1147  0.7870  0.6549
  153SAPE    HS16972   5.440   4.775  10.269 -1.1881 -0.5828  2.1210
  153SAPE   O2116973   5.295   4.930  10.253  0.5599 -0.2563  0.3581
  153SAPE   C2116974   5.376   4.999  10.170  0.1144 -0.4022  0.1679
  153SAPE   O2216975   5.481   4.958  10.126 -0.4428  0.1554 -0.8970
  153SAPE   C2216976   5.324   5.140  10.152 -0.0752 -0.1119  0.1540
  153SAPE   H2R16977   5.219   5.126  10.117  0.1822 -0.0624 -0.6272
  153SAPE   H2S16978   5.315   5.188  10.252  0.3290 -0.6787  0.4641
  153SAPE    C316979   5.256   4.696  10.181 -0.4737 -0.3426 -0.6288
  153SAPE    HX16980   5.151   4.732  10.191 -0.8591 -1.1145 -1.7573
  153SAPE    HY16981   5.256   4.591  10.216  1.2017  0.3722  1.6516
  153SAPE   O3116982   5.296   4.717  10.043 -0.3935 -0.1805  0.4759
  153SAPE   C3116983   5.389   4.629  10.006  0.2874  0.4357  0.5990
  153SAPE   O3216984   5.445   4.558  10.085 -0.5444  0.7461 -0.3772
  153SAPE   C3216985   5.423   4.650   9.853  0.7510 -0.1447  0.2095
  153SAPE   H2X16986   5.505   4.724   9.852  1.7939 -1.2859 -0.8730
  153SAPE   H2Y16987   5.332   4.680   9.796  1.5328  2.3772  0.2586
  153SAPE   C2316988   5.401   5.227  10.052  0.3261 -0.6171  0.5535
  153SAPE   H3R16989   5.501   5.244  10.097 -0.1207 -1.9003  2.0696
  153SAPE   H3S16990   5.358   5.329  10.046  0.4085 -0.7239 -2.4688
  153SAPE   C2416991   5.426   5.176   9.909 -0.3379  0.0792 -0.2099
  153SAPE   H4R16992   5.493   5.087   9.909  0.4262  0.6348  1.1648
  153SAPE   H4S16993   5.474   5.254   9.846  0.4770 -0.8963 -0.8176
  153SAPE   C2516994   5.293   5.127   9.862 -0.6246 -0.6626  0.2259
  153SAPE   H5R16995   5.212   5.152   9.932 -0.9028 -1.7577  0.3074
  153SAPE   C2616996   5.272   5.061   9.751 -0.0297  0.6881 -1.0261
  153SAPE   H6R16997   5.173   5.022   9.725  0.9185 -1.9048 -0.8759
  153SAPE   C2716998   5.389   5.026   9.661  0.0643  0.3634  0.0149
  153SAPE   H7R16999   5.475   4.990   9.721 -0.0621 -1.2550 -0.7431
  153SAPE   H7S17000   5.424   5.106   9.593  0.6895  0.8053  0.8652
  153SAPE   C2817001   5.337   4.913   9.577 -0.2345 -0.4082  0.4161
  153SAPE   H8R17002   5.254   4.855   9.621 -0.0040 -1.9115 -1.0620
  153SAPE   C2917003   5.406   4.859   9.470  0.5062  0.2499 -0.2778
  153SAPE   H9R17004   5.355   4.779   9.414  0.7796  0.0442 -0.2348
  153SAPE  C21017005   5.541   4.899   9.416  0.0932  0.5227 -0.3330
  153SAPE  H10R17006   5.615   4.901   9.499 -3.1638 -2.1217  2.8089
  153SAPE  H10S17007   5.548   5.000   9.371 -0.8457  0.3297 -0.9074
  153SAPE  C21117008   5.604   4.804   9.318 -0.2553 -0.1612  0.2836
  153SAPE  H11R17009   5.669   4.733   9.371  0.2685  0.8487  1.0171
  153SAPE  C21217010   5.589   4.815   9.186  0.0310 -0.1106  0.4272
  153SAPE  H12R17011   5.638   4.741   9.122 -0.0152  0.6438 -0.4969
  153SAPE  C21317012   5.512   4.906   9.097  0.7366 -0.5495  0.3445
  153SAPE  H13R17013   5.591   4.971   9.054  1.9876 -0.0395  3.2509
  153SAPE  H13S17014   5.466   4.977   9.169 -0.2246 -1.0828  0.2629
  153SAPE  C21417015   5.403   4.850   9.013  0.0660 -0.2002 -0.5530
  153SAPE  H14R17016   5.311   4.842   9.072  0.2449  2.8036  0.2153
  153SAPE  C21517017   5.393   4.840   8.880  0.2870 -0.0026  0.2972
  153SAPE  H15R17018   5.297   4.796   8.850  0.6266 -0.6140  0.0807
  153SAPE  C21617019   5.494   4.861   8.770  0.1174  0.2661 -0.1020
  153SAPE  H16R17020   5.586   4.908   8.809  1.3716  1.0702 -3.8853
  153SAPE  H16S17021   5.456   4.942   8.705  0.9806  2.4840  2.1043
  153SAPE  C21717022   5.539   4.732   8.698  0.4612  0.3975  0.3088
  153SAPE  H17R17023   5.448   4.679   8.663 -0.3255  0.5563  2.0456
  153SAPE  H17S17024   5.579   4.667   8.779  1.2101  0.1731 -0.2316
  153SAPE  C21817025   5.645   4.758   8.587  0.4120  0.1070 -0.1077
  153SAPE  H18R17026   5.736   4.801   8.634  0.4795  0.4061 -0.5097
  153SAPE  H18S17027   5.595   4.830   8.519 -0.8101  1.1971  1.8838
  153SAPE  C21917028   5.692   4.629   8.517 -0.2528 -0.8575  0.2770
  153SAPE  H19R17029   5.607   4.599   8.453  0.4418  0.1329 -1.1406
  153SAPE  H19S17030   5.706   4.551   8.595 -0.4887 -0.2121  0.9711
  153SAPE  C22017031   5.824   4.634   8.433 -0.1269  0.3412  0.1939
  153SAPE  H20R17032   5.817   4.704   8.347 -0.6380  0.3220  0.2197
  153SAPE  H20S17033   5.854   4.541   8.381 -0.2859  0.3891  0.0163
  153SAPE  H20T17034   5.902   4.676   8.500 -1.0129  1.1137  0.7465
  153SAPE   C3317035   5.481   4.524   9.782 -0.3471 -0.2989  0.0256
  153SAPE   H3X17036   5.451   4.534   9.676 -0.2982  2.7942  0.2613
  153SAPE   H3Y17037   5.433   4.429   9.815  0.4655 -0.4527  0.7745
  153SAPE   C3417038   5.628   4.505   9.809  0.2722  0.0101  0.1689
  153SAPE   H4X17039   5.649   4.506   9.918  0.2720  0.6852  0.1637
  153SAPE   H4Y17040   5.685   4.594   9.774  0.6119  0.5383  2.0474
  153SAPE   C3517041   5.684   4.379   9.746 -0.1349  0.1732 -0.0013
  153SAPE   H5X17042   5.625   4.301   9.799  0.0579  1.1480  1.6752
  153SAPE   H5Y17043   5.787   4.357   9.780  0.2851 -1.0758 -2.0097
  153SAPE   C3617044   5.663   4.359   9.596 -0.3320 -0.6910  0.5227
  153SAPE   H6X17045   5.555   4.356   9.570  0.0056  1.3799 -1.2624
  153SAPE   H6Y17046   5.703   4.258   9.574 -1.9372 -0.9877 -1.1378
  153SAPE   C3717047   5.737   4.461   9.506 -0.0443 -0.3553 -0.4284
  153SAPE   H7X17048   5.846   4.473   9.523 -0.3427  1.1244  0.4607
  153SAPE   H7Y17049   5.687   4.560   9.517 -2.0520 -1.2413 -1.3457
  153SAPE   C3817050   5.728   4.421   9.354  0.3318  0.1703 -0.1974
  153SAPE   H8X17051   5.814   4.478   9.312 -0.6546  0.9302 -1.1998
  153SAPE   H8Y17052   5.631   4.468   9.326  0.4811 -0.1912 -1.3092
  153SAPE   C3917053   5.728   4.278   9.305  0.6402 -0.1758  0.3316
  153SAPE   H9X17054   5.636   4.235   9.350  1.7059 -2.4006  0.4475
  153SAPE   H9Y17055   5.811   4.219   9.349  0.2144  0.4797  2.0382
  153SAPE  C31017056   5.730   4.274   9.151  0.3329  0.3782  0.6793
  153SAPE  H10X17057   5.764   4.174   9.116 -1.7420 -0.0657 -0.1212
  153SAPE  H10Y17058   5.809   4.346   9.119 -0.5243  0.3945 -1.4901
  153SAPE  C31117059   5.598   4.307   9.080 -0.2182 -0.3374 -0.3068
  153SAPE  H11X17060   5.581   4.412   9.110  0.0787 -0.4438  0.2530
  153SAPE  H11Y17061   5.516   4.246   9.125 -0.2304  0.7372  1.1451
  153SAPE  C31217062   5.610   4.298   8.932 -0.8402  0.3612 -0.1069
  153SAPE  H12X17063   5.662   4.203   8.905  1.5848  1.0606  1.9746
  153SAPE  H12Y17064   5.676   4.381   8.898 -1.9340  0.6022 -1.6981
  153SAPE  C31317065   5.481   4.315   8.855  0.3419 -0.7222  1.0763
  153SAPE  H13X17066   5.424   4.402   8.896  1.5489  0.3543  0.4844
  153SAPE  H13Y17067   5.418   4.225   8.870  0.3722 -0.5481  2.3797
  153SAPE  C31417068   5.508   4.356   8.710 -0.5424 -0.4032  0.2118
  153SAPE  H14X17069   5.592   4.297   8.668  0.1603  0.5079  0.3040
  153SAPE  H14Y17070   5.544   4.461   8.702 -0.6066 -0.2468  1.7439
  153SAPE  C31517071   5.373   4.344   8.634 -0.3926  0.5296  0.0238
  153SAPE  H15X17072   5.296   4.410   8.681 -0.6399  1.3359 -1.4761
  153SAPE  H15Y17073   5.339   4.241   8.656 -0.4205  0.7795  1.2299
  153SAPE  C31617074   5.374   4.379   8.481  0.3711 -0.1633 -0.0876
  153SAPE  H16X17075   5.456   4.317   8.438 -0.1898 -0.9914  0.0236
  153SAPE  H16Y17076   5.403   4.485   8.473  2.3135 -0.6995 -0.4590
  153SAPE  C31717077   5.240   4.365   8.400 -0.1244 -0.0257 -0.2018
  153SAPE  H17X17078   5.159   4.400   8.469  0.9731 -1.1741  1.7145
  153SAPE  H17Y17079   5.224   4.257   8.385  2.4435 -0.5239  0.5196
  153SAPE  C31817080   5.249   4.450   8.263  0.0565  0.3713  0.5371
  153SAPE  H18X17081   5.146   4.438   8.223 -0.2605 -0.6725  1.6450
  153SAPE  H18Y17082   5.322   4.409   8.190  0.1652  0.4898  0.5789
  153SAPE  H18Z17083   5.255   4.559   8.282  1.0511  0.6627 -1.3246
  154SAPE     N17084   0.200   4.665  10.853 -0.3071 -0.3661  0.5366
  154SAPE   HN117085   0.250   4.755  10.867 -0.3469 -0.4931  1.4961
  154SAPE   HN217086   0.113   4.660  10.909 -1.7965  1.8421 -1.4498
  154SAPE   HN317087   0.260   4.587  10.886  0.9491 -0.5448 -1.9940
  154SAPE   C1217088   0.174   4.613  10.715  0.5467  0.0179  0.9126
  154SAPE  H12A17089   0.161   4.504  10.727  1.1035  0.3173  4.9507
  154SAPE  H12B17090   0.261   4.638  10.651 -1.3905  1.8818 -1.1000
  154SAPE   C1117091   0.052   4.677  10.645 -0.0785 -0.0940  0.0349
  154SAPE  H11A17092   0.038   4.637  10.542  1.0567  1.6856 -0.8303
  154SAPE  H11B17093   0.074   4.785  10.639 -1.4650  0.1776 -0.2724
  154SAPE     P17094  -0.149   4.537  10.722 -0.1193  0.1073  0.0686
  154SAPE   O1317095  -0.061   4.416  10.722  0.3090 -0.6987  0.7167
  154SAPE   O1417096  -0.259   4.541  10.822  0.1023 -0.2411 -0.0369
  154SAPE   O1217097  -0.061   4.662  10.728  0.1424  0.2299 -0.2635
  154SAPE   O1117098  -0.206   4.545  10.576  0.6650 -0.6021  0.1229
  154SAPE    C117099  -0.276   4.658  10.528 -0.1510 -0.1625 -0.1528
  154SAPE    HA17100  -0.359   4.684  10.597 -1.4390 -1.7501 -1.0787
  154SAPE    HB17101  -0.215   4.751  10.522  0.5596 -0.7297 -1.8098
  154SAPE    C217102  -0.346   4.616  10.402  0.1448 -0.0344  0.3827
  154SAPE    HS17103  -0.387   4.515  10.421 -1.1629  0.7514  1.7531
  154SAPE   O2117104  -0.248   4.614  10.294 -0.0739  0.0390  0.3327
  154SAPE   C2117105  -0.183   4.508  10.265  0.6635 -0.2179 -0.5748
  154SAPE   O2217106  -0.205   4.392  10.301  0.3058  0.0361 -0.2583
  154SAPE   C2217107  -0.064   4.546  10.178  0.5270 -0.3303 -0.0012
  154SAPE   H2R17108  -0.078   4.648  10.137 -0.7646 -0.0756  1.0423
  154SAPE   H2S17109   0.036   4.553  10.227 -0.4178  2.0961  1.6951
  154SAPE    C317110  -0.452   4.727  10.365 -0.2176  0.1816 -0.2507
  154SAPE    HX17111  -0.382   4.809  10.338 -1.0419  1.3724  1.1899
  154SAPE    HY17112  -0.506   4.747  10.459  2.2799 -0.5509  1.4008
  154SAPE   O3117113  -0.534   4.701  10.253  0.3907 -0.1336  0.2626
  154SAPE   C3117114  -0.643   4.635  10.281  0.4972  0.9866  0.4709
  154SAPE   O3217115  -0.672   4.573  10.376 -0.6765  0.1777  0.3124
  154SAPE   C3217116  -0.720   4.611  10.156  0.9177  0.0892  0.6692
  154SAPE   H2X17117  -0.825   4.645  10.167  0.1474 -2.0738  0.1298
  154SAPE   H2Y17118  -0.737   4.502  10.146  0.4881  0.3012 -0.9517
  154SAPE   C2317119  -0.059   4.436  10.064  0.1423 -0.3470 -0.0740
  154SAPE   H3R17120  -0.156   4.448  10.011 -1.3131 -1.4711  2.2394
  154SAPE   H3S17121  -0.042   4.337  10.111  1.6243  0.6428  1.5249
  154SAPE   C2417122   0.058   4.451   9.953 -0.3529  0.0994  0.0897
  154SAPE   H4R17123   0.085   4.345   9.934  0.0913  0.3519 -0.7155
  154SAPE   H4S17124   0.141   4.511   9.998  0.3131 -2.0187  1.7434
  154SAPE   C2517125   0.002   4.524   9.832 -0.2022 -0.2661 -0.2020
  154SAPE   H5R17126  -0.019   4.629   9.858  1.3727  0.1849 -0.6792
  154SAPE   C2617127  -0.022   4.471   9.708  0.5194 -1.3632 -0.4398
  154SAPE   H6R17128  -0.063   4.533   9.627 -1.0855 -1.7132  0.0734
  154SAPE   C2717129   0.014   4.328   9.661  0.3378 -0.7899 -0.1882
  154SAPE   H7R17130   0.037   4.259   9.745  2.9632  0.9039  0.5339
  154SAPE   H7S17131   0.105   4.348   9.600  0.3838  0.6277  0.3312
  154SAPE   C2817132  -0.090   4.258   9.584  0.2541  0.1805 -0.1392
  154SAPE   H8R17133  -0.165   4.207   9.647  0.3728 -0.8646 -0.8275
  154SAPE   C2917134  -0.084   4.221   9.453 -0.7048 -0.4211  0.4145
  154SAPE   H9R17135  -0.169   4.166   9.410 -0.4275 -1.3422  1.0326
  154SAPE  C21017136   0.024   4.253   9.355 -0.0510  0.4102 -0.4247
  154SAPE  H10R17137   0.118   4.288   9.402 -0.1000 -0.3623  0.2496
  154SAPE  H10S17138  -0.016   4.335   9.291 -0.5213  0.4552 -0.0793
  154SAPE  C21117139   0.071   4.136   9.278 -0.3472  0.0954  0.2607
  154SAPE  H11R17140   0.055   4.037   9.324 -1.7939 -1.1412 -2.7910
  154SAPE  C21217141   0.131   4.144   9.163  0.8504  0.3682  0.5872
  154SAPE  H12R17142   0.160   4.051   9.111  1.4945  1.3285 -0.8160
  154SAPE  C21317143   0.146   4.267   9.082 -0.2026  0.2210  0.3859
  154SAPE  H13R17144   0.241   4.259   9.026 -0.6173  1.0875 -0.4529
  154SAPE  H13S17145   0.131   4.359   9.144  0.5458  1.5638 -1.3811
  154SAPE  C21417146   0.045   4.284   8.972 -0.1180 -0.3287  0.7124
  154SAPE  H14R17147  -0.041   4.214   8.974 -1.0972  0.8007 -0.6745
  154SAPE  C21517148   0.052   4.376   8.869  0.4191 -0.0903 -0.3897
  154SAPE  H15R17149  -0.032   4.386   8.798  1.9574  0.0050 -2.2397
  154SAPE  C21617150   0.162   4.478   8.850 -0.5570 -0.1137 -0.5553
  154SAPE  H16R17151   0.239   4.460   8.929 -1.0837 -1.4794 -0.3294
  154SAPE  H16S17152   0.122   4.581   8.855 -1.2645 -0.3982 -0.2770
  154SAPE  C21717153   0.227   4.457   8.719 -0.3914  0.0307  0.5213
  154SAPE  H17R17154   0.262   4.352   8.704 -0.6836  0.0945 -0.7015
  154SAPE  H17S17155   0.316   4.523   8.711 -0.3527  0.1834  2.1700
  154SAPE  C21817156   0.130   4.498   8.611  0.3356  0.0028 -0.1077
  154SAPE  H18R17157   0.099   4.602   8.635  3.0637  0.6680  0.7352
  154SAPE  H18S17158   0.043   4.431   8.599  1.5351 -1.1318 -3.1421
  154SAPE  C21917159   0.198   4.501   8.473  0.8017 -0.3066  0.0091
  154SAPE  H19R17160   0.119   4.508   8.396  0.5767  0.9873  0.3370
  154SAPE  H19S17161   0.249   4.403   8.465 -1.9401 -1.6825 -1.3575
  154SAPE  C22017162   0.299   4.619   8.457  0.0908 -0.1830 -0.5269
  154SAPE  H20R17163   0.326   4.635   8.351  1.3934  0.2813 -0.1469
  154SAPE  H20S17164   0.387   4.600   8.522 -0.2929 -0.8553 -0.2038
  154SAPE  H20T17165   0.259   4.715   8.498 -0.8216  0.0504 -1.9309
  154SAPE   C3317166  -0.657   4.676  10.033  0.0661  0.1580  0.3150
  154SAPE   H3X17167  -0.552   4.639  10.024 -0.7870 -2.0495 -1.0594
  154SAPE   H3Y17168  -0.655   4.787  10.026  1.7245  0.1141 -0.1822
  154SAPE   C3417169  -0.726   4.634   9.901  0.0886  0.0942 -0.7430
  154SAPE   H4X17170  -0.835   4.627   9.922  0.0014  0.5187 -1.0523
  154SAPE   H4Y17171  -0.701   4.529   9.875 -2.6592 -0.5924 -0.8080
  154SAPE   C3517172  -0.689   4.734   9.789 -0.0796  0.1739  0.4675
  154SAPE   H5X17173  -0.580   4.737   9.768 -0.1251  2.6191  0.4639
  154SAPE   H5Y17174  -0.728   4.833   9.820  2.2894  2.3710 -3.1720
  154SAPE   C3617175  -0.752   4.701   9.659  0.0352 -0.4061 -0.0958
  154SAPE   H6X17176  -0.861   4.722   9.658  0.4818  2.0748 -2.8860
  154SAPE   H6Y17177  -0.736   4.592   9.641 -0.5684 -0.2855 -1.4495
  154SAPE   C3717178  -0.687   4.770   9.542  0.5864 -0.4333 -0.2898
  154SAPE   H7X17179  -0.585   4.726   9.544 -0.1406 -2.1538  0.0762
  154SAPE   H7Y17180  -0.686   4.880   9.556  0.9965 -0.6261  1.3892
  154SAPE   C3817181  -0.746   4.733   9.403 -0.1719 -0.4005  0.9217
  154SAPE   H8X17182  -0.846   4.782   9.398 -1.1215 -2.5077 -3.5339
  154SAPE   H8Y17183  -0.760   4.623   9.396 -0.6351 -0.1688 -2.2418
  154SAPE   C3917184  -0.658   4.779   9.285  0.8297  0.0474  0.0956
  154SAPE   H9X17185  -0.592   4.691   9.274 -2.0604 -2.0989 -0.3497
  154SAPE   H9Y17186  -0.595   4.866   9.317  0.9798  0.1829 -0.5525
  154SAPE  C31017187  -0.726   4.816   9.149  0.8845  0.4487  0.3783
  154SAPE  H10X17188  -0.659   4.890   9.101  0.6824  1.8150  2.1678
  154SAPE  H10Y17189  -0.825   4.861   9.171  0.9759  1.0439 -0.4080
  154SAPE  C31117190  -0.750   4.693   9.052  0.2984 -0.0515 -0.0028
  154SAPE  H11X17191  -0.801   4.623   9.121  1.5064 -0.9267  0.0189
  154SAPE  H11Y17192  -0.653   4.645   9.027  0.6276  0.8354 -0.4553
  154SAPE  C31217193  -0.843   4.720   8.932  0.4733  0.3409 -0.3431
  154SAPE  H12X17194  -0.787   4.779   8.856  1.8301  0.0068  0.3722
  154SAPE  H12Y17195  -0.924   4.784   8.974  1.5039  1.2908  0.2244
  154SAPE  C31317196  -0.890   4.594   8.875  0.0607  0.3506 -0.2847
  154SAPE  H13X17197  -0.955   4.615   8.787 -0.2492  1.3175  0.1758
  154SAPE  H13Y17198  -0.955   4.547   8.952 -0.9002  1.7144 -0.2335
  154SAPE  C31417199  -0.784   4.490   8.833 -0.0926  0.0086  0.1163
  154SAPE  H14X17200  -0.734   4.437   8.918  1.1038  0.1057 -0.5210
  154SAPE  H14Y17201  -0.699   4.544   8.786 -1.9723  3.2344  0.3400
  154SAPE  C31517202  -0.831   4.391   8.724 -0.0692  0.3646  0.0184
  154SAPE  H15X17203  -0.881   4.443   8.639 -0.2012 -0.1393 -0.2112
  154SAPE  H15Y17204  -0.891   4.320   8.785  1.9257 -0.8194  0.6458
  154SAPE  C31617205  -0.721   4.304   8.660 -0.4532  0.0006  0.8584
  154SAPE  H16X17206  -0.686   4.234   8.740  0.7217 -0.9233 -0.4341
  154SAPE  H16Y17207  -0.637   4.367   8.625  0.0964 -0.6938  0.9142
  154SAPE  C31717208  -0.773   4.228   8.538  0.5267  0.5550 -0.8941
  154SAPE  H17X17209  -0.689   4.170   8.494 -0.7744 -2.4881  0.4979
  154SAPE  H17Y17210  -0.807   4.295   8.457 -1.8331  1.9438  1.1987
  154SAPE  C31817211  -0.887   4.136   8.574  0.5044 -0.1359  0.6260
  154SAPE  H18X17212  -0.917   4.054   8.505  0.4243 -0.7284  1.3482
  154SAPE  H18Y17213  -0.972   4.204   8.593 -0.3287 -1.4323  1.6253
  154SAPE  H18Z17214  -0.874   4.075   8.666  2.4038 -0.4265  0.1949
  155SAPE     N17215   0.329   5.388  11.141  0.4067 -0.1757 -0.1406
  155SAPE   HN117216   0.287   5.320  11.208 -1.7599  0.6443 -0.6220
  155SAPE   HN217217   0.424   5.361  11.109  0.5244  0.2823 -0.1721
  155SAPE   HN317218   0.325   5.482  11.185  0.5978  0.7661 -2.0849
  155SAPE   C1217219   0.235   5.400  11.018  0.7500 -0.4240 -0.1971
  155SAPE  H12A17220   0.142   5.445  11.059  0.2033 -1.1680 -0.6096
  155SAPE  H12B17221   0.221   5.302  10.967 -0.3686 -0.7242  0.6548
  155SAPE   C1117222   0.293   5.497  10.918  0.4557  0.1422  0.0044
  155SAPE  H11A17223   0.226   5.499  10.829 -2.1993 -0.8716  1.9417
  155SAPE  H11B17224   0.394   5.467  10.884  0.4234  1.1822 -1.0775
  155SAPE     P17225   0.374   5.749  10.901 -0.2798 -0.4156  0.6142
  155SAPE   O1317226   0.347   5.868  10.984 -0.0175 -0.5170  0.0248
  155SAPE   O1417227   0.518   5.709  10.902 -0.1045  0.6700 -0.1471
  155SAPE   O1217228   0.289   5.631  10.966 -0.7152  0.2699  0.6184
  155SAPE   O1117229   0.318   5.763  10.757 -0.3663 -0.0641  0.3223
  155SAPE    C117230   0.189   5.826  10.738  0.2355 -0.6004 -0.0220
  155SAPE    HA17231   0.112   5.763  10.790  0.0220 -1.0473 -0.8727
  155SAPE    HB17232   0.196   5.930  10.777 -0.6982 -0.4311 -0.3038
  155SAPE    C217233   0.150   5.828  10.590  0.0569 -0.4014 -0.1610
  155SAPE    HS17234   0.144   5.727  10.544 -3.7153  0.6672 -2.2797
  155SAPE   O2117235   0.250   5.910  10.524 -0.1743 -0.1865 -0.0720
  155SAPE   C2117236   0.280   5.884  10.400  0.0993  1.0587  0.7909
  155SAPE   O2217237   0.251   5.782  10.341  0.6090 -0.1126 -0.2256
  155SAPE   C2217238   0.363   6.000  10.348  0.5446 -0.7003  0.6472
  155SAPE   H2R17239   0.322   6.010  10.245  1.2034 -0.0597  0.4325
  155SAPE   H2S17240   0.350   6.100  10.396 -0.0759 -0.6854  0.4504
  155SAPE    C317241   0.013   5.910  10.569  0.2104 -0.2138  0.0751
  155SAPE    HX17242   0.046   6.013  10.596  1.0635 -0.6629  0.7855
  155SAPE    HY17243  -0.068   5.882  10.639  2.0305  1.7789  3.0819
  155SAPE   O3117244  -0.038   5.890  10.438 -0.1132 -0.4037 -0.4834
  155SAPE   C3117245  -0.153   5.953  10.401  0.4197  0.1885  0.2851
  155SAPE   O3217246  -0.221   6.030  10.463  0.2993 -0.0692  0.2007
  155SAPE   C3217247  -0.201   5.900  10.269  0.4503  0.1052  0.4899
  155SAPE   H2X17248  -0.311   5.915  10.268  0.5320  0.7367 -1.2720
  155SAPE   H2Y17249  -0.164   5.797  10.252 -2.9112 -0.9517 -0.7634
  155SAPE   C2317250   0.517   5.983  10.346 -0.1820 -0.8565  0.3197
  155SAPE   H3R17251   0.554   5.965  10.449  1.2370  0.6652  0.1025
  155SAPE   H3S17252   0.565   6.076  10.309  0.2816 -1.4087 -0.4760
  155SAPE   C2417253   0.575   5.869  10.257  0.6700 -0.0417  0.5183
  155SAPE   H4R17254   0.512   5.866  10.166  0.0711  0.4161  0.9167
  155SAPE   H4S17255   0.544   5.775  10.306 -1.2754 -0.2791 -1.1146
  155SAPE   C2517256   0.716   5.891  10.225  0.7150 -0.2188 -0.9120
  155SAPE   H5R17257   0.784   5.900  10.311 -1.6559  0.6375  0.9300
  155SAPE   C2617258   0.765   5.903  10.101 -0.2722 -0.2810 -0.4771
  155SAPE   H6R17259   0.868   5.940  10.095 -0.0478 -0.9454 -0.7737
  155SAPE   C2717260   0.693   5.895   9.969  0.2844  0.2612  0.8799
  155SAPE   H7R17261   0.759   5.949   9.898 -1.6866  0.4032 -0.9148
  155SAPE   H7S17262   0.593   5.944   9.973 -0.0815 -0.3183 -0.9465
  155SAPE   C2817263   0.679   5.753   9.915  0.6790  0.1740  0.2581
  155SAPE   H8R17264   0.767   5.687   9.914  0.5788  0.0363 -1.1262
  155SAPE   C2917265   0.571   5.697   9.860 -0.4014 -0.1984 -0.2793
  155SAPE   H9R17266   0.568   5.596   9.818  2.0369 -0.3838 -0.0839
  155SAPE  C21017267   0.449   5.786   9.845 -0.2163  0.1471  0.1580
  155SAPE  H10R17268   0.483   5.876   9.789 -0.2759 -0.8693 -1.5043
  155SAPE  H10S17269   0.416   5.827   9.943  0.3065  2.3036 -0.5373
  155SAPE  C21117270   0.336   5.720   9.763 -0.8285 -0.2839 -0.0928
  155SAPE  H11R17271   0.253   5.686   9.827 -0.6070 -0.9627 -0.1611
  155SAPE  C21217272   0.317   5.724   9.628  0.1164  0.5426 -0.3057
  155SAPE  H12R17273   0.219   5.690   9.593 -1.0423  3.3067  0.1516
  155SAPE  C21317274   0.409   5.780   9.520 -0.1343  0.0152  0.3555
  155SAPE  H13R17275   0.466   5.707   9.459 -1.8310 -0.2369 -0.9858
  155SAPE  H13S17276   0.493   5.834   9.568  0.2026 -1.1052  1.0467
  155SAPE  C21417277   0.324   5.868   9.435 -0.0771  0.7206  0.8449
  155SAPE  H14R17278   0.289   5.963   9.479  0.0560  1.0186  0.3192
  155SAPE  C21517279   0.272   5.841   9.311 -0.8194 -0.2342 -0.2869
  155SAPE  H15R17280   0.232   5.924   9.250 -0.8272  1.3980  1.8738
  155SAPE  C21617281   0.318   5.722   9.227  1.1936 -0.4032  0.4227
  155SAPE  H16R17282   0.233   5.692   9.161  1.0474  0.1286  0.3637
  155SAPE  H16S17283   0.353   5.632   9.282 -1.8869 -0.6370  2.1447
  155SAPE  C21717284   0.435   5.757   9.134 -0.3680 -0.0195  0.3935
  155SAPE  H17R17285   0.536   5.754   9.180  0.5196  0.9280 -1.4262
  155SAPE  H17S17286   0.433   5.862   9.100  1.3758 -0.3102 -0.6754
  155SAPE  C21817287   0.434   5.674   8.996 -0.0049  0.4150 -0.6548
  155SAPE  H18R17288   0.393   5.576   9.028 -0.2240  0.1861 -1.6372
  155SAPE  H18S17289   0.542   5.666   8.972  0.4204 -0.3398  1.3894
  155SAPE  C21917290   0.357   5.755   8.886  0.4371  0.0362  0.4031
  155SAPE  H19R17291   0.388   5.861   8.881  2.1252 -0.5232 -2.3387
  155SAPE  H19S17292   0.250   5.766   8.911  0.0939 -0.8739 -0.5939
  155SAPE  C22017293   0.372   5.680   8.749  0.0255  0.3516  0.2556
  155SAPE  H20R17294   0.303   5.730   8.678 -1.0039 -0.1796  0.8733
  155SAPE  H20S17295   0.333   5.576   8.749  2.1661 -0.5086 -1.9873
  155SAPE  H20T17296   0.481   5.679   8.728  0.1060 -2.8321  0.6205
  155SAPE   C3317297  -0.145   5.986  10.156 -0.0516 -0.4241 -0.0347
  155SAPE   H3X17298  -0.163   6.095  10.166 -0.2252 -0.5317  0.8840
  155SAPE   H3Y17299  -0.201   5.942  10.071  0.0229  0.4857 -0.5592
  155SAPE   C3417300   0.010   5.963  10.139 -0.0793  0.1208  0.3065
  155SAPE   H4X17301   0.042   5.862  10.173  0.6555  0.2372 -0.0306
  155SAPE   H4Y17302   0.056   6.025  10.220 -1.1636  1.1521  0.1507
  155SAPE   C3517303   0.058   5.988   9.996  0.3635  0.4346  0.1494
  155SAPE   H5X17304   0.169   5.984  10.000  0.2741 -1.4245  1.2567
  155SAPE   H5Y17305   0.028   6.084   9.949  0.1755 -0.7169 -2.1438
  155SAPE   C3617306   0.017   5.870   9.905  0.7730 -0.0684  0.0434
  155SAPE   H6X17307  -0.086   5.844   9.940  0.6576  1.9702  1.3251
  155SAPE   H6Y17308   0.080   5.779   9.906  2.2416  0.9440  0.2272
  155SAPE   C3717309   0.005   5.915   9.754 -0.1247  0.3862  0.2617
  155SAPE   H7X17310   0.104   5.949   9.716 -1.4592  3.4769 -0.6825
  155SAPE   H7Y17311  -0.056   6.008   9.747  0.3702  0.8019  1.3423
  155SAPE   C3817312  -0.044   5.806   9.657 -0.5359  0.6806  0.6749
  155SAPE   H8X17313  -0.153   5.790   9.667 -0.4172 -0.6651 -0.1193
  155SAPE   H8Y17314   0.022   5.721   9.687 -0.1861  1.4543  2.1626
  155SAPE   C3917315  -0.031   5.848   9.509  0.4413 -0.1536 -0.7408
  155SAPE   H9X17316  -0.050   5.758   9.446  0.4552 -0.8385  0.2186
  155SAPE   H9Y17317   0.071   5.887   9.493  0.6077  0.1528  0.9207
  155SAPE  C31017318  -0.127   5.963   9.472  0.4604 -0.6173 -0.0369
  155SAPE  H10X17319  -0.110   6.056   9.529  1.4507 -0.7593 -0.0861
  155SAPE  H10Y17320  -0.231   5.929   9.487 -0.9137  2.2002 -2.6383
  155SAPE  C31117321  -0.115   5.995   9.317  0.1536  0.0707 -1.0492
  155SAPE  H11X17322  -0.017   5.962   9.276 -0.8655 -5.4042  0.5125
  155SAPE  H11Y17323  -0.120   6.102   9.288  1.3119 -0.0346 -1.6853
  155SAPE  C31217324  -0.212   5.919   9.229 -0.1551 -0.1369 -0.3549
  155SAPE  H12X17325  -0.315   5.931   9.269  0.2417  1.9879  0.0850
  155SAPE  H12Y17326  -0.185   5.811   9.224  1.4091  0.3015 -1.6491
  155SAPE  C31317327  -0.246   5.988   9.095  0.5990  0.5646  0.4829
  155SAPE  H13X17328  -0.160   5.995   9.024 -0.2883 -1.3579 -0.8075
  155SAPE  H13Y17329  -0.279   6.094   9.101 -1.2026  0.1629 -1.5757
  155SAPE  C31417330  -0.353   5.909   9.011  0.1965  0.3305 -0.4779
  155SAPE  H14X17331  -0.450   5.909   9.066  0.5119  1.9170  0.0930
  155SAPE  H14Y17332  -0.321   5.802   9.006  0.9664  0.6257 -1.9248
  155SAPE  C31517333  -0.381   5.978   8.875 -0.5685 -0.3005  0.3278
  155SAPE  H15X17334  -0.297   5.946   8.809 -1.4291 -0.6954 -0.5956
  155SAPE  H15Y17335  -0.377   6.088   8.887  0.4960 -0.4025  0.9532
  155SAPE  C31617336  -0.506   5.926   8.808  0.0926 -0.6497  0.8768
  155SAPE  H16X17337  -0.598   5.969   8.853 -0.6589 -1.2955 -0.0159
  155SAPE  H16Y17338  -0.505   5.815   8.815  0.0987 -0.7285 -0.3468
  155SAPE  C31717339  -0.495   5.953   8.659  0.0905 -0.0959 -0.3316
  155SAPE  H17X17340  -0.411   5.899   8.611  0.4796 -1.6170  1.9777
  155SAPE  H17Y17341  -0.480   6.063   8.649  1.7560 -0.3822 -1.0685
  155SAPE  C31817342  -0.633   5.931   8.586 -1.2159  0.7287  0.6895
  155SAPE  H18X17343  -0.626   5.948   8.476  0.6898  1.8681  0.9669
  155SAPE  H18Y17344  -0.707   5.988   8.646 -1.3463  0.6929  0.5626
  155SAPE  H18Z17345  -0.657   5.823   8.594  2.9826 -0.2334  1.6878
  156SAPE     N17346   5.085   3.905  10.424 -0.9431 -0.3457 -0.0053
  156SAPE   HN117347   4.989   3.896  10.464 -1.4594 -2.7995 -1.6774
  156SAPE   HN217348   5.149   3.871  10.499 -0.1741  0.0181 -0.4886
  156SAPE   HN317349   5.107   4.005  10.409  0.5772 -0.4368  1.4121
  156SAPE   C1217350   5.110   3.824  10.301  0.5201 -0.3436 -0.5352
  156SAPE  H12A17351   5.218   3.840  10.279  1.6918 -3.0284  2.6721
  156SAPE  H12B17352   5.040   3.853  10.220 -0.5899  1.7755  1.1423
  156SAPE   C1117353   5.100   3.668  10.319 -0.2313 -0.1449 -0.2579
  156SAPE  H11A17354   5.163   3.619  10.243 -2.5310  0.3552 -2.5413
  156SAPE  H11B17355   4.997   3.647  10.282  0.4145  0.2367 -2.3380
  156SAPE     P17356   5.095   3.475  10.494  0.1149 -0.6937 -0.2731
  156SAPE   O1317357   5.065   3.464  10.636 -0.5246  0.6753  0.1926
  156SAPE   O1417358   4.992   3.430  10.401 -0.4773 -0.1102  0.1559
  156SAPE   O1217359   5.121   3.632  10.461  0.1540  0.7729  0.4765
  156SAPE   O1117360   5.222   3.409  10.458 -0.0528  0.2172  0.2948
  156SAPE    C117361   5.352   3.440  10.488 -0.0592 -0.2422  0.4582
  156SAPE    HA17362   5.349   3.523  10.562 -0.6405  0.9738 -0.9092
  156SAPE    HB17363   5.405   3.356  10.536  0.3044 -1.3500 -1.8202
  156SAPE    C217364   5.429   3.494  10.369  0.3187 -0.2448  0.8206
  156SAPE    HS17365   5.401   3.602  10.363  0.7912 -0.2242 -1.4945
  156SAPE   O2117366   5.389   3.427  10.250 -0.0415  0.6336 -0.2003
  156SAPE   C2117367   5.390   3.500  10.148  0.5498  0.0035 -0.3230
  156SAPE   O2217368   5.405   3.623  10.148  0.1773  0.0849 -0.8458
  156SAPE   C2217369   5.338   3.427  10.019  0.2302  0.3904  0.6530
  156SAPE   H2R17370   5.411   3.349   9.990  0.4561  0.9958 -0.4204
  156SAPE   H2S17371   5.246   3.372  10.047  0.6177 -0.0934  0.9969
  156SAPE    C317372   5.584   3.484  10.387  0.3337  0.8643 -0.7961
  156SAPE    HX17373   5.596   3.374  10.395 -0.0794  0.9437  1.2977
  156SAPE    HY17374   5.627   3.522  10.482  1.9324  0.2897 -1.2627
  156SAPE   O3117375   5.669   3.546  10.287  0.2419  0.0037  0.4342
  156SAPE   C3117376   5.717   3.460  10.192 -0.2037 -0.4904 -0.3542
  156SAPE   O3217377   5.680   3.345  10.194 -0.3099 -0.2616  0.2199
  156SAPE   C3217378   5.815   3.524  10.091  0.2112  0.5102  0.1066
  156SAPE   H2X17379   5.920   3.528  10.127  0.4187  1.2924 -0.5657
  156SAPE   H2Y17380   5.783   3.630  10.081  0.3859  0.5397 -0.1244
  156SAPE   C2317381   5.326   3.512   9.894 -0.3181 -0.5241  0.4261
  156SAPE   H3R17382   5.310   3.451   9.802 -2.2385  0.2382  0.2422
  156SAPE   H3S17383   5.420   3.569   9.876 -0.0748 -0.7217  1.0566
  156SAPE   C2417384   5.207   3.608   9.916  0.1798 -0.0393  0.5501
  156SAPE   H4R17385   5.218   3.680   9.832 -0.5518 -0.5972 -0.0251
  156SAPE   H4S17386   5.215   3.664  10.012  0.8354  0.0148  0.4663
  156SAPE   C2517387   5.075   3.539   9.906 -0.1131 -0.3198  0.2933
  156SAPE   H5R17388   5.030   3.511  10.002  0.4005 -0.3508  0.5224
  156SAPE   C2617389   5.010   3.513   9.792 -0.3150 -0.3080 -0.1861
  156SAPE   H6R17390   4.908   3.471   9.793 -0.7226  0.5032 -2.7974
  156SAPE   C2717391   5.046   3.556   9.651 -0.4817 -0.4189 -0.3745
  156SAPE   H7R17392   5.126   3.633   9.653 -1.1508  0.3695 -3.1010
  156SAPE   H7S17393   4.954   3.602   9.610 -1.2579 -0.7889  0.9130
  156SAPE   C2817394   5.080   3.433   9.567  0.3784  0.0048  0.0710
  156SAPE   H8R17395   5.099   3.343   9.626 -2.8064  1.0254  2.8457
  156SAPE   C2917396   5.092   3.424   9.436  0.5990  0.6503 -0.0176
  156SAPE   H9R17397   5.117   3.323   9.401 -0.1283  0.3900  0.1872
  156SAPE  C21017398   5.091   3.537   9.335  0.2039 -0.5135  0.0837
  156SAPE  H10R17399   5.193   3.579   9.322  0.4720 -1.6774 -1.8277
  156SAPE  H10S17400   5.036   3.629   9.363  2.7906  1.0356  0.2575
  156SAPE  C21117401   5.044   3.488   9.198  0.6171 -0.4177 -0.3749
  156SAPE  H11R17402   5.127   3.461   9.130  1.4989 -1.9932  1.2688
  156SAPE  C21217403   4.914   3.463   9.158  0.4701  0.1721 -0.8938
  156SAPE  H12R17404   4.898   3.418   9.058  1.7352 -1.4652 -0.3780
  156SAPE  C21317405   4.791   3.486   9.237 -0.6330 -0.2160  0.0101
  156SAPE  H13R17406   4.806   3.581   9.293  2.2885 -0.8462  0.4063
  156SAPE  H13S17407   4.782   3.408   9.316 -1.0279  0.4613  0.6504
  156SAPE  C21417408   4.665   3.488   9.150 -0.1368 -0.7760  0.3267
  156SAPE  H14R17409   4.655   3.412   9.071 -0.8154 -1.5851  1.2012
  156SAPE  C21517410   4.570   3.581   9.166  0.2872 -0.3533  0.4607
  156SAPE  H15R17411   4.482   3.561   9.103 -1.2087 -2.8691  3.2119
  156SAPE  C21617412   4.572   3.698   9.259  0.3669  0.1181  0.8128
  156SAPE  H16R17413   4.532   3.786   9.203  0.5519 -1.3387 -1.6763
  156SAPE  H16S17414   4.675   3.731   9.286 -0.7679  5.2910 -0.6689
  156SAPE  C21717415   4.501   3.678   9.391  0.2932  0.6450 -0.5948
  156SAPE  H17R17416   4.398   3.646   9.365  0.4916 -0.1007 -0.4787
  156SAPE  H17S17417   4.504   3.779   9.439  0.5842  1.0888 -1.5447
  156SAPE  C21817418   4.563   3.568   9.484  0.2780 -0.2854  0.2580
  156SAPE  H18R17419   4.673   3.580   9.497  1.1032 -3.1367 -3.4974
  156SAPE  H18S17420   4.550   3.473   9.428  0.8611  0.3084 -0.8944
  156SAPE  C21917421   4.492   3.563   9.621 -0.5785 -0.2537 -0.4040
  156SAPE  H19R17422   4.472   3.461   9.661  1.5429 -0.1261  1.0344
  156SAPE  H19S17423   4.395   3.616   9.608 -0.3068  0.4848  0.5067
  156SAPE  C22017424   4.566   3.633   9.743 -0.1660  0.4144  0.1972
  156SAPE  H20R17425   4.660   3.580   9.766 -0.3764  0.3437  0.8853
  156SAPE  H20S17426   4.496   3.636   9.829 -2.3993  0.3115 -1.5641
  156SAPE  H20T17427   4.595   3.737   9.715  0.4315  0.7693  2.0883
  156SAPE   C3317428   5.812   3.449   9.956  0.2319 -0.1388 -0.6685
  156SAPE   H3X17429   5.811   3.340   9.972 -0.4202 -0.1772 -0.9470
  156SAPE   H3Y17430   5.904   3.475   9.900 -0.5578  0.3613 -1.7680
  156SAPE   C3417431   5.694   3.498   9.876 -0.1317  0.8476  0.1285
  156SAPE   H4X17432   5.659   3.600   9.905 -0.0066  0.0197  3.3871
  156SAPE   H4Y17433   5.615   3.421   9.885  2.9397 -2.2922  1.7302
  156SAPE   C3517434   5.718   3.495   9.715 -0.1895 -0.8791  0.4756
  156SAPE   H5X17435   5.756   3.395   9.685 -0.0078 -0.4394 -0.7724
  156SAPE   H5Y17436   5.798   3.568   9.689 -2.6109  1.4479 -0.6456
  156SAPE   C3617437   5.597   3.520   9.630 -0.1410  0.0005  0.0749
  156SAPE   H6X17438   5.553   3.615   9.667 -0.3628 -0.5736  1.3132
  156SAPE   H6Y17439   5.517   3.447   9.656 -2.7271  2.0974 -1.7626
  156SAPE   C3717440   5.626   3.520   9.485  0.4054  0.9245 -0.4702
  156SAPE   H7X17441   5.668   3.420   9.463  1.8961  1.7315 -1.4795
  156SAPE   H7Y17442   5.695   3.605   9.463  1.2270  0.9114  1.8661
  156SAPE   C3817443   5.499   3.533   9.396  0.2104 -0.2051 -0.0950
  156SAPE   H8X17444   5.441   3.619   9.436  1.6183  1.3109 -1.1921
  156SAPE   H8Y17445   5.437   3.444   9.418 -0.1929 -0.5948 -2.6423
  156SAPE   C3917446   5.520   3.561   9.248 -0.3678 -0.8386 -0.2272
  156SAPE   H9X17447   5.552   3.667   9.234  1.3107 -1.2008  0.6998
  156SAPE   H9Y17448   5.438   3.545   9.175  0.0158  0.7333 -1.0476
  156SAPE  C31017449   5.640   3.482   9.191  0.5109  0.0821 -0.2368
  156SAPE  H10X17450   5.608   3.376   9.200  0.3124  0.2360  1.0684
  156SAPE  H10Y17451   5.733   3.511   9.245 -0.1784 -0.2380  1.1444
  156SAPE  C31117452   5.666   3.522   9.045 -0.1894  0.2591  0.5463
  156SAPE  H11X17453   5.689   3.630   9.045 -0.9360  0.4187  0.2176
  156SAPE  H11Y17454   5.585   3.507   8.970 -0.2578 -3.3999  1.2196
  156SAPE  C31217455   5.779   3.436   8.988 -0.6619 -0.1102 -0.7279
  156SAPE  H12X17456   5.769   3.330   9.019  0.6677 -0.3914 -1.1984
  156SAPE  H12Y17457   5.875   3.457   9.040 -0.8219 -0.2625 -0.3725
  156SAPE  C31317458   5.802   3.454   8.834  0.5876  0.6544  0.3838
  156SAPE  H13X17459   5.718   3.399   8.786  0.7921  0.7368 -0.0696
  156SAPE  H13Y17460   5.904   3.415   8.811  0.9413  2.8227 -1.9071
  156SAPE  C31417461   5.812   3.602   8.781  0.3698 -0.1827 -0.5769
  156SAPE  H14X17462   5.907   3.642   8.821 -0.5676 -0.8113  2.3822
  156SAPE  H14Y17463   5.730   3.665   8.821  0.8157  1.0583 -1.5887
  156SAPE  C31517464   5.807   3.604   8.625 -0.0917  0.1656 -0.2867
  156SAPE  H15X17465   5.707   3.588   8.580 -0.3507 -2.8395  1.2742
  156SAPE  H15Y17466   5.869   3.522   8.583 -0.9616 -0.2153 -0.8210
  156SAPE  C31617467   5.864   3.737   8.571  0.7711 -0.1132 -0.2682
  156SAPE  H16X17468   5.965   3.757   8.612 -0.4784 -1.3333  3.6029
  156SAPE  H16Y17469   5.803   3.825   8.600 -0.0450 -0.2900 -1.3945
  156SAPE  C31717470   5.872   3.747   8.416 -0.6374  0.2869 -1.2688
  156SAPE  H17X17471   5.916   3.842   8.379 -1.4614  0.0662 -2.8670
  156SAPE  H17Y17472   5.770   3.748   8.373 -0.2058  0.3305 -2.3175
  156SAPE  C31817473   5.948   3.628   8.351 -0.0617  0.2350 -0.6231
  156SAPE  H18X17474   5.975   3.648   8.245 -0.9695  1.7970 -0.5662
  156SAPE  H18Y17475   5.885   3.538   8.368  1.1877 -0.6116 -0.4158
  156SAPE  H18Z17476   6.041   3.622   8.412  1.4727 -0.6199 -2.9763
  157SAPE     N17477   4.397   3.890  10.697 -0.0071  0.9327  0.3250
  157SAPE   HN117478   4.344   3.850  10.616 -0.2636  3.2396 -0.6804
  157SAPE   HN217479   4.390   3.993  10.683 -0.2410  0.7501 -1.0032
  157SAPE   HN317480   4.495   3.860  10.678 -0.6510 -1.0504 -0.0046
  157SAPE   C1217481   4.365   3.827  10.833  0.1290 -0.2590 -0.0129
  157SAPE  H12A17482   4.255   3.833  10.849  0.1913  1.3196 -0.1163
  157SAPE  H12B17483   4.426   3.880  10.909 -0.1293  2.1122 -1.4094
  157SAPE   C1117484   4.407   3.679  10.830  0.8726 -0.3692 -0.5525
  157SAPE  H11A17485   4.407   3.636  10.933 -2.5771 -1.1254 -0.8250
  157SAPE  H11B17486   4.512   3.667  10.795  0.5661 -3.2240 -0.5736
  157SAPE     P17487   4.287   3.459  10.785 -0.2100 -0.3292 -0.1216
  157SAPE   O1317488   4.396   3.366  10.760 -0.1235 -0.1916 -0.4282
  157SAPE   O1417489   4.239   3.464  10.931 -0.4510 -0.4842  0.6927
  157SAPE   O1217490   4.330   3.606  10.734  0.0511 -0.6160 -0.0986
  157SAPE   O1117491   4.154   3.426  10.699 -0.0008  0.0537  0.1679
  157SAPE    C117492   4.138   3.498  10.574  0.1044 -0.5514  0.9995
  157SAPE    HA17493   4.039   3.477  10.530  1.4460  0.7591 -2.8250
  157SAPE    HB17494   4.139   3.608  10.590 -0.8248 -0.4279  0.2126
  157SAPE    C217495   4.234   3.462  10.460 -0.8459 -0.1930  0.1511
  157SAPE    HS17496   4.336   3.490  10.495 -0.3108 -1.0329 -0.7241
  157SAPE   O2117497   4.184   3.525  10.340  0.0715 -0.3325 -0.5472
  157SAPE   C2117498   4.271   3.555  10.245  0.2048  0.2970 -0.3134
  157SAPE   O2217499   4.395   3.566  10.254  0.1631 -0.0755 -0.4734
  157SAPE   C2217500   4.201   3.584  10.118 -0.0657 -0.0991 -0.2994
  157SAPE   H2R17501   4.145   3.678  10.136  2.3746  0.8495  2.5073
  157SAPE   H2S17502   4.275   3.597  10.037 -2.5071 -2.6095 -3.0907
  157SAPE    C317503   4.235   3.304  10.446 -0.9165 -0.0850 -0.1498
  157SAPE    HX17504   4.138   3.264  10.409 -1.2233 -0.1401  0.7040
  157SAPE    HY17505   4.248   3.270  10.551 -1.4656  0.6746  0.1722
  157SAPE   O3117506   4.345   3.261  10.364  0.4403 -0.0337  0.1565
  157SAPE   C3117507   4.338   3.134  10.327 -0.2684  0.5376 -0.0535
  157SAPE   O3217508   4.256   3.056  10.370  0.2530 -0.3214 -0.2094
  157SAPE   C3217509   4.437   3.111  10.218  0.3699 -0.6772  0.2727
  157SAPE   H2X17510   4.539   3.146  10.243  0.0801  1.0603 -0.8811
  157SAPE   H2Y17511   4.404   3.180  10.138  1.2514 -0.9215 -0.3030
  157SAPE   C2317512   4.094   3.470  10.079 -0.6561 -0.4985 -1.0879
  157SAPE   H3R17513   4.017   3.503  10.006 -0.8580  1.6421  0.0659
  157SAPE   H3S17514   4.049   3.434  10.173 -4.0350 -1.4609 -3.0172
  157SAPE   C2417515   4.157   3.338  10.016 -0.2494 -0.3041 -0.5663
  157SAPE   H4R17516   4.082   3.256  10.021  0.0145 -0.6261 -1.8113
  157SAPE   H4S17517   4.228   3.301  10.093  0.4504 -0.3405 -1.2286
  157SAPE   C2517518   4.231   3.352   9.883 -0.8001 -0.0110 -0.1930
  157SAPE   H5R17519   4.339   3.354   9.902 -1.1033 -1.3406  1.7548
  157SAPE   C2617520   4.182   3.337   9.758 -0.8667  0.3351  0.2092
  157SAPE   H6R17521   4.250   3.357   9.674 -1.9354  0.3912 -0.6493
  157SAPE   C2717522   4.037   3.316   9.716  0.2538  0.4271  0.5595
  157SAPE   H7R17523   4.019   3.404   9.651  0.4192 -0.9310 -1.3592
  157SAPE   H7S17524   3.969   3.329   9.803  0.6560 -2.0846  1.2690
  157SAPE   C2817525   3.996   3.194   9.644 -0.2277 -0.0135  0.6696
  157SAPE   H8R17526   3.952   3.118   9.711  0.6192 -2.0462 -1.0105
  157SAPE   C2917527   4.032   3.166   9.515  0.0802 -0.6176  0.4529
  157SAPE   H9R17528   3.986   3.074   9.477 -0.2292  0.0957 -0.9689
  157SAPE  C21017529   4.112   3.250   9.420  0.0888  0.5013  0.1400
  157SAPE  H10R17530   4.205   3.284   9.471  0.9139  1.1507 -1.7515
  157SAPE  H10S17531   4.057   3.343   9.395 -1.7352 -0.4525  0.5047
  157SAPE  C21117532   4.162   3.187   9.291 -0.1727  0.7697  0.5167
  157SAPE  H11R17533   4.207   3.088   9.311 -4.2540 -1.2290  0.3472
  157SAPE  C21217534   4.169   3.241   9.171 -0.6258 -0.1012  0.4424
  157SAPE  H12R17535   4.207   3.188   9.082 -0.4711  3.1081 -1.4965
  157SAPE  C21317536   4.117   3.384   9.142  0.6986  0.4610  0.0837
  157SAPE  H13R17537   4.158   3.435   9.052  0.5945  2.8145  1.3070
  157SAPE  H13S17538   4.147   3.449   9.227  1.2827 -0.5436  0.6540
  157SAPE  C21417539   3.966   3.393   9.147  0.3604  0.6136  0.1044
  157SAPE  H14R17540   3.920   3.335   9.229  0.9364  3.3695  2.4480
  157SAPE  C21517541   3.877   3.452   9.062 -0.6120 -0.3596 -0.1145
  157SAPE  H15R17542   3.773   3.457   9.097 -1.1983 -0.8560 -1.7302
  157SAPE  C21617543   3.907   3.532   8.934  0.1713 -0.5548  0.0649
  157SAPE  H16R17544   3.998   3.596   8.939 -0.2485  0.0959 -0.5511
  157SAPE  H16S17545   3.817   3.591   8.907  0.9881  0.8378  0.3613
  157SAPE  C21717546   3.931   3.429   8.821 -0.3869 -0.5384  0.1835
  157SAPE  H17R17547   4.021   3.370   8.849 -1.4360 -1.9030  0.7568
  157SAPE  H17S17548   3.970   3.481   8.731  0.7056 -0.5529  0.6477
  157SAPE  C21817549   3.817   3.324   8.798 -0.1385 -0.2508  0.0068
  157SAPE  H18R17550   3.721   3.381   8.805 -0.0058  0.1256 -1.2795
  157SAPE  H18S17551   3.815   3.237   8.867  2.2842 -0.4927 -0.1978
  157SAPE  C21917552   3.826   3.267   8.655  0.5441 -0.3562 -0.5930
  157SAPE  H19R17553   3.813   3.349   8.581 -3.2887 -0.2006  0.1753
  157SAPE  H19S17554   3.747   3.190   8.638  0.9456 -1.1449  1.0302
  157SAPE  C22017555   3.961   3.199   8.621  0.0433 -0.4675  0.2430
  157SAPE  H20R17556   4.043   3.269   8.646 -0.8396  0.9037 -0.6415
  157SAPE  H20S17557   3.953   3.154   8.520 -2.6591  1.8005 -0.6128
  157SAPE  H20T17558   3.979   3.120   8.698  0.9670  2.1686  2.8150
  157SAPE   C3317559   4.434   2.967  10.160  0.2780  0.6522  0.3156
  157SAPE   H3X17560   4.422   2.892  10.241 -2.5866  0.9309  0.1934
  157SAPE   H3Y17561   4.531   2.943  10.110  0.6542 -2.1472  2.2615
  157SAPE   C3417562   4.331   2.946  10.051  0.1296 -0.4580  0.2625
  157SAPE   H4X17563   4.327   3.031   9.979  1.8533 -1.7211 -1.3650
  157SAPE   H4Y17564   4.232   2.951  10.101 -0.3710  1.2714 -0.8417
  157SAPE   C3517565   4.337   2.806   9.979  0.0530  0.0390 -0.0436
  157SAPE   H5X17566   4.319   2.722  10.049  0.8866  1.1010  1.4514
  157SAPE   H5Y17567   4.439   2.784   9.939  0.0694  0.7038 -0.3755
  157SAPE   C3617568   4.243   2.786   9.857 -0.1139  0.0824  0.6665
  157SAPE   H6X17569   4.148   2.842   9.858 -1.1931 -1.6956  0.8087
  157SAPE   H6Y17570   4.222   2.677   9.859 -0.4654  0.1612  2.8330
  157SAPE   C3717571   4.318   2.817   9.727 -0.2740 -0.1411  0.6436
  157SAPE   H7X17572   4.417   2.769   9.718  0.5499  1.7728 -0.9826
  157SAPE   H7Y17573   4.339   2.926   9.721  0.3406 -0.1004  3.1803
  157SAPE   C3817574   4.229   2.781   9.610 -0.3451 -0.3191  1.2486
  157SAPE   H8X17575   4.137   2.842   9.618  1.2676  2.1940  1.3946
  157SAPE   H8Y17576   4.201   2.674   9.618 -0.1492 -0.3527  1.4835
  157SAPE   C3917577   4.292   2.807   9.473 -0.4901 -0.2625 -0.3123
  157SAPE   H9X17578   4.391   2.756   9.472 -0.1238  0.3570 -4.3260
  157SAPE   H9Y17579   4.316   2.914   9.460 -0.8030 -0.2180 -0.5214
  157SAPE  C31017580   4.221   2.762   9.346  0.4103  0.0873  0.7915
  157SAPE  H10X17581   4.119   2.806   9.340  0.6901  0.7723  1.0858
  157SAPE  H10Y17582   4.212   2.651   9.355 -0.4946 -0.1230 -2.3146
  157SAPE  C31117583   4.293   2.798   9.220  0.5737 -0.0041 -0.5213
  157SAPE  H11X17584   4.390   2.743   9.220 -1.3426 -3.5817  0.5012
  157SAPE  H11Y17585   4.322   2.905   9.215  1.4479 -0.0885  2.0218
  157SAPE  C31217586   4.214   2.746   9.098  0.3295  0.3997  0.4027
  157SAPE  H12X17587   4.110   2.781   9.118 -0.5284 -1.1826 -1.1923
  157SAPE  H12Y17588   4.212   2.636   9.091 -1.6460  0.0580  4.5509
  157SAPE  C31317589   4.261   2.796   8.956 -1.2313  0.7890  0.3810
  157SAPE  H13X17590   4.266   2.907   8.949 -1.7218  0.8748  1.2366
  157SAPE  H13Y17591   4.180   2.762   8.889  0.4106 -4.1557  0.7445
  157SAPE  C31417592   4.396   2.737   8.912  0.7654  0.1449  0.0570
  157SAPE  H14X17593   4.399   2.628   8.931  0.0763  0.6136  3.0742
  157SAPE  H14Y17594   4.483   2.778   8.967  0.6647  2.1665 -1.2358
  157SAPE  C31517595   4.423   2.774   8.765 -0.6468  0.1538  0.5530
  157SAPE  H15X17596   4.461   2.878   8.759 -0.6883  0.2784  2.2077
  157SAPE  H15Y17597   4.327   2.762   8.711 -0.2639 -1.3002  0.1739
  157SAPE  C31617598   4.542   2.691   8.698  0.3640  0.0371  0.2989
  157SAPE  H16X17599   4.518   2.584   8.719  3.0877 -1.1652 -2.3662
  157SAPE  H16Y17600   4.636   2.727   8.743  1.8452 -0.8663 -2.0072
  157SAPE  C31717601   4.548   2.711   8.549  0.1054  0.6186  0.0301
  157SAPE  H17X17602   4.440   2.717   8.523 -0.4954 -2.9348  1.4152
  157SAPE  H17Y17603   4.603   2.621   8.514 -0.1282 -0.5537  2.5837
  157SAPE  C31817604   4.629   2.838   8.511  0.5619  0.3382  0.1156
  157SAPE  H18X17605   4.580   2.933   8.543  1.5000  0.6150  0.7388
  157SAPE  H18Y17606   4.632   2.849   8.400  1.8721  0.4173  0.1555
  157SAPE  H18Z17607   4.729   2.833   8.557  1.3870 -1.6302 -1.7716
  158SAPE     N17608   5.346   4.430  10.758 -0.5427 -0.4038  0.8307
  158SAPE   HN117609   5.359   4.501  10.832  1.8117 -0.8186  0.8572
  158SAPE   HN217610   5.341   4.471  10.663 -1.8442 -1.0745  0.6002
  158SAPE   HN317611   5.263   4.369  10.768 -0.6919 -0.4414 -0.5702
  158SAPE   C1217612   5.475   4.353  10.758  1.0296  0.1916 -1.3612
  158SAPE  H12A17613   5.478   4.298  10.854  1.3765 -0.1959 -1.5963
  158SAPE  H12B17614   5.563   4.421  10.766  1.0910 -0.1720  1.5078
  158SAPE   C1117615   5.487   4.253  10.641 -0.5637  0.3711  0.7157
  158SAPE  H11A17616   5.590   4.214  10.633 -0.4258  0.9797 -0.5933
  158SAPE  H11B17617   5.490   4.319  10.552  0.1978 -1.0831 -0.3504
  158SAPE     P17618   5.391   4.012  10.683  0.4445 -0.2895  0.0588
  158SAPE   O1317619   5.382   4.027  10.827  0.1695 -0.2599  0.2020
  158SAPE   O1417620   5.283   3.931  10.621  0.1495 -0.6017  0.9240
  158SAPE   O1217621   5.383   4.154  10.621  0.0941 -0.4446  0.1071
  158SAPE   O1117622   5.524   3.943  10.641  0.0819  0.4232 -0.2896
  158SAPE    C117623   5.549   3.871  10.519  0.1842  0.1178  0.5688
  158SAPE    HA17624   5.620   3.787  10.533 -0.9155 -1.1110 -0.8710
  158SAPE    HB17625   5.458   3.820  10.479  0.2906 -2.3670  3.3555
  158SAPE    C217626   5.620   3.945  10.402 -0.7005 -0.3219  0.0323
  158SAPE    HS17627   5.714   3.994  10.437 -0.1157 -0.6694 -1.0224
  158SAPE   O2117628   5.527   4.040  10.359 -0.4077 -0.5044  0.2932
  158SAPE   C2117629   5.578   4.149  10.310  0.5189  0.0752  0.4511
  158SAPE   O2217630   5.694   4.184  10.312 -0.4337 -0.3653 -0.4809
  158SAPE   C2217631   5.469   4.239  10.248  0.2076  0.3747  0.5270
  158SAPE   H2R17632   5.377   4.226  10.309  0.7643 -0.4860  1.2000
  158SAPE   H2S17633   5.513   4.340  10.266  1.8626 -0.1882 -0.3137
  158SAPE    C317634   5.657   3.853  10.273  0.5365  0.1956 -0.6565
  158SAPE    HX17635   5.570   3.790  10.243 -1.1846  1.4970  1.4327
  158SAPE    HY17636   5.731   3.778  10.307  1.1634  0.0779 -2.2675
  158SAPE   O3117637   5.700   3.936  10.165 -0.0737  0.0855  0.1899
  158SAPE   C3117638   5.831   3.957  10.137  0.1564 -0.5093  0.2254
  158SAPE   O3217639   5.921   3.908  10.198 -0.6550 -0.4533 -0.1625
  158SAPE   C3217640   5.842   4.053  10.017 -0.4108 -0.7041  0.5776
  158SAPE   H2X17641   5.846   4.159  10.050 -5.2015 -0.0118 -0.6778
  158SAPE   H2Y17642   5.744   4.048   9.965  0.9718  0.9761 -2.3021
  158SAPE   C2317643   5.455   4.214  10.101 -0.2396 -0.0767  0.2036
  158SAPE   H3R17644   5.546   4.186  10.044  0.2862 -0.9825  1.4576
  158SAPE   H3S17645   5.422   4.309  10.053 -3.0531 -0.3976  1.4384
  158SAPE   C2417646   5.341   4.117  10.075 -0.7102 -0.5721 -0.3309
  158SAPE   H4R17647   5.285   4.140   9.982 -1.2364  3.5493  0.9043
  158SAPE   H4S17648   5.272   4.111  10.162 -0.4577 -1.1687 -0.1704
  158SAPE   C2517649   5.404   3.981  10.063 -0.5002 -0.0887  0.4352
  158SAPE   H5R17650   5.417   3.926  10.156  0.1330  0.6344  0.7853
  158SAPE   C2617651   5.442   3.919   9.950  0.0836  0.1894  0.3765
  158SAPE   H6R17652   5.489   3.819   9.948  1.7964  0.9839 -2.9202
  158SAPE   C2717653   5.433   3.980   9.806  0.1878  0.5183 -0.1722
  158SAPE   H7R17654   5.510   3.927   9.745 -1.9312 -0.9990 -1.5958
  158SAPE   H7S17655   5.450   4.089   9.797 -0.6896  0.8767  2.2248
  158SAPE   C2817656   5.298   3.943   9.745 -0.6449  0.0882  0.6364
  158SAPE   H8R17657   5.217   3.902   9.808 -1.1176  0.5930  0.3644
  158SAPE   C2917658   5.269   3.951   9.613 -0.4011  0.0607 -0.1371
  158SAPE   H9R17659   5.171   3.913   9.579 -1.6569 -0.0038  3.3066
  158SAPE  C21017660   5.365   3.991   9.499 -0.7345 -0.4814 -0.2635
  158SAPE  H10R17661   5.412   3.895   9.467  2.2659  1.0793 -0.6993
  158SAPE  H10S17662   5.442   4.064   9.532  0.2086 -0.8191 -1.6854
  158SAPE  C21117663   5.288   4.043   9.380  0.6016  0.0023 -0.7928
  158SAPE  H11R17664   5.217   4.124   9.405  1.4781  0.6800 -0.4599
  158SAPE  C21217665   5.268   3.994   9.259  0.1764  0.0438  0.3324
  158SAPE  H12R17666   5.209   4.052   9.187  0.5116  2.3134  1.8497
  158SAPE  C21317667   5.335   3.873   9.199  0.4200 -0.8561 -0.0184
  158SAPE  H13R17668   5.262   3.824   9.131  1.5800 -0.8560 -1.2905
  158SAPE  H13S17669   5.375   3.802   9.274 -0.1914  0.0893  1.2047
  158SAPE  C21417670   5.456   3.916   9.122 -0.0703 -0.1090  0.0983
  158SAPE  H14R17671   5.522   3.981   9.183 -2.8127  1.2854  1.7070
  158SAPE  C21517672   5.477   3.898   8.993  0.3362 -0.3605 -0.0587
  158SAPE  H15R17673   5.562   3.953   8.951 -0.0355  1.0441  0.9508
  158SAPE  C21617674   5.390   3.818   8.900 -0.4212  0.4695  0.4831
  158SAPE  H16R17675   5.288   3.826   8.943 -0.0562 -0.8034  1.6295
  158SAPE  H16S17676   5.424   3.713   8.887  1.2891  0.8877  1.4229
  158SAPE  C21717677   5.369   3.887   8.766 -0.0532  0.7121 -0.6525
  158SAPE  H17R17678   5.350   3.994   8.789 -1.9894  0.2593 -0.1410
  158SAPE  H17S17679   5.284   3.846   8.707  0.8744 -0.9337 -0.8673
  158SAPE  C21817680   5.498   3.876   8.680 -0.0940 -0.3644 -0.5800
  158SAPE  H18R17681   5.550   3.781   8.707  2.2132  1.1402  0.4692
  158SAPE  H18S17682   5.570   3.945   8.730 -0.1015 -0.6730 -0.1346
  158SAPE  C21917683   5.487   3.886   8.525 -0.6340 -0.8693 -0.0481
  158SAPE  H19R17684   5.405   3.813   8.508 -0.7148 -0.9954  0.8938
  158SAPE  H19S17685   5.584   3.859   8.477 -0.7056 -0.4842 -0.4076
  158SAPE  C22017686   5.446   4.025   8.475  0.6047  0.0268  0.1784
  158SAPE  H20R17687   5.514   4.099   8.522 -0.4545  0.9504  0.2778
  158SAPE  H20S17688   5.341   4.048   8.501  0.6124  1.1582 -0.7665
  158SAPE  H20T17689   5.462   4.034   8.365 -0.2510 -1.5188 -0.0883
  158SAPE   C3317690   5.946   4.013   9.911  0.2228 -0.2735 -0.0126
  158SAPE   H3X17691   5.929   3.906   9.887 -3.9344 -0.2419  2.4052
  158SAPE   H3Y17692   6.049   4.029   9.949  0.4136  0.6286 -0.8790
  158SAPE   C3417693   5.944   4.092   9.780  1.0203  1.1332 -0.1634
  158SAPE   H4X17694   6.047   4.079   9.741  0.9051  0.5993 -0.2981
  158SAPE   H4Y17695   5.924   4.200   9.798 -0.1958  0.9222 -0.2001
  158SAPE   C3517696   5.851   4.042   9.669 -0.7983 -0.0058 -0.1949
  158SAPE   H5X17697   5.857   4.112   9.584  1.9831  0.3205  0.2268
  158SAPE   H5Y17698   5.740   4.044   9.680 -0.6703  0.6828  1.1177
  158SAPE   C3617699   5.898   3.898   9.625 -0.2487  0.3761 -0.0105
  158SAPE   H6X17700   5.905   3.823   9.707 -3.0169  0.5183  0.4013
  158SAPE   H6Y17701   6.004   3.907   9.592 -0.6596 -1.4024 -1.9517
  158SAPE   C3717702   5.824   3.849   9.502 -1.2337  0.2377 -0.0885
  158SAPE   H7X17703   5.715   3.859   9.526 -0.7289  0.1369  2.4468
  158SAPE   H7Y17704   5.861   3.746   9.485 -1.1310  0.1354  0.7264
  158SAPE   C3817705   5.860   3.935   9.378 -0.4224  0.1303 -0.1439
  158SAPE   H8X17706   5.922   4.023   9.408 -0.2880  0.6693 -1.9468
  158SAPE   H8Y17707   5.769   3.974   9.329 -0.6014  1.7675  1.4453
  158SAPE   C3917708   5.952   3.859   9.273 -0.1243  0.3439 -0.8692
  158SAPE   H9X17709   5.910   3.757   9.259  3.1258 -1.1732 -0.1722
  158SAPE   H9Y17710   6.051   3.848   9.323 -1.4955 -0.9879  1.6555
  158SAPE  C31017711   5.950   3.925   9.137 -0.5022  0.5739 -0.4083
  158SAPE  H10X17712   5.985   4.030   9.145  0.3462  0.4740 -2.5901
  158SAPE  H10Y17713   5.847   3.916   9.096 -0.4872 -1.5110 -0.0730
  158SAPE  C31117714   6.053   3.849   9.055  0.1636  0.7399 -0.3331
  158SAPE  H11X17715   6.022   3.743   9.066 -1.1493  1.1001 -0.4684
  158SAPE  H11Y17716   6.156   3.869   9.091 -0.2419 -0.2506  1.3898
  158SAPE  C31217717   6.062   3.886   8.905  0.1557  1.0223 -0.1821
  158SAPE  H12X17718   6.092   3.992   8.906  0.0553  1.0444  0.9577
  158SAPE  H12Y17719   5.964   3.887   8.851 -0.5180 -1.9017  0.8946
  158SAPE  C31317720   6.163   3.804   8.820  0.5751  0.0932 -0.0121
  158SAPE  H13X17721   6.115   3.708   8.792 -0.2030  0.5516 -0.2699
  158SAPE  H13Y17722   6.253   3.793   8.885  0.4485 -1.7985 -0.1150
  158SAPE  C31417723   6.211   3.866   8.681  0.0762 -0.1161  0.7486
  158SAPE  H14X17724   6.257   3.967   8.691 -0.9816  0.3170  1.3507
  158SAPE  H14Y17725   6.129   3.883   8.608  2.1332 -0.7071 -1.7784
  158SAPE  C31517726   6.296   3.772   8.592 -0.6135 -0.8473 -0.1154
  158SAPE  H15X17727   6.263   3.667   8.576  0.3856 -1.1164 -0.4466
  158SAPE  H15Y17728   6.396   3.759   8.640  0.2739  1.7866 -1.1518
  158SAPE  C31617729   6.326   3.832   8.448 -0.5516 -0.6927 -0.1989
  158SAPE  H16X17730   6.363   3.936   8.463 -2.5250 -0.0665  0.4829
  158SAPE  H16Y17731   6.236   3.838   8.382 -0.2039  2.7803 -0.4381
  158SAPE  C31717732   6.424   3.746   8.379  0.4648 -0.0906 -0.8809
  158SAPE  H17X17733   6.385   3.643   8.391 -0.0648 -0.0033 -1.7885
  158SAPE  H17Y17734   6.526   3.746   8.423  0.6254  0.1962 -1.2516
  158SAPE  C31817735   6.428   3.769   8.227  0.1393 -0.4043 -0.0953
  158SAPE  H18X17736   6.483   3.685   8.178 -1.1304 -1.3627  0.0816
  158SAPE  H18Y17737   6.492   3.858   8.212  0.3409 -0.4971  0.2100
  158SAPE  H18Z17738   6.329   3.775   8.178  0.4718  0.4574 -0.6585
  159SAPE     N17739   4.921   1.247   6.235 -0.6068 -0.1954  0.8211
  159SAPE   HN117740   4.897   1.159   6.186 -0.8033 -0.0234  0.6099
  159SAPE   HN217741   4.841   1.312   6.243  0.2696  0.8200  1.6121
  159SAPE   HN317742   4.992   1.283   6.168 -1.2614  0.7587  0.6266
  159SAPE   C1217743   4.996   1.225   6.365  0.0184  0.1639 -0.0184
  159SAPE  H12A17744   5.082   1.292   6.384  0.6894 -0.5952 -0.3634
  159SAPE  H12B17745   5.044   1.125   6.368 -0.1948  0.1085  3.1030
  159SAPE   C1117746   4.893   1.221   6.483  0.1259  0.5187 -0.4713
  159SAPE  H11A17747   4.858   1.326   6.495 -0.4648 -0.0103  2.9817
  159SAPE  H11B17748   4.949   1.199   6.576 -0.2938 -1.0383 -0.5727
  159SAPE     P17749   4.722   1.030   6.554  0.5754  0.0535 -0.0500
  159SAPE   O1317750   4.633   1.094   6.657 -0.0637  0.3181 -0.3459
  159SAPE   O1417751   4.672   0.920   6.469 -0.3810  0.0194  0.5377
  159SAPE   O1217752   4.790   1.131   6.460  0.1948 -0.3929 -0.7563
  159SAPE   O1117753   4.850   0.978   6.626  0.1587 -0.2672  0.3493
  159SAPE    C117754   4.860   0.866   6.710 -0.9471 -0.3447 -0.0902
  159SAPE    HA17755   4.764   0.812   6.727 -0.8455 -0.6290 -0.3995
  159SAPE    HB17756   4.912   0.792   6.645 -1.0720  0.6635 -1.3575
  159SAPE    C217757   4.935   0.873   6.840 -0.2920 -0.0372 -0.3606
  159SAPE    HS17758   4.958   0.771   6.877 -1.7756  0.0656  0.9061
  159SAPE   O2117759   4.858   0.942   6.941  0.0997  0.2000  0.0675
  159SAPE   C2117760   4.750   0.880   6.991  0.1086 -0.4997 -0.9636
  159SAPE   O2217761   4.694   0.777   6.949  0.0879 -0.7277  0.3666
  159SAPE   C2217762   4.690   0.953   7.115 -0.3350 -0.7050 -0.7845
  159SAPE   H2R17763   4.636   1.039   7.070  2.8330  1.0276 -1.4466
  159SAPE   H2S17764   4.620   0.887   7.171  0.0609  1.2223  2.0681
  159SAPE    C317765   5.077   0.943   6.816 -0.3844  0.1272  0.2484
  159SAPE    HX17766   5.066   1.009   6.727 -0.8058 -0.7639 -0.3613
  159SAPE    HY17767   5.133   0.849   6.797  1.5406  1.6412 -1.8773
  159SAPE   O3117768   5.136   1.001   6.930 -0.0845 -0.7040 -0.4246
  159SAPE   C3117769   5.090   1.121   6.961  0.4215  0.0662  0.1345
  159SAPE   O3217770   5.020   1.195   6.892 -0.0413  0.3990  0.0306
  159SAPE   C3217771   5.150   1.169   7.092 -0.8220 -0.0462 -0.5011
  159SAPE   H2X17772   5.198   1.080   7.137 -2.2408 -0.4060  0.3111
  159SAPE   H2Y17773   5.064   1.207   7.152  0.8457 -0.2996  2.1845
  159SAPE   C2317774   4.794   1.005   7.214  0.4293 -0.3666  0.2233
  159SAPE   H3R17775   4.738   1.060   7.293 -1.5133  1.6568 -2.4835
  159SAPE   H3S17776   4.870   1.069   7.164 -0.1730  0.6055  0.5459
  159SAPE   C2417777   4.868   0.893   7.292 -0.5146  0.7582 -0.1429
  159SAPE   H4R17778   4.887   0.802   7.231  2.1115  0.6882  0.7371
  159SAPE   H4S17779   4.807   0.855   7.377 -0.6947 -3.5063 -2.0325
  159SAPE   C2517780   5.007   0.930   7.333 -0.2122  0.3924  0.3606
  159SAPE   H5R17781   5.085   0.927   7.256 -2.4039  0.8971 -1.9817
  159SAPE   C2617782   5.047   0.963   7.458 -0.4573  0.0062  0.1099
  159SAPE   H6R17783   5.153   0.977   7.480  0.0431 -1.8146 -1.0444
  159SAPE   C2717784   4.956   0.964   7.582  0.6818  0.3211 -0.3221
  159SAPE   H7R17785   4.912   0.865   7.606 -0.1231  0.3565 -1.5804
  159SAPE   H7S17786   4.867   1.025   7.553 -1.3437 -2.1955  0.4762
  159SAPE   C2817787   5.019   1.019   7.706 -0.3670 -0.0326 -0.2835
  159SAPE   H8R17788   5.105   1.087   7.695 -2.1095  1.8730 -2.5092
  159SAPE   C2917789   4.986   0.997   7.842  0.0071  0.4056 -1.0912
  159SAPE   H9R17790   5.052   1.039   7.920 -1.4299 -1.6935  1.3328
  159SAPE  C21017791   4.874   0.903   7.886  0.3035  0.6401 -0.2654
  159SAPE  H10R17792   4.855   0.813   7.825  1.8223 -0.7054  1.1954
  159SAPE  H10S17793   4.781   0.964   7.882 -0.7617 -0.6632  3.0756
  159SAPE  C21117794   4.885   0.853   8.034  0.2210 -0.6466 -0.5253
  159SAPE  H11R17795   4.810   0.896   8.103 -0.6166 -3.8808  0.6651
  159SAPE  C21217796   4.945   0.736   8.071 -0.3655 -0.0436 -1.0762
  159SAPE  H12R17797   4.941   0.705   8.176  2.7771 -0.1554 -0.9349
  159SAPE  C21317798   5.013   0.641   7.975 -0.4326  0.1835 -0.6199
  159SAPE  H13R17799   4.979   0.669   7.873 -3.0203  1.2949  0.4997
  159SAPE  H13S17800   4.965   0.542   7.992  1.1478 -0.4625  0.0805
  159SAPE  C21417801   5.164   0.649   7.984  0.0380  0.0771 -0.3763
  159SAPE  H14R17802   5.205   0.751   7.982 -0.4002  0.2456 -0.6852
  159SAPE  C21517803   5.243   0.541   7.981  0.3635  0.8368 -0.2722
  159SAPE  H15R17804   5.351   0.552   7.968  0.2618  1.0207 -0.9928
  159SAPE  C21617805   5.208   0.394   7.969 -0.0419 -0.2862 -0.0081
  159SAPE  H16R17806   5.099   0.376   7.981 -0.2523 -0.8169 -2.4769
  159SAPE  H16S17807   5.266   0.346   8.051  1.3535 -0.1582 -0.9195
  159SAPE  C21717808   5.257   0.319   7.842 -0.1013 -0.4194 -0.3740
  159SAPE  H17R17809   5.217   0.216   7.849 -0.2432 -0.2955  0.6691
  159SAPE  H17S17810   5.367   0.309   7.832  0.4562  2.8943  1.7382
  159SAPE  C21817811   5.206   0.390   7.714  0.5043  0.3119 -0.1959
  159SAPE  H18R17812   5.259   0.487   7.700  1.5659 -0.2457 -0.1498
  159SAPE  H18S17813   5.097   0.407   7.713  0.2226 -1.5104 -1.6938
  159SAPE  C21917814   5.242   0.315   7.583  0.5303 -0.0270 -0.0468
  159SAPE  H19R17815   5.351   0.294   7.585  0.4373 -0.3988  1.9947
  159SAPE  H19S17816   5.239   0.375   7.490  0.3943 -0.5815 -0.3989
  159SAPE  C22017817   5.166   0.183   7.551 -0.4036 -0.9568  0.1628
  159SAPE  H20R17818   5.056   0.196   7.537  0.0224 -0.2076 -2.6689
  159SAPE  H20S17819   5.179   0.099   7.623 -1.9631  0.2747  1.9470
  159SAPE  H20T17820   5.215   0.149   7.458  0.3277 -3.2355  1.3371
  159SAPE   C3317821   5.265   1.274   7.089  0.6163  0.1258 -0.5578
  159SAPE   H3X17822   5.239   1.367   7.035 -0.8900 -0.0673 -0.1919
  159SAPE   H3Y17823   5.354   1.230   7.039  1.0047 -0.1355  0.3495
  159SAPE   C3417824   5.308   1.309   7.233  0.5876 -0.1072 -0.0174
  159SAPE   H4X17825   5.219   1.364   7.268  0.5267 -0.2965  0.1239
  159SAPE   H4Y17826   5.392   1.377   7.206 -0.9082  2.0416  0.6676
  159SAPE   C3517827   5.346   1.203   7.333 -0.7297 -0.5464  0.4324
  159SAPE   H5X17828   5.447   1.166   7.302  0.0482  0.9903  1.0603
  159SAPE   H5Y17829   5.273   1.120   7.326 -0.1843 -0.8510 -2.3477
  159SAPE   C3617830   5.362   1.266   7.471  0.0847 -0.0284  0.0544
  159SAPE   H6X17831   5.262   1.312   7.486  1.1797  2.1220  1.0601
  159SAPE   H6Y17832   5.444   1.342   7.468  1.7610 -1.7420  1.2034
  159SAPE   C3717833   5.392   1.157   7.571  0.2517  0.9276  0.3837
  159SAPE   H7X17834   5.497   1.129   7.549  0.1774  2.7200 -2.4642
  159SAPE   H7Y17835   5.332   1.063   7.566  0.3136  1.0067 -3.0657
  159SAPE   C3817836   5.382   1.209   7.712 -0.5355 -0.0022 -0.3402
  159SAPE   H8X17837   5.274   1.237   7.715 -0.5156  0.0308  0.0909
  159SAPE   H8Y17838   5.435   1.306   7.719 -0.1911 -0.0448 -2.0450
  159SAPE   C3917839   5.413   1.094   7.812  0.2821 -0.7899 -0.4321
  159SAPE   H9X17840   5.515   1.053   7.796  0.6966 -0.6339  1.6939
  159SAPE   H9Y17841   5.329   1.025   7.790 -2.7614  1.7137  2.7919
  159SAPE  C31017842   5.386   1.135   7.962  0.5512 -0.3169  0.0997
  159SAPE  H10X17843   5.290   1.186   7.983  0.6323 -0.0698 -0.1285
  159SAPE  H10Y17844   5.463   1.213   7.978  0.9213 -0.4394 -1.0505
  159SAPE  C31117845   5.410   1.024   8.070 -0.9964  0.0329 -0.4418
  159SAPE  H11X17846   5.520   1.010   8.078 -0.7830  2.7378  2.2207
  159SAPE  H11Y17847   5.369   0.926   8.036  0.3148 -0.3662 -0.8973
  159SAPE  C31217848   5.348   1.063   8.201  0.8063  0.1295 -0.1185
  159SAPE  H12X17849   5.242   1.091   8.179  1.3995  2.7733  0.1414
  159SAPE  H12Y17850   5.407   1.149   8.239  1.6045 -0.2414 -0.5237
  159SAPE  C31317851   5.345   0.950   8.299  0.4308 -0.3201 -0.2489
  159SAPE  H13X17852   5.308   0.981   8.399 -1.2635 -1.2761 -0.5692
  159SAPE  H13Y17853   5.450   0.915   8.312  0.2046 -1.2269 -0.8546
  159SAPE  C31417854   5.271   0.820   8.261 -0.0507  0.3390 -0.0642
  159SAPE  H14X17855   5.330   0.777   8.178 -0.5663 -0.6271  0.0603
  159SAPE  H14Y17856   5.167   0.842   8.229 -0.0643  1.4502  0.7254
  159SAPE  C31517857   5.259   0.734   8.381  0.2177  0.1390 -0.1146
  159SAPE  H15X17858   5.191   0.783   8.454 -1.5952 -1.2647 -0.8312
  159SAPE  H15Y17859   5.357   0.731   8.433 -0.1675 -1.3513  0.5212
  159SAPE  C31617860   5.190   0.600   8.366  0.3321  0.5570  0.0886
  159SAPE  H16X17861   5.239   0.549   8.280 -0.7095 -0.6395  0.1811
  159SAPE  H16Y17862   5.084   0.604   8.332  0.1565 -0.6584  0.4514
  159SAPE  C31717863   5.204   0.510   8.495 -0.5414  0.2394  0.5634
  159SAPE  H17X17864   5.146   0.423   8.457 -1.0845  1.8569 -2.4870
  159SAPE  H17Y17865   5.150   0.554   8.582 -0.6006  2.8306 -0.7347
  159SAPE  C31817866   5.341   0.447   8.540 -0.4389 -0.6243  0.2287
  159SAPE  H18X17867   5.404   0.527   8.584  1.1241 -1.6152 -0.1852
  159SAPE  H18Y17868   5.399   0.407   8.454 -0.5741 -0.4916  0.0765
  159SAPE  H18Z17869   5.323   0.375   8.622  1.7662 -0.7071  0.6587
  160SAPE     N17870   3.607   1.293   6.378  0.5394 -1.0984 -0.0130
  160SAPE   HN117871   3.524   1.290   6.441 -0.9637 -1.8416 -2.0052
  160SAPE   HN217872   3.586   1.246   6.288 -0.3636  0.1397 -0.4673
  160SAPE   HN317873   3.690   1.247   6.420  0.7784 -0.0933  0.6434
  160SAPE   C1217874   3.638   1.437   6.362 -0.2482 -0.4147 -0.0903
  160SAPE  H12A17875   3.553   1.492   6.317 -0.7534 -1.0482  0.0831
  160SAPE  H12B17876   3.726   1.440   6.293  0.2186 -0.5258  0.4909
  160SAPE   C1117877   3.671   1.508   6.491 -0.7423  0.0102  0.0597
  160SAPE  H11A17878   3.591   1.483   6.565 -1.9712 -1.1889 -1.6263
  160SAPE  H11B17879   3.683   1.616   6.471 -1.1040  0.3784  1.7333
  160SAPE     P17880   3.929   1.531   6.554  0.5112  0.5833  0.0589
  160SAPE   O1317881   4.024   1.448   6.628  0.6082 -0.4222  0.0761
  160SAPE   O1417882   3.986   1.568   6.421 -0.5070 -0.1441 -0.2239
  160SAPE   O1217883   3.788   1.453   6.544 -0.7238  0.3075  0.2257
  160SAPE   O1117884   3.897   1.660   6.639  0.9000  0.3003  0.3998
  160SAPE    C117885   4.015   1.725   6.684  0.7640 -0.3002  0.0683
  160SAPE    HA17886   4.111   1.690   6.641  0.2165 -2.2348  0.3930
  160SAPE    HB17887   4.010   1.834   6.662 -0.2856 -0.5715 -1.0844
  160SAPE    C217888   4.024   1.714   6.841 -0.3265  0.1204  0.0136
  160SAPE    HS17889   4.021   1.608   6.874  0.6707 -0.6620 -2.2782
  160SAPE   O2117890   3.919   1.800   6.894  0.4503 -0.3065  0.1786
  160SAPE   C2117891   3.853   1.754   6.996  0.6990  0.8583 -0.1545
  160SAPE   O2217892   3.870   1.646   7.052  0.3515  0.1436  0.2639
  160SAPE   C2217893   3.769   1.866   7.061 -0.0327 -0.0904  0.6396
  160SAPE   H2R17894   3.839   1.949   7.084  0.8563 -1.0806  1.5343
  160SAPE   H2S17895   3.699   1.902   6.982  1.3998  0.6195 -0.3305
  160SAPE    C317896   4.156   1.762   6.886 -0.1603 -0.6314  0.2140
  160SAPE    HX17897   4.154   1.870   6.859 -0.2852 -0.5549  0.5278
  160SAPE    HY17898   4.234   1.714   6.823  1.0300 -0.9541  1.8947
  160SAPE   O3117899   4.165   1.736   7.032  0.3938  0.1931  0.5644
  160SAPE   C3117900   4.258   1.650   7.061 -0.2192 -0.3307 -0.6012
  160SAPE   O3217901   4.319   1.577   6.988  0.4096  0.0734 -0.6852
  160SAPE   C3217902   4.269   1.654   7.221 -0.6735 -0.5785  0.7989
  160SAPE   H2X17903   4.351   1.583   7.246 -1.7365 -2.1492 -0.0767
  160SAPE   H2Y17904   4.177   1.604   7.259  0.1165 -0.8985  2.3352
  160SAPE   C2317905   3.688   1.821   7.179  0.2922  0.2255  0.3399
  160SAPE   H3R17906   3.682   1.710   7.174 -1.1930  0.3858 -2.3918
  160SAPE   H3S17907   3.583   1.858   7.170 -0.0297 -0.8089 -0.2647
  160SAPE   C2417908   3.756   1.863   7.307  0.2193  0.1474 -0.0504
  160SAPE   H4R17909   3.683   1.845   7.388  1.0046 -2.5316  0.1292
  160SAPE   H4S17910   3.775   1.972   7.300 -2.0223  0.5876  0.4994
  160SAPE   C2517911   3.885   1.797   7.340 -0.2363 -0.2142  0.2530
  160SAPE   H5R17912   3.927   1.733   7.261 -1.0087 -0.4846  0.0638
  160SAPE   C2617913   3.937   1.771   7.467 -0.1590  0.3473  0.4608
  160SAPE   H6R17914   4.031   1.715   7.473  0.8676  1.4972 -3.5311
  160SAPE   C2717915   3.879   1.811   7.605  0.2976 -0.2152 -0.7385
  160SAPE   H7R17916   3.820   1.904   7.589  0.4960  0.1895  0.8223
  160SAPE   H7S17917   3.971   1.838   7.661 -0.7906  3.0053 -0.4193
  160SAPE   C2817918   3.786   1.698   7.655  0.4053  0.1550  0.1439
  160SAPE   H8R17919   3.722   1.643   7.584 -2.4061 -1.4688  3.8110
  160SAPE   C2917920   3.786   1.658   7.784  0.5644 -0.0246  0.3337
  160SAPE   H9R17921   3.715   1.579   7.813 -0.6879  1.0477  0.2436
  160SAPE  C21017922   3.872   1.715   7.897  0.3850  0.3262  0.1227
  160SAPE  H10R17923   3.824   1.785   7.968  1.1134  0.8408  0.1210
  160SAPE  H10S17924   3.953   1.777   7.852 -0.4580  0.6101 -1.0157
  160SAPE  C21117925   3.933   1.599   7.980  0.5207  0.2087 -0.1793
  160SAPE  H11R17926   3.887   1.504   7.948  1.5546 -0.6864  0.9347
  160SAPE  C21217927   4.044   1.603   8.056  0.3353  0.2670 -0.5248
  160SAPE  H12R17928   4.072   1.506   8.099 -2.8242 -1.0866 -1.3464
  160SAPE  C21317929   4.133   1.718   8.094 -0.0056  0.2322  0.1324
  160SAPE  H13R17930   4.121   1.797   8.017  2.9211  0.2902 -0.3251
  160SAPE  H13S17931   4.239   1.684   8.093 -0.0849 -0.0212 -2.9618
  160SAPE  C21417932   4.100   1.770   8.229  0.2164 -0.0110 -0.3902
  160SAPE  H14R17933   4.026   1.851   8.227 -0.8317 -0.9408  0.3879
  160SAPE  C21517934   4.150   1.729   8.344 -0.4989 -0.3523 -0.3434
  160SAPE  H15R17935   4.124   1.762   8.446  1.7483  1.7309 -0.3909
  160SAPE  C21617936   4.259   1.623   8.349  0.6654 -0.0983 -0.1717
  160SAPE  H16R17937   4.335   1.652   8.273  1.8526 -0.6140  0.8054
  160SAPE  H16S17938   4.214   1.526   8.318 -1.9651  1.3542 -0.9680
  160SAPE  C21717939   4.316   1.613   8.490 -0.0114  0.0392 -0.0010
  160SAPE  H17R17940   4.232   1.584   8.556 -0.4872 -1.3047 -1.1956
  160SAPE  H17S17941   4.349   1.713   8.526 -1.5041  0.3953  0.3955
  160SAPE  C21817942   4.422   1.506   8.504 -0.1763 -0.4092  1.4550
  160SAPE  H18R17943   4.505   1.541   8.439 -0.9632  1.4128  1.4257
  160SAPE  H18S17944   4.387   1.415   8.451 -1.1871  1.7236 -1.6240
  160SAPE  C21917945   4.456   1.471   8.647  0.1105 -0.3587  0.7269
  160SAPE  H19R17946   4.448   1.554   8.720  1.1869  1.3873 -1.0868
  160SAPE  H19S17947   4.563   1.441   8.642  0.6221  1.4263  0.4207
  160SAPE  C22017948   4.364   1.365   8.715 -0.3507  0.7500  0.5198
  160SAPE  H20R17949   4.362   1.275   8.651  0.0117 -1.1987  3.1464
  160SAPE  H20S17950   4.266   1.413   8.732  0.1630  1.0820  2.7799
  160SAPE  H20T17951   4.413   1.339   8.812 -0.4565  0.9048  0.6133
  160SAPE   C3317952   4.299   1.798   7.274 -0.3503  0.3841  0.4396
  160SAPE   H3X17953   4.223   1.875   7.250  1.0786  1.3312 -1.1914
  160SAPE   H3Y17954   4.392   1.832   7.223  0.1927  0.2214  1.3020
  160SAPE   C3417955   4.326   1.810   7.424  0.0745 -0.3334 -0.5084
  160SAPE   H4X17956   4.238   1.770   7.479 -0.5813 -0.1716 -1.4258
  160SAPE   H4Y17957   4.331   1.918   7.449 -2.1263 -0.0502 -1.1283
  160SAPE   C3517958   4.449   1.744   7.486  0.0815  0.5481  0.1614
  160SAPE   H5X17959   4.540   1.776   7.430  0.5365  0.9251  1.0984
  160SAPE   H5Y17960   4.439   1.634   7.478  1.5253  0.3399  1.0695
  160SAPE   C3617961   4.488   1.777   7.631  0.1100 -0.6668  0.0751
  160SAPE   H6X17962   4.473   1.887   7.639 -0.7670 -0.6355 -1.6894
  160SAPE   H6Y17963   4.597   1.763   7.644 -0.0914 -1.4291  0.9886
  160SAPE   C3717964   4.411   1.701   7.733  0.4086 -0.3818 -0.0857
  160SAPE   H7X17965   4.429   1.593   7.714 -2.3131 -0.9265  0.2786
  160SAPE   H7Y17966   4.301   1.718   7.732  0.3885 -0.5231 -1.0747
  160SAPE   C3817967   4.454   1.723   7.880  0.5746 -0.2349  0.4198
  160SAPE   H8X17968   4.563   1.707   7.893  1.2907  2.7999 -1.4970
  160SAPE   H8Y17969   4.397   1.645   7.935 -0.1945 -0.7937 -1.1306
  160SAPE   C3917970   4.417   1.864   7.946 -0.2462 -0.2288  0.6178
  160SAPE   H9X17971   4.308   1.874   7.964 -0.2724  0.5930  0.0328
  160SAPE   H9Y17972   4.446   1.952   7.886 -0.2115 -0.2758  0.5653
  160SAPE  C31017973   4.501   1.904   8.076 -0.0626 -0.0214 -0.3574
  160SAPE  H10X17974   4.603   1.865   8.051 -0.8913 -1.1289 -2.1217
  160SAPE  H10Y17975   4.470   1.849   8.167  2.2497  0.8442  1.0091
  160SAPE  C31117976   4.484   2.050   8.131 -0.2984  0.2616 -0.2070
  160SAPE  H11X17977   4.543   2.120   8.068  0.5054  1.7638  2.1283
  160SAPE  H11Y17978   4.538   2.057   8.228 -0.4616  0.9686 -0.1641
  160SAPE  C31217979   4.345   2.114   8.138  0.9783  0.6815 -0.3410
  160SAPE  H12X17980   4.275   2.053   8.198  0.7832  0.1129 -1.1423
  160SAPE  H12Y17981   4.301   2.118   8.036 -2.8905 -3.5303  1.0528
  160SAPE  C31317982   4.360   2.253   8.204  0.5860 -0.2789 -0.2986
  160SAPE  H13X17983   4.432   2.314   8.147 -0.0091  0.0309 -0.7319
  160SAPE  H13Y17984   4.403   2.239   8.305 -0.9747 -0.1611  0.3998
  160SAPE  C31417985   4.235   2.333   8.234  0.9317  0.4969 -0.0946
  160SAPE  H14X17986   4.159   2.266   8.280  1.1109 -0.6059 -1.3869
  160SAPE  H14Y17987   4.189   2.376   8.142 -1.8534 -0.4087  0.8169
  160SAPE  C31517988   4.254   2.459   8.326 -0.4242  0.4680  1.2204
  160SAPE  H15X17989   4.319   2.538   8.282 -0.9904  1.7211  2.6062
  160SAPE  H15Y17990   4.297   2.419   8.420  1.4574  1.0173  0.5997
  160SAPE  C31617991   4.122   2.523   8.368 -0.2814  0.6978 -0.0038
  160SAPE  H16X17992   4.060   2.445   8.417  0.7712 -1.9681 -2.7558
  160SAPE  H16Y17993   4.060   2.555   8.282  0.7371  0.5770 -0.7860
  160SAPE  C31717994   4.135   2.651   8.459  0.6608 -0.5823 -0.2310
  160SAPE  H17X17995   4.153   2.750   8.412 -2.1030  1.0330  1.9549
  160SAPE  H17Y17996   4.223   2.634   8.525  1.1791  2.4634 -0.0813
  160SAPE  C31817997   4.008   2.669   8.553 -0.3759 -0.0601 -0.0080
  160SAPE  H18X17998   4.003   2.589   8.630 -2.0318  1.4735  1.5048
  160SAPE  H18Y17999   3.921   2.679   8.485  1.4226 -2.0823 -2.7378
  160SAPE  H18Z18000   4.025   2.760   8.613  0.0494  0.7295 -1.3162
  161SAPE     N18001   6.158   6.477   6.266  0.5103 -0.2891  0.0588
  161SAPE   HN118002   6.169   6.538   6.182 -2.9359  1.1344  0.5783
  161SAPE   HN218003   6.248   6.433   6.293 -0.6332 -2.1811  0.8982
  161SAPE   HN318004   6.087   6.404   6.245 -0.1268 -0.1108  1.5674
  161SAPE   C1218005   6.111   6.554   6.386 -0.8269  0.3475  0.0356
  161SAPE  H12A18006   6.095   6.487   6.474  0.4666 -0.9879 -0.7305
  161SAPE  H12B18007   6.017   6.606   6.359 -0.9602 -0.2726 -0.7106
  161SAPE   C1118008   6.224   6.654   6.422 -0.3625 -0.2297  0.0520
  161SAPE  H11A18009   6.324   6.605   6.422 -0.4358 -0.4331 -1.7762
  161SAPE  H11B18010   6.203   6.697   6.522  0.9787  2.5910 -0.8476
  161SAPE     P18011   6.157   6.884   6.330  0.1863 -0.0076 -0.6068
  161SAPE   O1318012   6.223   6.987   6.246 -0.2829  0.1195  0.3277
  161SAPE   O1418013   6.019   6.846   6.292 -0.6583  0.6023  0.8364
  161SAPE   O1218014   6.245   6.754   6.329 -0.6057 -0.2168  0.4503
  161SAPE   O1118015   6.161   6.934   6.485 -0.1084 -0.1562  0.5735
  161SAPE    C118016   6.270   7.020   6.518  1.3665  0.1481 -0.2279
  161SAPE    HA18017   6.368   6.967   6.516  1.0061 -0.5153 -0.2989
  161SAPE    HB18018   6.275   7.110   6.454 -0.7211  0.7950  0.4716
  161SAPE    C218019   6.231   7.083   6.653 -0.2252  0.0699  0.0292
  161SAPE    HS18020   6.300   7.170   6.661 -0.5849  0.3962 -0.4037
  161SAPE   O2118021   6.239   6.992   6.760 -0.2446 -0.0940  0.4781
  161SAPE   C2118022   6.317   7.019   6.859 -0.1607 -0.0576 -0.2721
  161SAPE   O2218023   6.376   7.125   6.878 -0.1297  0.2237 -0.1398
  161SAPE   C2218024   6.337   6.889   6.944 -0.0649 -0.0281  0.0520
  161SAPE   H2R18025   6.340   6.800   6.878 -1.7093 -0.4496  0.5262
  161SAPE   H2S18026   6.428   6.895   7.007 -0.8770  0.6657  1.1850
  161SAPE    C318027   6.082   7.143   6.660  0.5291  0.2187  0.1392
  161SAPE    HX18028   6.014   7.056   6.646 -0.2404  0.4637  2.1336
  161SAPE    HY18029   6.068   7.222   6.583  0.8555  0.5366  0.4040
  161SAPE   O3118030   6.069   7.205   6.787  0.4570  0.2358 -0.2385
  161SAPE   C3118031   5.948   7.252   6.814  0.3302 -0.2078  0.4462
  161SAPE   O3218032   5.847   7.233   6.747 -0.4455 -0.5568 -0.0932
  161SAPE   C3218033   5.958   7.326   6.950 -0.9819 -0.5197  0.4091
  161SAPE   H2X18034   6.045   7.394   6.954 -1.7737  0.4054  3.1685
  161SAPE   H2Y18035   5.970   7.246   7.026  0.9116 -1.0542 -0.4405
  161SAPE   C2318036   6.218   6.875   7.043  0.5925  0.2602  0.5309
  161SAPE   H3R18037   6.236   6.783   7.103  2.5252 -1.3287 -2.4143
  161SAPE   H3S18038   6.127   6.853   6.983  0.5678  1.7156  0.0105
  161SAPE   C2418039   6.195   6.992   7.139  0.2323 -0.3693 -0.0594
  161SAPE   H4R18040   6.170   7.083   7.081 -0.2220 -0.0987  0.5456
  161SAPE   H4S18041   6.288   7.007   7.198 -0.3423  0.8606  0.5675
  161SAPE   C2518042   6.091   6.948   7.233 -1.0363  0.0614  0.0486
  161SAPE   H5R18043   6.015   6.886   7.183 -0.3048  1.8275 -3.4324
  161SAPE   C2618044   6.074   6.965   7.366  0.3664  0.0268  0.2792
  161SAPE   H6R18045   5.981   6.924   7.410 -1.2997  1.0123 -2.2584
  161SAPE   C2718046   6.161   7.055   7.453 -0.0854  0.3753  0.1918
  161SAPE   H7R18047   6.105   7.070   7.547  1.3279 -1.3851  1.3468
  161SAPE   H7S18048   6.170   7.154   7.405 -0.7645  0.0354 -0.6578
  161SAPE   C2818049   6.293   6.994   7.492  0.5749  0.3643 -0.8079
  161SAPE   H8R18050   6.358   6.944   7.418 -1.1478 -1.6328 -1.0166
  161SAPE   C2918051   6.339   7.000   7.617 -0.0694 -0.0098 -0.2888
  161SAPE   H9R18052   6.441   6.963   7.633  0.1483  1.2535  1.3862
  161SAPE  C21018053   6.265   7.055   7.742  0.2233  0.2550  0.0109
  161SAPE  H10R18054   6.175   6.993   7.763  0.0376  0.6202  0.3053
  161SAPE  H10S18055   6.225   7.157   7.724  1.9165  0.6704 -1.5367
  161SAPE  C21118056   6.357   7.050   7.861 -0.5887  0.0855 -0.5119
  161SAPE  H11R18057   6.456   7.095   7.841 -1.0994  1.9850  1.1317
  161SAPE  C21218058   6.340   6.988   7.978 -0.2043 -0.2496 -0.3100
  161SAPE  H12R18059   6.416   6.994   8.057 -0.7002  3.3121 -0.0043
  161SAPE  C21318060   6.218   6.914   8.023 -0.2836 -0.3688  0.1577
  161SAPE  H13R18061   6.258   6.830   8.084 -2.0916 -0.0750  1.7796
  161SAPE  H13S18062   6.159   6.862   7.945  1.1092  0.3197 -1.4073
  161SAPE  C21418063   6.136   7.005   8.106 -0.0614 -0.2283  0.3669
  161SAPE  H14R18064   6.085   7.087   8.053 -2.7001 -0.1537  2.9026
  161SAPE  C21518065   6.091   6.980   8.230 -0.2437 -0.4379 -0.2412
  161SAPE  H15R18066   6.029   7.063   8.267  0.0915 -0.3594  0.1478
  161SAPE  C21618067   6.126   6.857   8.321 -0.5011 -0.6365 -0.7905
  161SAPE  H16R18068   6.233   6.850   8.351 -0.8306  0.0810  0.6225
  161SAPE  H16S18069   6.109   6.762   8.266  0.5472 -0.4702 -1.4158
  161SAPE  C21718070   6.029   6.845   8.444  0.6970  0.1281  0.3543
  161SAPE  H17R18071   5.926   6.850   8.404  0.6899  0.5196  0.4192
  161SAPE  H17S18072   6.045   6.936   8.506 -2.1679  0.6862  0.3292
  161SAPE  C21818073   6.046   6.718   8.532  0.4160 -0.2008 -0.6748
  161SAPE  H18R18074   6.153   6.709   8.562 -0.0479  4.7003  3.1086
  161SAPE  H18S18075   6.015   6.622   8.485 -0.7596 -0.1561 -0.0071
  161SAPE  C21918076   5.968   6.732   8.663 -0.3842 -0.2993  0.2208
  161SAPE  H19R18077   5.867   6.771   8.639  1.2556  2.0397 -3.2821
  161SAPE  H19S18078   6.017   6.812   8.722  1.2514 -0.4499 -0.8978
  161SAPE  C22018079   5.972   6.605   8.757  0.5166  0.0421  0.4680
  161SAPE  H20R18080   5.925   6.614   8.857 -0.1710  1.6501  0.0114
  161SAPE  H20S18081   6.078   6.583   8.784  0.6151  1.0907  0.9450
  161SAPE  H20T18082   5.931   6.526   8.692  1.5579  0.0421 -0.1967
  161SAPE   C3318083   5.835   7.413   6.995 -0.1552 -0.1868 -0.0853
  161SAPE   H3X18084   5.749   7.343   7.004  0.6233 -0.7594  3.7605
  161SAPE   H3Y18085   5.813   7.480   6.910 -1.0546 -3.6693 -2.6960
  161SAPE   C3418086   5.851   7.501   7.124  0.2221  0.2552 -0.0712
  161SAPE   H4X18087   5.748   7.538   7.144  0.9438  3.5663 -2.0930
  161SAPE   H4Y18088   5.907   7.595   7.104  0.4167  0.0641 -0.4163
  161SAPE   C3518089   5.907   7.419   7.234 -0.2640 -0.5560  0.0122
  161SAPE   H5X18090   6.015   7.421   7.209 -0.1320 -0.4172  0.5826
  161SAPE   H5Y18091   5.855   7.322   7.250  3.4845 -2.5927  0.3286
  161SAPE   C3618092   5.889   7.486   7.368  0.2505  0.6356  0.0203
  161SAPE   H6X18093   5.782   7.512   7.388 -0.1991 -2.0625  1.2945
  161SAPE   H6Y18094   5.940   7.584   7.354 -0.7541  1.1835  0.1256
  161SAPE   C3718095   5.947   7.408   7.492  0.3652 -0.7412  0.3579
  161SAPE   H7X18096   6.051   7.384   7.458  0.6415  0.7923  0.0722
  161SAPE   H7Y18097   5.896   7.310   7.504 -1.8010  0.3166  0.0752
  161SAPE   C3818098   5.958   7.492   7.622  0.3734  0.1944  0.1099
  161SAPE   H8X18099   5.854   7.505   7.659  0.2099 -0.5260 -0.0833
  161SAPE   H8Y18100   6.011   7.586   7.596  1.1734  0.0260  1.0885
  161SAPE   C3918101   6.024   7.409   7.737 -0.2075  0.2722 -0.5127
  161SAPE   H9X18102   6.119   7.361   7.703 -1.2965 -2.5825  0.3123
  161SAPE   H9Y18103   5.962   7.331   7.786  0.7875 -0.3947 -0.2971
  161SAPE  C31018104   6.059   7.497   7.855  0.0319 -0.2881  0.4157
  161SAPE  H10X18105   5.962   7.539   7.889 -0.1678 -2.5814  2.8141
  161SAPE  H10Y18106   6.112   7.583   7.809 -0.4806 -0.4981 -0.5783
  161SAPE  C31118107   6.109   7.430   7.980 -0.3070  0.6846  0.4274
  161SAPE  H11X18108   6.208   7.385   7.955  0.9376  3.9485 -0.7733
  161SAPE  H11Y18109   6.042   7.349   8.016  0.9788 -0.6413 -0.0937
  161SAPE  C31218110   6.129   7.526   8.095  0.3936 -0.2550 -0.0317
  161SAPE  H12X18111   6.028   7.562   8.123  0.7841  0.2805  0.6928
  161SAPE  H12Y18112   6.178   7.621   8.063  0.2139 -0.8851 -2.2658
  161SAPE  C31318113   6.210   7.452   8.202 -0.6843 -0.0967  0.6703
  161SAPE  H13X18114   6.313   7.438   8.163 -0.7942  2.3122 -0.5590
  161SAPE  H13Y18115   6.165   7.355   8.230 -3.4847  1.6961  2.6789
  161SAPE  C31418116   6.230   7.555   8.322 -0.4484 -0.2819  0.3829
  161SAPE  H14X18117   6.134   7.559   8.378 -0.2135 -2.7891  1.0211
  161SAPE  H14Y18118   6.266   7.658   8.299 -0.4848 -0.4535 -0.4338
  161SAPE  C31518119   6.341   7.495   8.420  1.0345  0.0987 -0.1592
  161SAPE  H15X18120   6.435   7.464   8.368  0.9774 -0.8010  0.2673
  161SAPE  H15Y18121   6.291   7.406   8.463 -1.6969  0.9590 -1.3985
  161SAPE  C31618122   6.372   7.581   8.546 -0.1088  1.2960  0.2468
  161SAPE  H16X18123   6.414   7.680   8.516 -1.6014  2.4754  1.9502
  161SAPE  H16Y18124   6.453   7.542   8.611 -1.6308 -1.2482  0.6576
  161SAPE  C31718125   6.246   7.612   8.638  0.1431  0.7588  0.1608
  161SAPE  H17X18126   6.191   7.516   8.644  0.2178  0.5379 -2.1103
  161SAPE  H17Y18127   6.189   7.697   8.595 -1.5981 -1.0036 -1.1183
  161SAPE  C31818128   6.287   7.649   8.782  0.5740 -0.4345 -0.3393
  161SAPE  H18X18129   6.190   7.665   8.834 -0.8025  0.3582 -3.0538
  161SAPE  H18Y18130   6.331   7.750   8.770 -0.2609 -0.0083  0.0942
  161SAPE  H18Z18131   6.348   7.573   8.835  0.4793 -0.3162 -0.0598
  162SAPE     N18132   5.042   3.475   6.245 -0.0177 -0.0636  0.1341
  162SAPE   HN118133   4.966   3.465   6.174  0.5773 -1.3787 -0.3361
  162SAPE   HN218134   5.134   3.483   6.198  0.4081  1.2681  1.1577
  162SAPE   HN318135   5.042   3.393   6.309 -0.2058  0.2627  0.5513
  162SAPE   C1218136   5.027   3.604   6.327  0.5844 -0.2120 -0.1993
  162SAPE  H12A18137   4.995   3.683   6.255 -1.6475  0.0345  0.9962
  162SAPE  H12B18138   5.129   3.629   6.362  1.1654  0.4813 -2.3130
  162SAPE   C1118139   4.921   3.583   6.439 -0.7108 -0.3896 -0.4405
  162SAPE  H11A18140   4.899   3.682   6.485 -0.0401 -0.1502 -0.6316
  162SAPE  H11B18141   4.961   3.514   6.517 -1.7884 -1.3002 -0.6834
  162SAPE     P18142   4.659   3.585   6.398 -0.1917 -0.0057  0.5589
  162SAPE   O1318143   4.662   3.716   6.325  0.3200  0.5674  0.8263
  162SAPE   O1418144   4.575   3.474   6.344 -0.0220 -0.8355  0.2383
  162SAPE   O1218145   4.802   3.529   6.377 -0.0107 -0.3010  0.0456
  162SAPE   O1118146   4.643   3.605   6.549  0.4935  0.2122  0.1242
  162SAPE    C118147   4.517   3.648   6.604 -1.0640 -0.2933 -0.4459
  162SAPE    HA18148   4.467   3.730   6.549 -3.0167 -0.7742  0.5551
  162SAPE    HB18149   4.445   3.564   6.606 -1.3508 -0.0693 -1.1837
  162SAPE    C218150   4.529   3.694   6.751  0.0123  0.2008 -0.0221
  162SAPE    HS18151   4.432   3.730   6.791  0.3158 -0.9293  1.7815
  162SAPE   O2118152   4.633   3.786   6.776 -0.1314  0.2416 -0.2410
  162SAPE   C2118153   4.613   3.910   6.746 -0.1920 -0.5653  0.0578
  162SAPE   O2218154   4.526   3.954   6.672 -0.0445  0.0393 -0.3649
  162SAPE   C2218155   4.709   4.004   6.820 -0.0403 -0.0988  0.4691
  162SAPE   H2R18156   4.804   3.947   6.826  1.7906  2.6992 -0.7512
  162SAPE   H2S18157   4.732   4.089   6.751 -1.4007  1.3199  1.7202
  162SAPE    C318158   4.552   3.562   6.839  0.2494  0.6083 -0.2380
  162SAPE    HX18159   4.646   3.518   6.797 -0.4719 -1.9987  0.7391
  162SAPE    HY18160   4.471   3.489   6.819  0.2379  0.7572 -0.7499
  162SAPE   O3118161   4.576   3.583   6.983  0.6475  0.1299  0.4523
  162SAPE   C3118162   4.593   3.468   7.053 -0.2657 -0.2852 -0.3790
  162SAPE   O3218163   4.575   3.356   7.011 -0.2443  0.2908  0.9129
  162SAPE   C3218164   4.654   3.493   7.192 -0.1158 -0.2358 -0.4289
  162SAPE   H2X18165   4.575   3.553   7.240  0.9549 -1.2790  2.7402
  162SAPE   H2Y18166   4.744   3.553   7.165  0.7475 -2.6646 -3.2714
  162SAPE   C2318167   4.664   4.050   6.960 -0.0946  0.0035  0.9939
  162SAPE   H3R18168   4.573   4.113   6.951 -0.3215 -0.3889  0.4641
  162SAPE   H3S18169   4.751   4.105   7.001  1.4994 -1.1082 -0.8020
  162SAPE   C2418170   4.615   3.938   7.056 -0.3070 -0.2173  0.0517
  162SAPE   H4R18171   4.527   3.880   7.020  0.7016 -2.7245  1.5352
  162SAPE   H4S18172   4.585   3.993   7.148 -3.3817 -1.8902  0.1368
  162SAPE   C2518173   4.736   3.840   7.089  0.3311  0.1025 -0.1991
  162SAPE   H5R18174   4.757   3.759   7.017 -0.6923 -2.0887  1.8907
  162SAPE   C2618175   4.813   3.841   7.197 -0.4580  0.7260  0.5969
  162SAPE   H6R18176   4.898   3.772   7.203 -1.2549 -0.2444  0.7721
  162SAPE   C2718177   4.795   3.938   7.312 -0.2256 -0.5387 -0.4021
  162SAPE   H7R18178   4.749   4.030   7.271 -2.1625 -1.2376  0.1599
  162SAPE   H7S18179   4.895   3.970   7.348  0.2681 -2.7863  0.3377
  162SAPE   C2818180   4.696   3.885   7.410  0.4818  0.6851 -0.8056
  162SAPE   H8R18181   4.593   3.873   7.372 -0.8585  0.4938  2.6435
  162SAPE   C2918182   4.729   3.825   7.532  0.7606  0.4060  0.0558
  162SAPE   H9R18183   4.639   3.794   7.587 -0.1187  0.8713 -1.0997
  162SAPE  C21018184   4.856   3.813   7.607 -0.1673  0.2696  0.5026
  162SAPE  H10R18185   4.938   3.809   7.532 -1.4611 -0.7389 -0.8794
  162SAPE  H10S18186   4.866   3.719   7.666  0.1432  1.0088  1.6504
  162SAPE  C21118187   4.877   3.933   7.695  0.7283 -0.0689  0.1284
  162SAPE  H11R18188   4.895   4.031   7.649 -0.4153  0.3592  0.5606
  162SAPE  C21218189   4.887   3.931   7.829  0.4985  0.1777 -0.1607
  162SAPE  H12R18190   4.893   4.026   7.884 -1.6805  0.6344 -0.6326
  162SAPE  C21318191   4.882   3.813   7.923 -0.2954  0.4058  0.1143
  162SAPE  H13R18192   4.905   3.713   7.879  0.7260  0.7068 -0.0611
  162SAPE  H13S18193   4.782   3.814   7.971  0.2926 -1.8851  1.4997
  162SAPE  C21418194   4.983   3.823   8.031 -0.2771 -0.5441 -1.2821
  162SAPE  H14R18195   5.087   3.810   7.997  0.9579  1.4006  1.6119
  162SAPE  C21518196   4.962   3.838   8.162  0.9714  0.0293  0.0318
  162SAPE  H15R18197   5.051   3.839   8.227 -0.2442 -0.5747  1.7651
  162SAPE  C21618198   4.834   3.848   8.244 -0.1945 -2.2965 -0.1177
  162SAPE  H16R18199   4.850   3.770   8.321 -2.0385 -2.0742  0.5099
  162SAPE  H16S18200   4.746   3.817   8.183 -1.5012  1.3707 -0.2186
  162SAPE  C21718201   4.795   3.991   8.312  0.1606  0.4223 -0.7004
  162SAPE  H17R18202   4.785   4.070   8.234 -0.0009 -0.2129 -1.3284
  162SAPE  H17S18203   4.879   4.003   8.385 -0.7439 -2.1503  0.8450
  162SAPE  C21818204   4.651   3.987   8.368 -0.8293 -0.1667 -0.4617
  162SAPE  H18R18205   4.605   3.902   8.314  0.9634 -1.0406 -0.6734
  162SAPE  H18S18206   4.592   4.080   8.353  0.7919  1.0945  0.7702
  162SAPE  C21918207   4.652   3.951   8.514  0.3033  0.6143 -0.5234
  162SAPE  H19R18208   4.702   4.033   8.570  1.9861 -0.5481 -0.2869
  162SAPE  H19S18209   4.723   3.870   8.541 -1.3248  0.2679  3.0376
  162SAPE  C22018210   4.512   3.929   8.574 -0.2217  0.3164 -0.2708
  162SAPE  H20R18211   4.438   4.008   8.551  0.1186  1.0250  1.0013
  162SAPE  H20S18212   4.505   3.922   8.685  1.0996 -1.1947 -0.2585
  162SAPE  H20T18213   4.478   3.830   8.537  0.5909 -0.3229  0.6442
  162SAPE   C3318214   4.667   3.370   7.281 -0.0020 -0.1704  0.0362
  162SAPE   H3X18215   4.724   3.291   7.227 -0.9611 -0.0151 -1.2159
  162SAPE   H3Y18216   4.567   3.324   7.296 -1.2989  1.4255 -3.1440
  162SAPE   C3418217   4.737   3.406   7.407  0.0170 -0.6897 -0.4979
  162SAPE   H4X18218   4.678   3.491   7.447  0.3343 -0.7773  0.1522
  162SAPE   H4Y18219   4.837   3.443   7.375 -0.8704  1.2474 -1.1375
  162SAPE   C3518220   4.756   3.297   7.520 -0.0304  0.5950 -0.3212
  162SAPE   H5X18221   4.829   3.225   7.476 -0.0367 -0.1517  0.8956
  162SAPE   H5Y18222   4.662   3.239   7.522  0.9381 -1.0392 -1.0518
  162SAPE   C3618223   4.790   3.357   7.657  0.3922 -0.2511  0.7978
  162SAPE   H6X18224   4.891   3.403   7.654  0.0719  0.3746 -2.6304
  162SAPE   H6Y18225   4.799   3.275   7.731 -0.2410  0.7975  2.0596
  162SAPE   C3718226   4.700   3.466   7.714 -0.3692 -0.0504  0.1695
  162SAPE   H7X18227   4.600   3.421   7.693  0.4490 -1.6694 -0.3269
  162SAPE   H7Y18228   4.709   3.560   7.656 -1.6019  0.0157  0.0604
  162SAPE   C3818229   4.727   3.492   7.864  0.2986  0.7104 -0.8921
  162SAPE   H8X18230   4.675   3.590   7.873  0.4025  0.7152 -0.3508
  162SAPE   H8Y18231   4.837   3.507   7.862  0.5450 -0.4837  1.7614
  162SAPE   C3918232   4.686   3.395   7.970 -0.1709 -0.1642 -0.6274
  162SAPE   H9X18233   4.760   3.313   7.978  0.4433  0.5691  1.5487
  162SAPE   H9Y18234   4.586   3.360   7.935 -0.3724 -0.3854  0.1669
  162SAPE  C31018235   4.671   3.456   8.113 -0.7182  0.1362  0.4750
  162SAPE  H10X18236   4.608   3.547   8.104 -3.0532 -1.3674  1.3482
  162SAPE  H10Y18237   4.778   3.481   8.134 -0.7893  1.0549 -0.1882
  162SAPE  C31118238   4.605   3.370   8.220  0.8990  0.8016  0.5839
  162SAPE  H11X18239   4.657   3.276   8.247  2.0228  0.6677 -1.8401
  162SAPE  H11Y18240   4.506   3.340   8.180  1.2588 -2.0191  1.7424
  162SAPE  C31218241   4.586   3.452   8.349 -0.7960  0.5623  0.2058
  162SAPE  H12X18242   4.522   3.400   8.423  1.4201 -1.4419  0.8017
  162SAPE  H12Y18243   4.533   3.548   8.329 -1.1597  0.6374  1.4727
  162SAPE  C31318244   4.720   3.465   8.424 -0.6951  0.8083 -0.1405
  162SAPE  H13X18245   4.785   3.527   8.359  1.7822 -0.5601  0.9628
  162SAPE  H13Y18246   4.767   3.364   8.427 -1.2723  0.5109 -0.9919
  162SAPE  C31418247   4.695   3.532   8.556  0.5175 -0.0751 -0.3279
  162SAPE  H14X18248   4.636   3.463   8.621 -0.0636  0.5476 -0.1850
  162SAPE  H14Y18249   4.636   3.623   8.534 -0.1209 -0.6259 -0.9275
  162SAPE  C31518250   4.815   3.568   8.636  0.0869  0.3275 -0.3473
  162SAPE  H15X18251   4.891   3.629   8.583  0.7802  0.9396  1.3028
  162SAPE  H15Y18252   4.856   3.474   8.680  1.8482  0.4854 -1.5811
  162SAPE  C31618253   4.783   3.645   8.766 -0.1248  0.5482  0.3319
  162SAPE  H16X18254   4.731   3.578   8.838  1.3089  0.5913  1.4410
  162SAPE  H16Y18255   4.709   3.723   8.741 -0.2955 -0.0618 -1.1291
  162SAPE  C31718256   4.906   3.722   8.822  0.3388 -0.5911 -0.0806
  162SAPE  H17X18257   4.937   3.801   8.750 -1.7179 -1.2675 -1.7518
  162SAPE  H17Y18258   4.993   3.654   8.837 -0.2841 -1.6365 -1.2177
  162SAPE  C31818259   4.874   3.796   8.954 -0.1677  0.4220 -0.2485
  162SAPE  H18X18260   4.965   3.839   9.002 -0.9615  2.4183 -0.5018
  162SAPE  H18Y18261   4.823   3.719   9.017  1.0245 -1.1032 -1.1232
  162SAPE  H18Z18262   4.810   3.883   8.928 -0.7234  0.0036 -0.3029
  163SAPE     N18263   2.707   1.779   6.468 -0.1652 -0.0248  0.1393
  163SAPE   HN118264   2.802   1.738   6.475 -0.0579  0.1568 -0.2798
  163SAPE   HN218265   2.672   1.784   6.370  0.2549  0.0503 -0.0043
  163SAPE   HN318266   2.725   1.879   6.493  2.4551  0.5902 -3.8754
  163SAPE   C1218267   2.597   1.718   6.560  0.4433  0.0686  0.0495
  163SAPE  H12A18268   2.500   1.767   6.537  0.0918  0.1409  1.6238
  163SAPE  H12B18269   2.652   1.739   6.654  1.0117  2.0505 -0.7140
  163SAPE   C1118270   2.597   1.563   6.552  0.4666  0.1842 -0.3513
  163SAPE  H11A18271   2.547   1.529   6.458  3.1734 -2.0205 -1.0342
  163SAPE  H11B18272   2.539   1.520   6.637  1.5862 -2.1803 -0.7591
  163SAPE     P18273   2.764   1.373   6.600  0.0603 -0.0785  0.0615
  163SAPE   O1318274   2.674   1.268   6.543 -0.1535  0.0859  0.5155
  163SAPE   O1418275   2.910   1.347   6.580  0.0243  0.5695  0.2350
  163SAPE   O1218276   2.729   1.520   6.542 -0.6089 -0.8754  0.5673
  163SAPE   O1118277   2.735   1.387   6.751 -0.2882 -0.1504  0.3732
  163SAPE    C118278   2.788   1.492   6.825  0.9744 -0.0088  0.5996
  163SAPE    HA18279   2.896   1.505   6.806  1.0725 -0.8340  0.6027
  163SAPE    HB18280   2.750   1.591   6.790 -1.9417 -1.4788 -0.5921
  163SAPE    C218281   2.759   1.474   6.975 -0.1034 -0.2903  0.0588
  163SAPE    HS18282   2.788   1.572   7.018 -0.4063  0.5162 -1.5457
  163SAPE   O2118283   2.835   1.369   7.029 -0.1239  0.1485  0.0932
  163SAPE   C2118284   2.889   1.369   7.144 -0.7711 -0.4062  0.0304
  163SAPE   O2218285   2.883   1.463   7.223 -0.2086  0.3041  0.2011
  163SAPE   C2218286   2.951   1.235   7.184  1.0799 -0.5105  0.5846
  163SAPE   H2R18287   2.872   1.158   7.202  0.1163  0.7185  1.7552
  163SAPE   H2S18288   3.000   1.206   7.088 -1.2553 -2.1104 -0.1777
  163SAPE    C318289   2.607   1.444   6.995 -0.5811 -0.6655  0.2796
  163SAPE    HX18290   2.585   1.339   6.966 -0.4943 -0.9967  1.4037
  163SAPE    HY18291   2.550   1.505   6.922 -1.0229 -2.6973 -1.1066
  163SAPE   O3118292   2.561   1.476   7.130 -0.0567  0.1714 -0.1610
  163SAPE   C3118293   2.566   1.376   7.221  0.2777  0.2160 -0.5675
  163SAPE   O3218294   2.594   1.260   7.186 -0.4185  0.0508 -0.6828
  163SAPE   C3218295   2.522   1.422   7.366  0.7212  0.1155  0.3547
  163SAPE   H2X18296   2.505   1.330   7.427  1.1876  0.8299  1.5694
  163SAPE   H2Y18297   2.424   1.473   7.353 -0.1511 -1.9343 -1.4694
  163SAPE   C2318298   3.053   1.229   7.298  0.2677  0.2343  1.3305
  163SAPE   H3R18299   3.118   1.318   7.289 -0.9480  1.1392  1.4397
  163SAPE   H3S18300   3.106   1.131   7.290  0.2668  0.4529 -2.4141
  163SAPE   C2418301   2.983   1.239   7.435  0.8450 -0.2563  0.2325
  163SAPE   H4R18302   2.913   1.152   7.438  1.0637 -0.5627 -2.1244
  163SAPE   H4S18303   2.917   1.327   7.420 -0.1190 -1.5180 -3.5874
  163SAPE   C2518304   3.066   1.258   7.552 -0.1298 -0.8114 -0.6817
  163SAPE   H5R18305   3.148   1.332   7.546  1.7798 -2.3754  3.9217
  163SAPE   C2618306   3.058   1.189   7.667  0.8556  0.2294 -0.4510
  163SAPE   H6R18307   3.123   1.227   7.747  1.2702 -2.0640  0.3377
  163SAPE   C2718308   2.966   1.078   7.711  0.7422  0.7083 -0.5366
  163SAPE   H7R18309   2.872   1.066   7.653  0.0947  1.4066  0.3612
  163SAPE   H7S18310   2.955   1.101   7.819  0.5946 -2.5660  0.2259
  163SAPE   C2818311   3.030   0.940   7.719  0.2458 -0.0699 -0.7782
  163SAPE   H8R18312   3.081   0.915   7.624 -1.2777  2.4461 -2.3218
  163SAPE   C2918313   3.032   0.856   7.829 -0.5695  0.3533  0.2130
  163SAPE   H9R18314   3.074   0.755   7.818 -2.1660 -0.5174  1.8103
  163SAPE  C21018315   2.968   0.896   7.958 -0.1893 -0.3088 -0.5219
  163SAPE  H10R18316   2.866   0.935   7.936 -0.4110 -0.3235  0.4433
  163SAPE  H10S18317   3.023   0.984   7.997 -0.3958 -1.6768  3.0319
  163SAPE  C21118318   2.961   0.784   8.055 -0.0243  0.4828  0.2893
  163SAPE  H11R18319   2.980   0.680   8.024 -0.7236  0.6596 -0.7693
  163SAPE  C21218320   2.941   0.798   8.188 -0.1605 -0.3838 -0.0366
  163SAPE  H12R18321   2.950   0.708   8.251 -0.6662 -0.0946  0.4443
  163SAPE  C21318322   2.909   0.931   8.261  0.6682  0.1059  0.6924
  163SAPE  H13R18323   2.977   1.013   8.229 -2.1535  2.0407 -0.5499
  163SAPE  H13S18324   2.931   0.917   8.369  3.5195  0.8635  0.2595
  163SAPE  C21418325   2.766   0.977   8.240 -0.3424 -0.1029 -0.5705
  163SAPE  H14R18326   2.721   0.934   8.149  0.0501 -1.9557  0.0864
  163SAPE  C21518327   2.695   1.055   8.321  0.4453  0.5104 -0.2670
  163SAPE  H15R18328   2.596   1.087   8.286  0.3184  0.1647 -0.2188
  163SAPE  C21618329   2.750   1.127   8.440  0.2446  0.0699 -0.7739
  163SAPE  H16R18330   2.750   1.237   8.424  2.5312  0.4599  1.5249
  163SAPE  H16S18331   2.854   1.096   8.466  0.4837  0.1906 -1.5726
  163SAPE  C21718332   2.669   1.091   8.568  0.4875  0.5463  0.2571
  163SAPE  H17R18333   2.701   0.986   8.588 -0.5912 -0.4485 -2.8613
  163SAPE  H17S18334   2.560   1.103   8.548  0.2817 -2.1964 -0.5672
  163SAPE  C21818335   2.712   1.186   8.678 -0.4453  0.1936  0.3860
  163SAPE  H18R18336   2.667   1.281   8.642 -1.4402 -0.4982 -0.2065
  163SAPE  H18S18337   2.822   1.203   8.681 -0.2425 -1.0954  0.6658
  163SAPE  C21918338   2.669   1.144   8.818 -0.1657  0.4537 -0.2179
  163SAPE  H19R18339   2.703   1.041   8.844 -4.0143 -0.8419 -0.1116
  163SAPE  H19S18340   2.559   1.137   8.827  0.0469 -0.8934  1.6471
  163SAPE  C22018341   2.719   1.245   8.926 -0.4674 -0.2685  1.3487
  163SAPE  H20R18342   2.690   1.221   9.031  0.3339 -1.5731  1.2918
  163SAPE  H20S18343   2.679   1.347   8.912  1.3109  0.3461  0.5839
  163SAPE  H20T18344   2.829   1.259   8.914 -0.7584  0.2325 -0.8726
  163SAPE   C3318345   2.630   1.499   7.445 -0.1742 -0.0719 -0.2955
  163SAPE   H3X18346   2.618   1.606   7.420 -1.4367 -0.2764 -0.6247
  163SAPE   H3Y18347   2.736   1.474   7.423  0.9938  2.1531  2.5199
  163SAPE   C3418348   2.609   1.474   7.603  0.6543 -0.5095  0.6534
  163SAPE   H4X18349   2.651   1.374   7.631  1.1732 -0.3754  0.3651
  163SAPE   H4Y18350   2.502   1.463   7.630 -0.1073 -1.6588 -2.6520
  163SAPE   C3518351   2.670   1.580   7.691  0.8403 -0.4266 -0.0084
  163SAPE   H5X18352   2.637   1.679   7.654  1.8187 -0.4308 -0.9199
  163SAPE   H5Y18353   2.781   1.567   7.690  0.6929 -1.7672  0.0174
  163SAPE   C3618354   2.619   1.559   7.839  0.1501 -0.3441  0.3775
  163SAPE   H6X18355   2.655   1.464   7.884  1.7437  0.9683  2.0185
  163SAPE   H6Y18356   2.508   1.554   7.841  0.1905 -1.6905 -0.6285
  163SAPE   C3718357   2.654   1.680   7.927 -0.0889 -0.1684 -0.2251
  163SAPE   H7X18358   2.581   1.757   7.894 -0.3985 -1.0808 -1.7125
  163SAPE   H7Y18359   2.748   1.731   7.899 -0.0228 -0.2712 -0.1936
  163SAPE   C3818360   2.649   1.658   8.074 -0.0548  0.7364  0.4097
  163SAPE   H8X18361   2.715   1.574   8.104  1.6443  1.6551 -0.7214
  163SAPE   H8Y18362   2.542   1.638   8.098 -0.3706  1.1233 -0.6499
  163SAPE   C3918363   2.701   1.774   8.166 -0.0228  0.2482 -0.0201
  163SAPE   H9X18364   2.635   1.859   8.138  2.1164  1.1843 -2.4501
  163SAPE   H9Y18365   2.804   1.809   8.140 -0.0886  2.0658  1.9885
  163SAPE  C31018366   2.684   1.741   8.319  0.5431  0.0708 -0.0193
  163SAPE  H10X18367   2.586   1.692   8.337  1.3921 -1.2781  1.0186
  163SAPE  H10Y18368   2.682   1.845   8.359 -2.4535  0.6370 -1.4790
  163SAPE  C31118369   2.795   1.652   8.384  0.2961  0.1531  0.2592
  163SAPE  H11X18370   2.896   1.697   8.372 -0.1126  1.0969  0.3124
  163SAPE  H11Y18371   2.796   1.548   8.347  1.1819  1.1104 -2.5918
  163SAPE  C31218372   2.779   1.630   8.537 -0.0187  0.3065 -0.2858
  163SAPE  H12X18373   2.687   1.572   8.561 -1.7966  2.2959 -2.0117
  163SAPE  H12Y18374   2.768   1.724   8.595  1.8557  1.9679 -2.5054
  163SAPE  C31318375   2.903   1.552   8.592  0.6729  0.7216  0.2423
  163SAPE  H13X18376   2.914   1.453   8.544 -3.2617  0.6363 -0.6209
  163SAPE  H13Y18377   2.875   1.532   8.698 -0.0604  3.1606  0.5582
  163SAPE  C31418378   3.038   1.618   8.600  0.3539  0.8939 -0.9681
  163SAPE  H14X18379   3.033   1.712   8.659 -1.6709  0.7077 -0.8141
  163SAPE  H14Y18380   3.070   1.650   8.499  3.3592  1.7371  0.2040
  163SAPE  C31518381   3.148   1.533   8.670  0.3981  0.0072 -0.3303
  163SAPE  H15X18382   3.110   1.436   8.711 -1.9376  0.3647 -1.5819
  163SAPE  H15Y18383   3.197   1.588   8.753 -1.1630  0.9569 -0.0100
  163SAPE  C31618384   3.261   1.494   8.569  0.5860  0.3153  0.4177
  163SAPE  H16X18385   3.305   1.590   8.534 -1.9060  0.5349 -2.3086
  163SAPE  H16Y18386   3.202   1.449   8.486 -0.6059  1.1080  0.8146
  163SAPE  C31718387   3.364   1.396   8.623 -0.5501 -0.5058  0.2477
  163SAPE  H17X18388   3.415   1.352   8.535 -3.1661  0.3955 -1.7878
  163SAPE  H17Y18389   3.312   1.305   8.661  1.5767 -1.4777  0.9015
  163SAPE  C31818390   3.473   1.441   8.718 -0.0874 -0.1346  0.8782
  163SAPE  H18X18391   3.435   1.470   8.818 -2.3560  3.4121 -0.9044
  163SAPE  H18Y18392   3.527   1.530   8.679  1.4552 -0.4543  2.2188
  163SAPE  H18Z18393   3.550   1.362   8.734  0.4896  0.5168  1.3666
  164SAPE     N18394   6.552   5.577   6.152  0.9368  0.0109 -0.1729
  164SAPE   HN118395   6.466   5.628   6.181  0.8320  0.2613 -0.9201
  164SAPE   HN218396   6.597   5.541   6.238 -0.3170  2.1080  1.4269
  164SAPE   HN318397   6.614   5.654   6.118  0.4697  0.4820  0.0299
  164SAPE   C1218398   6.525   5.490   6.040  0.0617  0.2676  0.1954
  164SAPE  H12A18399   6.465   5.541   5.962 -0.2796 -0.5397 -0.0654
  164SAPE  H12B18400   6.474   5.400   6.081  0.3657 -0.2705 -0.6036
  164SAPE   C1118401   6.662   5.457   5.972  0.8483  0.0106 -0.2508
  164SAPE  H11A18402   6.682   5.549   5.913  0.5048 -0.5323 -1.2204
  164SAPE  H11B18403   6.646   5.369   5.905 -0.9005 -0.2940  0.5484
  164SAPE     P18404   6.805   5.308   6.125  0.0684 -0.3710  0.3112
  164SAPE   O1318405   6.810   5.205   6.025  0.1071  0.0260  0.8055
  164SAPE   O1418406   6.928   5.320   6.211 -0.2302 -0.0703 -0.1426
  164SAPE   O1218407   6.771   5.446   6.062  0.4443 -0.0764  0.0641
  164SAPE   O1118408   6.688   5.271   6.216  0.5302  0.1091 -0.5381
  164SAPE    C118409   6.664   5.131   6.264 -0.6590  0.6685 -0.1733
  164SAPE    HA18410   6.651   5.066   6.175 -2.7784  0.0719  0.5289
  164SAPE    HB18411   6.748   5.103   6.331 -0.2719  1.6794 -0.2334
  164SAPE    C218412   6.537   5.122   6.360 -0.3123 -0.2753  0.4142
  164SAPE    HS18413   6.457   5.170   6.301  0.6069 -2.5671 -2.8560
  164SAPE   O2118414   6.580   5.183   6.485 -0.4722 -0.4223 -0.6267
  164SAPE   C2118415   6.472   5.219   6.548  0.3101  0.2753  0.4592
  164SAPE   O2218416   6.358   5.232   6.508  0.0967 -0.3609 -0.1133
  164SAPE   C2218417   6.513   5.239   6.690 -0.2188  0.2299  0.1618
  164SAPE   H2R18418   6.542   5.346   6.702 -1.2015  0.4265  0.9369
  164SAPE   H2S18419   6.423   5.229   6.755 -0.0691  0.7686  0.4627
  164SAPE    C318420   6.490   4.972   6.379  0.1184  0.1970 -0.7210
  164SAPE    HX18421   6.585   4.929   6.418 -1.1294 -1.4226  0.6539
  164SAPE    HY18422   6.467   4.919   6.284 -2.5738  0.5309 -0.3018
  164SAPE   O3118423   6.388   4.957   6.478 -0.3110  0.8955  0.1863
  164SAPE   C3118424   6.266   4.956   6.433  0.0141  0.3239  0.2746
  164SAPE   O3218425   6.232   4.959   6.315  0.0754 -0.0828 -0.4750
  164SAPE   C3218426   6.166   4.943   6.552  0.7474  0.1714 -0.4216
  164SAPE   H2X18427   6.121   4.842   6.544  1.9808 -0.5739  1.5821
  164SAPE   H2Y18428   6.095   5.028   6.539  0.5806  0.2858  1.1027
  164SAPE   C2318429   6.626   5.148   6.743  0.4607 -0.2126  0.6756
  164SAPE   H3R18430   6.728   5.194   6.742 -0.6395  2.3166  0.1546
  164SAPE   H3S18431   6.631   5.061   6.675  0.4093  0.4735 -0.2182
  164SAPE   C2418432   6.610   5.087   6.886  0.1528  0.0376  0.2828
  164SAPE   H4R18433   6.680   5.001   6.891 -0.0619 -0.0991  0.9899
  164SAPE   H4S18434   6.504   5.056   6.899  0.9185 -1.9148  2.1267
  164SAPE   C2518435   6.657   5.195   6.991  0.0652  0.1746  0.2068
  164SAPE   H5R18436   6.762   5.221   6.973  0.5913 -1.2100  1.2459
  164SAPE   C2618437   6.595   5.221   7.102  0.0268  0.7204  0.1320
  164SAPE   H6R18438   6.650   5.272   7.181  0.7731 -2.1335  1.5412
  164SAPE   C2718439   6.450   5.164   7.127  0.3292  1.0539  0.1113
  164SAPE   H7R18440   6.459   5.054   7.137 -1.9133  1.1272  3.7599
  164SAPE   H7S18441   6.376   5.185   7.047 -1.8776 -1.0191  1.5339
  164SAPE   C2818442   6.397   5.208   7.256  0.6897 -0.3900 -0.3894
  164SAPE   H8R18443   6.394   5.134   7.337 -0.0948  0.7877  0.6897
  164SAPE   C2918444   6.375   5.332   7.299 -0.2845 -0.8805 -0.4970
  164SAPE   H9R18445   6.334   5.346   7.400 -0.3671  1.0780 -0.7830
  164SAPE  C21018446   6.393   5.458   7.219 -0.0055  0.0085 -0.4241
  164SAPE  H10R18447   6.366   5.438   7.114  1.2717  2.3175 -1.2408
  164SAPE  H10S18448   6.502   5.481   7.215  0.3638 -1.2603  1.5390
  164SAPE  C21118449   6.312   5.574   7.274  0.7744  0.1599 -0.0115
  164SAPE  H11R18450   6.213   5.594   7.229  0.8885  1.5344  0.3229
  164SAPE  C21218451   6.351   5.679   7.352  0.1988  0.0268  0.0284
  164SAPE  H12R18452   6.277   5.755   7.382  0.5122 -0.4427  2.0316
  164SAPE  C21318453   6.487   5.695   7.409  0.2562 -0.3288 -0.3188
  164SAPE  H13R18454   6.549   5.769   7.354  1.4301 -0.1367  1.2263
  164SAPE  H13S18455   6.539   5.597   7.397  0.3305 -0.0861 -2.0308
  164SAPE  C21418456   6.480   5.737   7.563  0.0315  0.7831  0.5934
  164SAPE  H14R18457   6.458   5.843   7.582  0.3222  1.1033 -0.7482
  164SAPE  C21518458   6.515   5.661   7.669  0.3531  0.3692  0.0739
  164SAPE  H15R18459   6.509   5.712   7.767 -1.5506 -1.0972  0.7430
  164SAPE  C21618460   6.564   5.521   7.653  0.3631 -0.0349 -0.4929
  164SAPE  H16R18461   6.672   5.504   7.673  0.6524  1.3544 -0.8015
  164SAPE  H16S18462   6.543   5.482   7.551  1.2354  1.2722 -1.1921
  164SAPE  C21718463   6.494   5.429   7.755 -0.8142  0.2870 -0.3567
  164SAPE  H17R18464   6.385   5.423   7.734 -0.6574 -2.2594 -0.6449
  164SAPE  H17S18465   6.512   5.477   7.854  1.2179  1.8082 -1.4354
  164SAPE  C21818466   6.552   5.286   7.754  0.1372 -0.1675  0.7301
  164SAPE  H18R18467   6.663   5.292   7.752  0.0411  1.3634 -1.5862
  164SAPE  H18S18468   6.511   5.240   7.661 -1.4417  0.5085  1.0756
  164SAPE  C21918469   6.492   5.201   7.870  0.0281 -0.2056  0.5223
  164SAPE  H19R18470   6.387   5.234   7.885  0.4286  1.0788  0.5707
  164SAPE  H19S18471   6.544   5.237   7.961  1.1499  0.4924 -0.3747
  164SAPE  C22018472   6.495   5.043   7.851  0.3561  0.4418  0.6293
  164SAPE  H20R18473   6.599   5.005   7.860 -0.3494 -1.4756  0.9154
  164SAPE  H20S18474   6.455   5.022   7.750 -2.8382  0.5126  1.8372
  164SAPE  H20T18475   6.434   4.989   7.927 -1.8357 -0.7260 -1.8831
  164SAPE   C3318476   6.232   4.955   6.693 -0.0880  0.8876  0.4576
  164SAPE   H3X18477   6.243   5.061   6.723  1.8927  0.5499  0.9945
  164SAPE   H3Y18478   6.335   4.911   6.694 -0.1477  0.7513  0.9789
  164SAPE   C3418479   6.151   4.879   6.796  0.6676  0.3299 -0.0003
  164SAPE   H4X18480   6.172   4.770   6.799  1.6556  0.5189  0.4897
  164SAPE   H4Y18481   6.046   4.896   6.765  0.9258  0.2050 -0.9483
  164SAPE   C3518482   6.164   4.940   6.942 -0.0158  0.3747 -0.1940
  164SAPE   H5X18483   6.143   5.049   6.931 -0.0035  0.4737  0.7515
  164SAPE   H5Y18484   6.267   4.929   6.982 -0.4355 -1.8447  0.3105
  164SAPE   C3618485   6.058   4.883   7.040  0.1348  0.3877  0.2710
  164SAPE   H6X18486   6.090   4.780   7.067  1.1597  1.0247  1.5220
  164SAPE   H6Y18487   5.956   4.878   6.996  0.1223 -0.2151  0.3643
  164SAPE   C3718488   6.071   4.956   7.171 -0.0273 -0.1124  0.1195
  164SAPE   H7X18489   6.025   5.056   7.158  0.4406  0.1988  0.8483
  164SAPE   H7Y18490   6.179   4.953   7.194  0.2700  0.4614 -1.1498
  164SAPE   C3818491   5.993   4.893   7.293  0.2493 -0.8229 -0.3512
  164SAPE   H8X18492   6.032   4.789   7.305 -0.7682 -0.9948  1.7308
  164SAPE   H8Y18493   5.888   4.884   7.260  0.6018 -1.9860 -1.2282
  164SAPE   C3918494   6.004   4.987   7.419 -0.2280 -0.1969  0.4640
  164SAPE   H9X18495   5.933   4.946   7.494 -1.3495 -0.0329 -0.5018
  164SAPE   H9Y18496   5.964   5.088   7.393 -1.5006 -1.1368 -1.3566
  164SAPE  C31018497   6.145   5.000   7.476  0.7614 -0.7431 -0.1851
  164SAPE  H10X18498   6.219   5.002   7.393 -0.3314  1.8017 -1.1465
  164SAPE  H10Y18499   6.159   4.916   7.547 -1.5895  0.0113  1.2114
  164SAPE  C31118500   6.168   5.126   7.558  0.0026 -0.3344  0.5134
  164SAPE  H11X18501   6.139   5.214   7.498  3.5616  0.3276 -0.3823
  164SAPE  H11Y18502   6.278   5.127   7.578 -0.0060  0.9179  0.5341
  164SAPE  C31218503   6.105   5.123   7.695  0.4688 -0.0519  0.5591
  164SAPE  H12X18504   6.133   5.030   7.750 -1.1289 -1.2747 -0.6379
  164SAPE  H12Y18505   5.995   5.108   7.689  0.5673 -0.2740 -0.8522
  164SAPE  C31318506   6.122   5.256   7.767  0.0346 -0.7014 -0.2420
  164SAPE  H13X18507   6.105   5.347   7.705 -2.0223 -0.7792  0.2001
  164SAPE  H13Y18508   6.231   5.258   7.791  0.1003 -2.1485 -0.3979
  164SAPE  C31418509   6.057   5.281   7.902 -1.1324  0.7408 -0.3119
  164SAPE  H14X18510   6.112   5.215   7.972 -1.3214  0.7824 -0.1265
  164SAPE  H14Y18511   5.950   5.250   7.906 -0.8949 -0.4311 -2.0857
  164SAPE  C31518512   6.089   5.421   7.958  0.7298 -0.2643  0.4591
  164SAPE  H15X18513   6.031   5.498   7.903  1.4152 -0.1575 -0.1274
  164SAPE  H15Y18514   6.197   5.435   7.932 -0.1711 -0.8686 -4.1895
  164SAPE  C31618515   6.099   5.436   8.106  0.1591  0.0725 -0.0573
  164SAPE  H16X18516   6.132   5.538   8.138 -0.5616  0.2002  0.2938
  164SAPE  H16Y18517   6.186   5.380   8.146 -0.2378  0.5169  1.4701
  164SAPE  C31718518   5.972   5.399   8.181 -0.2624  0.0211  0.5471
  164SAPE  H17X18519   5.934   5.299   8.153  0.7979 -0.3951  0.5968
  164SAPE  H17Y18520   5.890   5.469   8.154  0.3415 -0.0097 -1.4969
  164SAPE  C31818521   5.976   5.419   8.332  0.5793 -0.1318 -0.4493
  164SAPE  H18X18522   5.875   5.427   8.377  1.7267  4.0121  1.6401
  164SAPE  H18Y18523   6.028   5.514   8.358 -0.5707  0.3246  0.2102
  164SAPE  H18Z18524   6.021   5.328   8.378 -0.4481 -0.8657 -0.8830
  165SAPE     N18525   5.594   0.830   6.329 -0.0377 -0.0407 -0.1643
  165SAPE   HN118526   5.563   0.732   6.346 -2.1380  0.3175 -1.6627
  165SAPE   HN218527   5.577   0.851   6.229 -3.0113 -0.0457  0.2945
  165SAPE   HN318528   5.698   0.825   6.327 -0.0062  0.8212 -2.1244
  165SAPE   C1218529   5.557   0.947   6.413 -0.3715  0.0803  0.0306
  165SAPE  H12A18530   5.571   0.912   6.517 -0.6148  1.7407  0.6383
  165SAPE  H12B18531   5.453   0.978   6.392 -0.7562 -2.1203 -1.4583
  165SAPE   C1118532   5.653   1.063   6.372  0.0818  0.4054 -0.7043
  165SAPE  H11A18533   5.636   1.082   6.264 -0.7539  0.6881 -0.5255
  165SAPE  H11B18534   5.760   1.035   6.363  0.1315  0.4273 -0.1931
  165SAPE     P18535   5.675   1.327   6.396  0.4241 -0.0709 -0.1250
  165SAPE   O1318536   5.644   1.332   6.252  0.4569 -0.2744  0.2079
  165SAPE   O1418537   5.621   1.438   6.480  0.8743 -0.0973  0.3983
  165SAPE   O1218538   5.627   1.180   6.451  0.3543 -0.5155  0.0553
  165SAPE   O1118539   5.834   1.325   6.413 -0.4467 -0.1024 -0.3925
  165SAPE    C118540   5.909   1.337   6.535 -0.5185 -0.8933  0.3536
  165SAPE    HA18541   5.882   1.432   6.585 -1.5350 -0.5520 -0.8216
  165SAPE    HB18542   5.879   1.257   6.606 -1.4444  1.8243  3.0937
  165SAPE    C218543   6.066   1.335   6.508  0.0591  0.1239  0.4562
  165SAPE    HS18544   6.092   1.246   6.448 -0.8892 -1.3449  2.1494
  165SAPE   O2118545   6.143   1.342   6.627 -0.0918 -0.3599 -0.2079
  165SAPE   C2118546   6.273   1.316   6.602  0.4525 -0.2894 -0.4461
  165SAPE   O2218547   6.321   1.292   6.497 -0.4407  0.3653  0.3686
  165SAPE   C2218548   6.358   1.349   6.728  0.2727 -0.3672  0.4535
  165SAPE   H2R18549   6.367   1.459   6.728  2.5330 -0.5227 -0.7058
  165SAPE   H2S18550   6.314   1.311   6.822  1.8987  1.3252  1.9400
  165SAPE    C318551   6.103   1.470   6.426  0.2474  0.4063  0.7968
  165SAPE    HX18552   6.039   1.462   6.335  1.6628  1.1555 -0.2844
  165SAPE    HY18553   6.209   1.468   6.393 -0.4159  0.0032 -1.4237
  165SAPE   O3118554   6.059   1.585   6.497 -0.1295 -0.0527 -0.4582
  165SAPE   C3118555   6.155   1.650   6.556  0.0873  0.1457 -0.3908
  165SAPE   O3218556   6.274   1.619   6.562 -0.5428 -0.3744  0.0729
  165SAPE   C3218557   6.091   1.767   6.626  0.4142  0.7240  0.1661
  165SAPE   H2X18558   5.988   1.753   6.665 -0.5442  1.0760 -2.1693
  165SAPE   H2Y18559   6.088   1.856   6.561  0.9730 -0.4576 -1.5012
  165SAPE   C2318560   6.502   1.289   6.728  0.2398  0.5947  0.0840
  165SAPE   H3R18561   6.547   1.340   6.640  1.3150 -2.9518 -1.5076
  165SAPE   H3S18562   6.511   1.181   6.705  0.6621  0.8502 -1.0081
  165SAPE   C2418563   6.563   1.313   6.865 -0.0046 -0.4923 -0.4299
  165SAPE   H4R18564   6.562   1.422   6.887  2.8428 -0.5144  0.0549
  165SAPE   H4S18565   6.667   1.287   6.833  0.6357  0.7248  0.6068
  165SAPE   C2518566   6.510   1.225   6.979 -0.0735  0.6019 -0.1142
  165SAPE   H5R18567   6.460   1.137   6.936  1.1137  0.1351 -0.5700
  165SAPE   C2618568   6.518   1.241   7.113  0.2152  0.4921 -1.0773
  165SAPE   H6R18569   6.461   1.169   7.173 -0.9407  2.0713 -0.2641
  165SAPE   C2718570   6.592   1.354   7.175  0.4130 -0.0364  0.1320
  165SAPE   H7R18571   6.624   1.423   7.094 -2.8773  0.6282 -0.6435
  165SAPE   H7S18572   6.690   1.318   7.214 -0.6248  0.2610  3.1912
  165SAPE   C2818573   6.510   1.433   7.287 -0.1158 -0.2460  0.6418
  165SAPE   H8R18574   6.442   1.513   7.253  1.3475  1.5848  1.9465
  165SAPE   C2918575   6.519   1.407   7.420 -0.1582  0.4739 -0.3798
  165SAPE   H9R18576   6.455   1.460   7.492  0.1139  0.6352 -0.2539
  165SAPE  C21018577   6.613   1.296   7.469 -0.3610  0.3435 -0.6540
  165SAPE  H10R18578   6.715   1.337   7.487  0.2631 -1.2353 -0.5271
  165SAPE  H10S18579   6.622   1.217   7.391 -2.0180 -0.9518  0.4324
  165SAPE  C21118580   6.559   1.233   7.598 -0.2680  0.0916 -0.1926
  165SAPE  H11R18581   6.465   1.181   7.574  0.7426 -0.8965 -2.1960
  165SAPE  C21218582   6.607   1.230   7.719  0.0827  0.2489 -0.6313
  165SAPE  H12R18583   6.538   1.189   7.794  1.2351 -0.9773 -0.2257
  165SAPE  C21318584   6.733   1.294   7.770 -0.3698 -0.1294  1.0077
  165SAPE  H13R18585   6.748   1.399   7.736  0.1503 -0.9572 -1.4479
  165SAPE  H13S18586   6.817   1.240   7.722  0.3153  1.5710  0.2190
  165SAPE  C21418587   6.741   1.294   7.922 -0.9676 -0.4454 -0.4684
  165SAPE  H14R18588   6.816   1.226   7.965 -0.8038  0.0043 -0.0468
  165SAPE  C21518589   6.654   1.343   8.008 -0.3149 -0.2290 -0.7662
  165SAPE  H15R18590   6.680   1.363   8.113  2.5833  2.4521 -1.8818
  165SAPE  C21618591   6.540   1.433   7.970  0.8376 -0.1806 -0.2583
  165SAPE  H16R18592   6.451   1.372   7.940 -0.5206  1.9124 -0.5945
  165SAPE  H16S18593   6.564   1.498   7.882  1.8254 -0.6821 -0.3674
  165SAPE  C21718594   6.505   1.534   8.079 -0.2631 -0.0063 -0.6336
  165SAPE  H17R18595   6.471   1.491   8.176  1.7139 -3.9874 -1.5955
  165SAPE  H17S18596   6.411   1.583   8.046  0.1684  0.4532 -1.1927
  165SAPE  C21818597   6.612   1.641   8.108 -0.1307  0.0362  0.5996
  165SAPE  H18R18598   6.636   1.684   8.009  0.4954  0.2716  0.8450
  165SAPE  H18S18599   6.705   1.589   8.140  0.1443  0.7446  0.9595
  165SAPE  C21918600   6.566   1.746   8.208 -0.5788  0.0469 -0.2164
  165SAPE  H19R18601   6.457   1.753   8.191 -0.5559  2.1592  0.2624
  165SAPE  H19S18602   6.602   1.849   8.184  2.2996 -0.3049  2.2531
  165SAPE  C22018603   6.616   1.725   8.353  0.5608  0.1090  0.6527
  165SAPE  H20R18604   6.561   1.792   8.422 -0.0339  2.3155 -1.9120
  165SAPE  H20S18605   6.723   1.754   8.362  1.0793 -1.9680  1.5275
  165SAPE  H20T18606   6.587   1.622   8.387 -0.3565  0.2893  0.4388
  165SAPE   C3318607   6.150   1.814   6.763  0.5142 -0.4308 -0.5747
  165SAPE   H3X18608   6.146   1.925   6.765 -0.5437 -0.4461 -1.5543
  165SAPE   H3Y18609   6.260   1.797   6.761  0.6605  0.3687  0.3661
  165SAPE   C3418610   6.074   1.761   6.891  0.2124  0.4944 -0.0755
  165SAPE   H4X18611   5.967   1.791   6.889  0.3666  1.0086 -0.5534
  165SAPE   H4Y18612   6.132   1.801   6.977 -0.4361 -0.3053  0.7473
  165SAPE   C3518613   6.070   1.604   6.886 -0.0377  0.6433 -0.6992
  165SAPE   H5X18614   6.177   1.576   6.870 -0.1617 -0.4066  0.2516
  165SAPE   H5Y18615   6.021   1.560   6.796 -1.5347  0.0560  0.3895
  165SAPE   C3618616   6.031   1.533   7.018  0.1675 -0.0421  0.3474
  165SAPE   H6X18617   6.021   1.422   7.016  0.9955 -0.1857  2.6671
  165SAPE   H6Y18618   5.935   1.579   7.050  0.6258 -0.9395  3.1993
  165SAPE   C3718619   6.144   1.545   7.131  0.8936 -0.2857 -0.0189
  165SAPE   H7X18620   6.196   1.642   7.121  0.7748 -0.1523  0.6930
  165SAPE   H7Y18621   6.215   1.460   7.126 -0.0604 -1.1060  0.0396
  165SAPE   C3818622   6.080   1.518   7.271 -0.1265  0.5124  0.3170
  165SAPE   H8X18623   6.059   1.409   7.275 -0.3016  0.5920  2.3017
  165SAPE   H8Y18624   5.983   1.572   7.275  0.1570  1.1201 -0.7916
  165SAPE   C3918625   6.174   1.561   7.390  0.0673  0.2317 -0.0627
  165SAPE   H9X18626   6.214   1.663   7.371  0.4234 -0.4941 -3.4904
  165SAPE   H9Y18627   6.253   1.484   7.397  0.3567  0.6833  2.1115
  165SAPE  C31018628   6.104   1.543   7.523 -0.2982  0.4749  0.5659
  165SAPE  H10X18629   6.062   1.441   7.515  0.8658  0.1623 -2.1585
  165SAPE  H10Y18630   6.022   1.617   7.532  0.0765  1.0426 -0.5315
  165SAPE  C31118631   6.184   1.549   7.660  0.4359 -0.7314  0.5324
  165SAPE  H11X18632   6.222   1.652   7.677 -1.5400  0.2333 -0.6435
  165SAPE  H11Y18633   6.270   1.479   7.669  1.4354  0.2201 -1.2396
  165SAPE  C31218634   6.086   1.511   7.767  0.8378  0.2245 -0.1967
  165SAPE  H12X18635   6.076   1.400   7.763  1.3014  0.1888 -0.3485
  165SAPE  H12Y18636   5.989   1.564   7.756  1.1135  0.0706 -4.1186
  165SAPE  C31318637   6.139   1.558   7.907  0.1651 -0.3367 -0.3430
  165SAPE  H13X18638   6.144   1.669   7.898  0.2588 -0.2336  0.9638
  165SAPE  H13Y18639   6.239   1.511   7.916  0.3121 -0.2272 -1.3546
  165SAPE  C31418640   6.049   1.522   8.031 -0.8310  0.2410  0.3504
  165SAPE  H14X18641   6.030   1.413   8.023 -1.5439  0.4584 -1.0952
  165SAPE  H14Y18642   5.947   1.568   8.031 -0.2586  1.5403  0.1337
  165SAPE  C31518643   6.123   1.559   8.160 -0.0404  0.3633 -0.0856
  165SAPE  H15X18644   6.136   1.669   8.167 -2.7751  0.8657 -2.2375
  165SAPE  H15Y18645   6.219   1.503   8.166 -1.2419 -1.8181 -1.0229
  165SAPE  C31618646   6.032   1.519   8.285 -0.0058 -0.2184  0.0579
  165SAPE  H16X18647   5.999   1.413   8.278  2.0638 -1.0555  2.1554
  165SAPE  H16Y18648   5.955   1.598   8.287 -1.0578 -1.2157 -0.7228
  165SAPE  C31718649   6.097   1.507   8.425 -0.0294 -0.2375 -0.7996
  165SAPE  H17X18650   6.154   1.599   8.452  1.1529 -0.6621 -1.8017
  165SAPE  H17Y18651   6.166   1.421   8.421  1.5055  1.0603 -3.6279
  165SAPE  C31818652   5.989   1.488   8.530 -0.2401 -0.0925 -0.8137
  165SAPE  H18X18653   5.901   1.555   8.526  0.0774  0.6199  2.5421
  165SAPE  H18Y18654   6.038   1.514   8.626 -0.7767  1.2059 -0.8914
  165SAPE  H18Z18655   5.951   1.383   8.536  0.4546 -0.5071 -3.1408
  166SAPE     N18656   5.894   3.747   5.785  0.1545  0.3268  0.0398
  166SAPE   HN118657   5.831   3.671   5.819  0.6481  1.4542  3.7492
  166SAPE   HN218658   5.954   3.782   5.862  1.9522 -3.1380  0.2843
  166SAPE   HN318659   5.844   3.826   5.739 -2.8854 -0.6337  1.5474
  166SAPE   C1218660   5.966   3.675   5.679 -0.0180  0.2132 -0.6235
  166SAPE  H12A18661   5.887   3.611   5.633 -0.2740  1.0806 -1.3978
  166SAPE  H12B18662   6.044   3.614   5.730 -0.3622 -0.2831 -0.6879
  166SAPE   C1118663   6.019   3.772   5.571 -0.5190  0.0655  0.0733
  166SAPE  H11A18664   5.933   3.827   5.528 -0.2777  0.1268 -0.3345
  166SAPE  H11B18665   6.085   3.721   5.498  1.0440 -0.2185  1.6551
  166SAPE     P18666   6.252   3.853   5.652  0.0234 -0.3303  0.3501
  166SAPE   O1318667   6.304   3.829   5.516  0.2881  0.1126 -0.3496
  166SAPE   O1418668   6.315   3.966   5.728  0.0307  0.1088  0.3365
  166SAPE   O1218669   6.102   3.871   5.637  0.6144 -0.4814  0.2476
  166SAPE   O1118670   6.259   3.720   5.735 -0.0400 -0.0738  0.2099
  166SAPE    C118671   6.349   3.700   5.840 -0.0794  0.7792 -0.1531
  166SAPE    HA18672   6.372   3.591   5.842 -0.0285  0.8004  0.7253
  166SAPE    HB18673   6.442   3.756   5.818 -0.2843  1.4248  0.5935
  166SAPE    C218674   6.298   3.722   5.981 -0.3331 -0.6260  0.4702
  166SAPE    HS18675   6.210   3.657   5.996 -0.2714 -0.4802  1.5467
  166SAPE   O2118676   6.290   3.865   6.004  0.7889  0.5734 -0.2646
  166SAPE   C2118677   6.171   3.908   6.011  0.2024  0.4492 -0.2653
  166SAPE   O2218678   6.068   3.853   5.970  0.9637 -0.8188  0.1633
  166SAPE   C2218679   6.179   4.046   6.073 -1.1545  0.3631  0.0797
  166SAPE   H2R18680   6.286   4.065   6.099 -0.6701 -0.4132 -1.2944
  166SAPE   H2S18681   6.167   4.120   5.991 -0.2935  0.3320 -0.0786
  166SAPE    C318682   6.390   3.647   6.087  0.2205 -0.0762  0.2998
  166SAPE    HX18683   6.496   3.680   6.073 -0.4546  3.0014  1.9847
  166SAPE    HY18684   6.376   3.543   6.053  1.8901 -0.4928  0.8281
  166SAPE   O3118685   6.354   3.663   6.223 -0.3455 -0.1512 -0.3576
  166SAPE   C3118686   6.418   3.764   6.295 -0.1983  0.0347 -0.6457
  166SAPE   O3218687   6.476   3.854   6.244  0.6670  0.5956  1.0809
  166SAPE   C3218688   6.416   3.744   6.448  0.1762 -0.3245  0.5322
  166SAPE   H2X18689   6.472   3.651   6.471 -0.5611 -0.2061  2.8411
  166SAPE   H2Y18690   6.306   3.742   6.466  0.2129  1.5725  1.0091
  166SAPE   C2318691   6.076   4.069   6.181  0.7510  0.1227 -0.0297
  166SAPE   H3R18692   6.041   3.974   6.227 -0.1462 -0.9019 -2.7778
  166SAPE   H3S18693   5.991   4.110   6.124 -0.4038 -3.2547 -0.8335
  166SAPE   C2418694   6.122   4.184   6.284  0.5152 -0.7367  0.0795
  166SAPE   H4R18695   6.036   4.227   6.340  0.0364  1.6929 -2.3815
  166SAPE   H4S18696   6.172   4.263   6.224  0.1682 -2.7842 -3.0458
  166SAPE   C2518697   6.231   4.128   6.369 -1.0310  0.2164  0.1916
  166SAPE   H5R18698   6.318   4.073   6.331  0.9434  1.9716  2.0272
  166SAPE   C2618699   6.240   4.136   6.505 -0.1599 -0.7900 -0.2421
  166SAPE   H6R18700   6.329   4.088   6.548  0.9446  1.8435  0.5096
  166SAPE   C2718701   6.148   4.205   6.603 -0.4350 -0.1579 -0.6843
  166SAPE   H7R18702   6.091   4.122   6.650  0.9075  0.4431  2.0909
  166SAPE   H7S18703   6.083   4.281   6.554 -1.1791 -0.6702 -0.4912
  166SAPE   C2818704   6.231   4.278   6.702 -0.6145  0.8136  0.3295
  166SAPE   H8R18705   6.311   4.339   6.657 -1.0846  2.6586  1.9111
  166SAPE   C2918706   6.213   4.278   6.833  0.3777  0.2388  0.1846
  166SAPE   H9R18707   6.285   4.331   6.897  1.5053  0.3167 -1.1176
  166SAPE  C21018708   6.100   4.204   6.905  0.4643 -0.2095  0.3244
  166SAPE  H10R18709   6.015   4.192   6.835  0.2684 -2.4661  0.8984
  166SAPE  H10S18710   6.058   4.257   6.994 -0.4306 -2.1869  1.1060
  166SAPE  C21118711   6.145   4.068   6.950  0.6224  0.1824 -0.0203
  166SAPE  H11R18712   6.159   3.991   6.872  1.2082 -0.5628  0.8090
  166SAPE  C21218713   6.156   4.021   7.075 -0.3589  0.5627 -0.7405
  166SAPE  H12R18714   6.183   3.917   7.097 -3.1577  0.0157  0.2581
  166SAPE  C21318715   6.125   4.098   7.198  0.4111 -0.3701 -0.5248
  166SAPE  H13R18716   6.106   4.024   7.279  0.8042 -2.4157 -2.2695
  166SAPE  H13S18717   6.025   4.141   7.177  0.7059 -0.3796 -2.0208
  166SAPE  C21418718   6.209   4.223   7.234  0.5364  1.5381  0.1736
  166SAPE  H14R18719   6.191   4.315   7.177 -2.4177  1.5018  0.9940
  166SAPE  C21518720   6.292   4.238   7.342 -0.0866  0.4687  0.0117
  166SAPE  H15R18721   6.357   4.326   7.342  1.8152 -0.8934  1.0610
  166SAPE  C21618722   6.329   4.136   7.446 -0.1401  0.2895 -0.0244
  166SAPE  H16R18723   6.423   4.083   7.420 -0.6060 -0.7405  0.3749
  166SAPE  H16S18724   6.252   4.057   7.452 -0.2525  0.4595  0.8214
  166SAPE  C21718725   6.329   4.199   7.587  0.1856  0.1994  0.3757
  166SAPE  H17R18726   6.235   4.252   7.611 -0.7593  0.3820 -3.3964
  166SAPE  H17S18727   6.419   4.265   7.592  1.7909 -1.8802 -0.1852
  166SAPE  C21818728   6.363   4.097   7.691  0.1511  0.0045  0.1404
  166SAPE  H18R18729   6.423   4.018   7.639  0.2287 -0.2790  0.6540
  166SAPE  H18S18730   6.275   4.053   7.743 -0.2856  0.6019 -0.0979
  166SAPE  C21918731   6.435   4.161   7.805  0.2867  0.3184  0.9924
  166SAPE  H19R18732   6.374   4.245   7.846 -3.6233 -1.1499 -1.5481
  166SAPE  H19S18733   6.536   4.201   7.780 -0.1306  0.2061 -0.9766
  166SAPE  C22018734   6.461   4.057   7.913 -0.6009 -0.1989 -0.7390
  166SAPE  H20R18735   6.508   3.968   7.867  2.9598  1.3406 -0.2763
  166SAPE  H20S18736   6.371   4.031   7.973 -1.0385  0.5081 -1.0695
  166SAPE  H20T18737   6.538   4.088   7.987  1.0528 -2.6547 -1.3818
  166SAPE   C3318738   6.490   3.869   6.516  0.2452  0.8693  0.2729
  166SAPE   H3X18739   6.451   3.958   6.461 -0.1644  0.7534  0.3775
  166SAPE   H3Y18740   6.600   3.868   6.500 -0.0556  1.9289 -2.0474
  166SAPE   C3418741   6.458   3.879   6.666  0.4053 -0.5147  0.2721
  166SAPE   H4X18742   6.460   3.778   6.711 -0.6565 -0.4656  0.4334
  166SAPE   H4Y18743   6.356   3.921   6.677  0.5110 -0.4070  0.8335
  166SAPE   C3518744   6.565   3.951   6.751 -0.2260  0.0727  0.2927
  166SAPE   H5X18745   6.588   4.047   6.700 -2.6642 -0.4304 -1.8739
  166SAPE   H5Y18746   6.650   3.880   6.762 -0.1395  0.5245  3.0283
  166SAPE   C3618747   6.521   3.979   6.901 -0.1940  0.1123  0.2640
  166SAPE   H6X18748   6.520   3.882   6.954  0.3475  0.2566  0.5373
  166SAPE   H6Y18749   6.415   4.014   6.902 -0.2933 -0.1834  1.8442
  166SAPE   C3718750   6.615   4.084   6.975 -0.3315 -0.2520  0.1085
  166SAPE   H7X18751   6.600   4.186   6.934  0.4250 -0.3988 -0.5597
  166SAPE   H7Y18752   6.722   4.059   6.960  0.3939  0.0143  4.2243
  166SAPE   C3818753   6.582   4.069   7.124  0.6831 -0.5312 -0.1530
  166SAPE   H8X18754   6.598   3.960   7.136  0.2754 -0.6266 -0.4718
  166SAPE   H8Y18755   6.479   4.106   7.143  1.8902  2.8447  0.2065
  166SAPE   C3918756   6.676   4.150   7.213 -0.5499  0.2565  0.8053
  166SAPE   H9X18757   6.775   4.102   7.194  0.0642  2.3012 -1.4290
  166SAPE   H9Y18758   6.639   4.119   7.313  0.4759  0.5724  1.2951
  166SAPE  C31018759   6.682   4.305   7.185  0.0537 -0.4361 -0.3300
  166SAPE  H10X18760   6.589   4.356   7.218  0.7737  1.3787 -1.0119
  166SAPE  H10Y18761   6.685   4.327   7.076 -0.5658 -1.0458 -0.4705
  166SAPE  C31118762   6.806   4.375   7.238  0.3617 -0.0815 -0.8046
  166SAPE  H11X18763   6.808   4.481   7.206 -2.0021 -0.0584 -0.9706
  166SAPE  H11Y18764   6.894   4.316   7.204  1.5536  1.4545 -0.3976
  166SAPE  C31218765   6.800   4.379   7.390 -0.3622 -0.2963 -0.6097
  166SAPE  H12X18766   6.781   4.283   7.443  1.4859 -0.0179  0.6056
  166SAPE  H12Y18767   6.709   4.433   7.422  0.4130 -0.1089  1.3458
  166SAPE  C31318768   6.924   4.435   7.467 -0.0178 -0.8152 -0.7549
  166SAPE  H13X18769   6.942   4.535   7.424 -0.0710 -0.0801  0.9108
  166SAPE  H13Y18770   7.004   4.363   7.438  0.2304 -0.5118 -0.8153
  166SAPE  C31418771   6.909   4.450   7.616 -0.5171  0.2543 -0.3244
  166SAPE  H14X18772   6.869   4.353   7.653 -1.3912  1.1206  1.0601
  166SAPE  H14Y18773   6.829   4.522   7.644 -0.9523 -0.8299  1.2958
  166SAPE  C31518774   7.049   4.489   7.682  0.7706 -0.0440 -0.6264
  166SAPE  H15X18775   7.073   4.596   7.659 -1.9216  1.0587  1.4510
  166SAPE  H15Y18776   7.129   4.431   7.632  0.2906 -0.2967 -1.0913
  166SAPE  C31618777   7.039   4.478   7.832  0.0937  0.1432 -0.2677
  166SAPE  H16X18778   7.001   4.378   7.862 -2.3901  1.2671  0.4484
  166SAPE  H16Y18779   6.970   4.558   7.866  2.0419  1.5623  0.4768
  166SAPE  C31718780   7.180   4.492   7.890 -0.0561  0.5056 -0.1941
  166SAPE  H17X18781   7.234   4.571   7.833 -2.3532  2.9423  0.8667
  166SAPE  H17Y18782   7.235   4.401   7.859  0.1113  0.8875 -1.0279
  166SAPE  C31818783   7.191   4.503   8.048  0.4930 -0.0595 -0.6535
  166SAPE  H18X18784   7.143   4.413   8.092 -1.1008  0.8810 -0.4296
  166SAPE  H18Y18785   7.153   4.595   8.097 -0.7400  0.1166 -1.9065
  166SAPE  H18Z18786   7.295   4.489   8.082  0.1627  0.5746  0.6427
  167SAPE     N18787   6.779   4.005   5.980 -0.1319 -0.2921 -1.4972
  167SAPE   HN118788   6.803   4.102   5.951 -1.3139  0.4895  0.0429
  167SAPE   HN218789   6.850   3.939   5.943  0.6669 -0.5069  0.3627
  167SAPE   HN318790   6.683   3.975   5.951 -0.4387 -1.2593  0.4072
  167SAPE   C1218791   6.780   3.997   6.122  0.5601  0.3471  0.3883
  167SAPE  H12A18792   6.686   4.039   6.164 -1.0877 -0.5693 -2.2311
  167SAPE  H12B18793   6.866   4.055   6.161  2.5370 -1.0307 -1.7907
  167SAPE   C1118794   6.802   3.848   6.154 -0.0374 -1.0286 -0.6572
  167SAPE  H11A18795   6.704   3.798   6.136  0.2791 -1.4613 -1.1885
  167SAPE  H11B18796   6.813   3.835   6.264 -1.4867  0.9483 -0.2491
  167SAPE     P18797   6.960   3.635   6.082  0.7438 -0.1326  0.1779
  167SAPE   O1318798   6.862   3.568   5.992  0.5144 -0.5381 -0.0720
  167SAPE   O1418799   7.104   3.624   6.046 -0.1947  0.3919 -1.0162
  167SAPE   O1218800   6.918   3.788   6.085  0.3362 -0.0415  0.2849
  167SAPE   O1118801   6.941   3.582   6.233  0.0630 -0.4433 -0.3731
  167SAPE    C118802   7.012   3.646   6.344 -0.7321 -0.5584  0.9799
  167SAPE    HA18803   7.118   3.613   6.346 -0.5599 -0.0860  0.0798
  167SAPE    HB18804   7.005   3.757   6.340 -0.9088 -0.6390 -2.6962
  167SAPE    C218805   6.950   3.602   6.466 -0.1852  0.1502  0.0656
  167SAPE    HS18806   6.841   3.619   6.478 -0.1344  0.7197 -0.2699
  167SAPE   O2118807   7.023   3.648   6.576 -0.0185 -1.0547 -0.7985
  167SAPE   C2118808   6.988   3.765   6.624 -0.0321  0.1037  0.3819
  167SAPE   O2218809   6.879   3.813   6.603  0.0606  0.2876 -0.0019
  167SAPE   C2218810   7.100   3.823   6.711 -0.4327  0.1882  0.1256
  167SAPE   H2R18811   7.137   3.743   6.779 -0.7399  0.4204  0.5667
  167SAPE   H2S18812   7.180   3.857   6.642 -1.6203  1.0224 -0.8547
  167SAPE    C318813   6.954   3.439   6.482 -0.0739 -0.5036 -0.0289
  167SAPE    HX18814   7.059   3.414   6.455  0.6596  0.3973  1.9056
  167SAPE    HY18815   6.881   3.395   6.411 -0.0126 -0.5646 -0.0539
  167SAPE   O3118816   6.936   3.388   6.618  0.7065  0.0254 -0.2435
  167SAPE   C3118817   6.817   3.401   6.671  0.1279  0.3622  0.7492
  167SAPE   O3218818   6.716   3.422   6.609 -0.5360  0.1561 -0.3766
  167SAPE   C3218819   6.824   3.381   6.828 -0.3956 -0.9563 -0.1782
  167SAPE   H2X18820   6.914   3.322   6.855  0.3834  0.2056 -0.1856
  167SAPE   H2Y18821   6.735   3.324   6.862 -0.6189  0.1146  1.0732
  167SAPE   C2318822   7.059   3.952   6.790  0.0183  0.4674  0.2906
  167SAPE   H3R18823   6.995   4.012   6.722 -1.7985  0.8930  2.3158
  167SAPE   H3S18824   7.147   4.018   6.809  1.3339 -0.5424 -2.1276
  167SAPE   C2418825   6.972   3.927   6.910  0.4021  0.1142 -0.7952
  167SAPE   H4R18826   6.879   3.874   6.881 -0.5261  0.8941  0.6433
  167SAPE   H4S18827   6.939   4.026   6.950 -0.7964 -0.4598 -0.3287
  167SAPE   C2518828   7.042   3.846   7.017  0.2243 -0.1438 -0.2990
  167SAPE   H5R18829   7.075   3.746   6.987  2.6032  1.1619 -2.1598
  167SAPE   C2618830   7.064   3.880   7.146  0.1858  0.9068  0.4621
  167SAPE   H6R18831   7.101   3.801   7.213 -2.2162 -1.4327 -0.8691
  167SAPE   C2718832   7.031   4.011   7.205 -0.0991  0.0110  0.2475
  167SAPE   H7R18833   6.952   3.999   7.283 -0.8789  0.0810 -0.5309
  167SAPE   H7S18834   7.002   4.084   7.127 -2.7100 -0.8776  0.3029
  167SAPE   C2818835   7.163   4.054   7.269 -0.1653 -0.8528 -0.2606
  167SAPE   H8R18836   7.243   4.072   7.196  0.7097 -0.6537  0.7271
  167SAPE   C2918837   7.193   4.063   7.397  1.0281 -0.3749  0.1002
  167SAPE   H9R18838   7.292   4.095   7.435  1.2943 -0.8202 -0.2226
  167SAPE  C21018839   7.106   4.023   7.516  0.4519 -0.4712  0.5779
  167SAPE  H10R18840   7.001   3.999   7.490  0.5241 -0.8685  0.6479
  167SAPE  H10S18841   7.081   4.116   7.571  0.1142 -0.7450  0.8879
  167SAPE  C21118842   7.159   3.919   7.615  0.3636 -0.4828 -0.8719
  167SAPE  H11R18843   7.155   3.810   7.599  2.3689 -0.8579  1.0128
  167SAPE  C21218844   7.234   3.957   7.721 -0.2442  0.1318  0.6248
  167SAPE  H12R18845   7.273   3.872   7.779 -0.2748 -1.4335 -1.5809
  167SAPE  C21318846   7.278   4.098   7.764 -0.2203 -0.6814  0.1321
  167SAPE  H13R18847   7.245   4.174   7.691 -1.9959 -1.0573  0.5156
  167SAPE  H13S18848   7.387   4.090   7.785 -0.3839 -0.3842  1.1488
  167SAPE  C21418849   7.193   4.116   7.898 -0.0843  0.1941 -0.0869
  167SAPE  H14R18850   7.103   4.170   7.866  0.0461 -0.9977 -2.5983
  167SAPE  C21518851   7.209   4.079   8.027 -0.4760  0.3169  0.2087
  167SAPE  H15R18852   7.132   4.115   8.097  0.1094  1.6741  0.1788
  167SAPE  C21618853   7.317   3.993   8.085 -0.6165  0.0219  0.0987
  167SAPE  H16R18854   7.362   4.056   8.164 -0.4042  1.7940 -1.3855
  167SAPE  H16S18855   7.393   3.968   8.008 -1.3901  0.4838 -0.8324
  167SAPE  C21718856   7.278   3.844   8.125 -0.8716 -0.6089 -0.0196
  167SAPE  H17R18857   7.275   3.775   8.038 -0.0951 -0.6278 -0.0349
  167SAPE  H17S18858   7.174   3.857   8.162 -0.4298 -2.6980  2.0272
  167SAPE  C21818859   7.360   3.788   8.236  0.7945 -0.8005  0.1373
  167SAPE  H18R18860   7.319   3.694   8.280 -1.9877  0.9621  1.5192
  167SAPE  H18S18861   7.363   3.866   8.316 -1.8327  2.0321 -2.3718
  167SAPE  C21918862   7.496   3.743   8.185 -0.2736  0.7039 -0.1045
  167SAPE  H19R18863   7.546   3.837   8.156 -0.4492  1.3988  1.7480
  167SAPE  H19S18864   7.485   3.668   8.103 -1.1784 -1.1503  1.6568
  167SAPE  C22018865   7.577   3.665   8.292  0.2861  0.3323 -0.0499
  167SAPE  H20R18866   7.619   3.736   8.366 -1.9773 -0.4942  2.0922
  167SAPE  H20S18867   7.663   3.619   8.238 -0.0656  1.8940 -2.0023
  167SAPE  H20T18868   7.516   3.587   8.342  0.3457 -0.0994 -0.6429
  167SAPE   C3318869   6.810   3.521   6.899 -0.1464  0.1935  0.3301
  167SAPE   H3X18870   6.706   3.555   6.880  0.4240  1.0183 -1.4461
  167SAPE   H3Y18871   6.875   3.602   6.860 -0.5987  0.0793 -0.6719
  167SAPE   C3418872   6.835   3.511   7.054 -0.0620  0.6350  0.2585
  167SAPE   H4X18873   6.944   3.515   7.073 -0.0727  0.3238  0.3850
  167SAPE   H4Y18874   6.808   3.408   7.087  1.5387  0.5949  1.4511
  167SAPE   C3518875   6.761   3.615   7.127  0.2688 -0.3182  0.5416
  167SAPE   H5X18876   6.667   3.626   7.069  0.3854  1.4891  0.6565
  167SAPE   H5Y18877   6.812   3.714   7.127  0.2851 -0.2829 -1.9628
  167SAPE   C3618878   6.708   3.568   7.263 -0.2597 -0.2126 -0.2616
  167SAPE   H6X18879   6.787   3.498   7.298  0.4062 -0.6802 -2.5943
  167SAPE   H6Y18880   6.620   3.501   7.259 -0.2460 -0.6246  4.1959
  167SAPE   C3718881   6.688   3.681   7.365 -0.7078 -0.2929 -1.1003
  167SAPE   H7X18882   6.595   3.737   7.340  0.6629  2.4037 -0.3956
  167SAPE   H7Y18883   6.772   3.752   7.350 -0.1742 -0.3538  1.4438
  167SAPE   C3818884   6.686   3.620   7.511 -0.7617  0.5601  0.0977
  167SAPE   H8X18885   6.783   3.567   7.522 -0.4807  0.5980 -2.0345
  167SAPE   H8Y18886   6.602   3.548   7.528 -1.7174  1.9580  1.4954
  167SAPE   C3918887   6.678   3.726   7.624 -0.0958 -0.2022  0.5557
  167SAPE   H9X18888   6.663   3.662   7.713  1.5938 -0.8303  0.4054
  167SAPE   H9Y18889   6.587   3.788   7.610  0.4168 -0.0417 -2.2770
  167SAPE  C31018890   6.807   3.807   7.639 -0.5075  0.1020  0.6592
  167SAPE  H10X18891   6.825   3.849   7.538  0.9414  1.4639  1.4766
  167SAPE  H10Y18892   6.894   3.747   7.673 -0.4607 -0.0582  0.2623
  167SAPE  C31118893   6.773   3.921   7.734  0.6795 -0.0731  0.1562
  167SAPE  H11X18894   6.674   3.962   7.704  0.7548 -0.9756 -1.3461
  167SAPE  H11Y18895   6.843   4.005   7.714 -1.6356  2.2911  1.5991
  167SAPE  C31218896   6.782   3.881   7.883 -0.7413 -0.1467  0.1501
  167SAPE  H12X18897   6.711   3.798   7.903 -2.3580  1.1942  0.0245
  167SAPE  H12Y18898   6.748   3.962   7.950 -1.9407 -0.5135  0.0076
  167SAPE  C31318899   6.917   3.829   7.930 -0.7585 -0.2844 -0.5628
  167SAPE  H13X18900   6.989   3.912   7.945  0.5990 -1.5199 -0.2276
  167SAPE  H13Y18901   6.984   3.771   7.864  1.2562  1.0151  0.3110
  167SAPE  C31418902   6.912   3.752   8.064 -0.7077 -0.9036  0.8923
  167SAPE  H14X18903   7.003   3.691   8.083 -0.5979 -0.3240  2.3212
  167SAPE  H14Y18904   6.828   3.680   8.054 -1.1280 -0.1263 -1.3103
  167SAPE  C31518905   6.880   3.836   8.187  1.0288  0.6008 -0.5377
  167SAPE  H15X18906   6.792   3.897   8.159  0.4219  1.0142  2.1218
  167SAPE  H15Y18907   6.967   3.901   8.210  1.1173 -0.0633  1.0659
  167SAPE  C31618908   6.826   3.758   8.312  0.2391 -0.0471  0.5522
  167SAPE  H16X18909   6.897   3.675   8.333  0.9460  0.5296  0.4730
  167SAPE  H16Y18910   6.733   3.710   8.274  1.7122 -1.2582 -1.6420
  167SAPE  C31718911   6.793   3.848   8.426  0.1244  0.2998 -0.5266
  167SAPE  H17X18912   6.888   3.885   8.471 -0.9078  2.2848  0.0944
  167SAPE  H17Y18913   6.755   3.788   8.511 -0.1356  1.1776 -0.0142
  167SAPE  C31818914   6.712   3.979   8.406  0.2685  0.6478 -0.0764
  167SAPE  H18X18915   6.729   4.049   8.490 -0.7383 -0.3171  0.9523
  167SAPE  H18Y18916   6.604   3.969   8.382  0.4650  0.6995 -0.9882
  167SAPE  H18Z18917   6.760   4.037   8.324  1.0578  2.8213  1.8665
  168SAPE     N18918   1.193   5.017   6.522  0.3141  0.2923  0.4969
  168SAPE   HN118919   1.093   5.040   6.539  0.7079  3.8704 -1.4804
  168SAPE   HN218920   1.194   4.973   6.428  0.4735  3.3951 -1.0389
  168SAPE   HN318921   1.222   4.941   6.587  1.2877 -0.2409 -0.5662
  168SAPE   C1218922   1.278   5.139   6.516  0.2245  0.1949  0.5824
  168SAPE  H12A18923   1.227   5.213   6.581  0.6505  0.7481  0.2916
  168SAPE  H12B18924   1.260   5.186   6.417  0.9201 -2.4627 -0.8693
  168SAPE   C1118925   1.425   5.118   6.548  0.1281  0.2060 -0.0875
  168SAPE  H11A18926   1.444   5.136   6.656  0.9648 -0.0725 -0.1905
  168SAPE  H11B18927   1.470   5.207   6.499  0.5421  0.2130  0.3042
  168SAPE     P18928   1.616   4.980   6.439 -0.0085  0.0439 -0.5012
  168SAPE   O1318929   1.660   4.837   6.441  0.2616  0.0841  0.2889
  168SAPE   O1418930   1.609   5.034   6.299 -0.0998  0.1554 -0.4688
  168SAPE   O1218931   1.469   4.992   6.497 -0.5349 -0.0460 -0.5312
  168SAPE   O1118932   1.707   5.075   6.524  0.6493  0.1847  0.8728
  168SAPE    C118933   1.795   5.019   6.622 -0.1074 -0.4730 -0.2074
  168SAPE    HA18934   1.744   4.934   6.672 -1.8820  0.3516 -0.5547
  168SAPE    HB18935   1.884   4.974   6.573  0.4187  0.8974 -0.5562
  168SAPE    C218936   1.846   5.124   6.719 -0.2724  0.8960  0.1963
  168SAPE    HS18937   1.955   5.111   6.731 -0.1042  0.8497 -1.3630
  168SAPE   O2118938   1.770   5.111   6.845 -0.1360  0.0262  0.3066
  168SAPE   C2118939   1.838   5.119   6.960 -0.0057  0.2927  0.9600
  168SAPE   O2218940   1.962   5.123   6.969 -0.3174  0.1450  0.1755
  168SAPE   C2218941   1.739   5.142   7.076  0.6464 -0.1893 -0.4307
  168SAPE   H2R18942   1.641   5.182   7.042  0.4417  1.2169  1.7522
  168SAPE   H2S18943   1.734   5.047   7.132  1.9227  1.7354  3.0776
  168SAPE    C318944   1.825   5.261   6.657  0.2853  0.3253 -0.3254
  168SAPE    HX18945   1.718   5.271   6.628  0.1390 -1.4569 -0.4515
  168SAPE    HY18946   1.893   5.274   6.571  1.8919 -0.0617  0.8532
  168SAPE   O3118947   1.837   5.368   6.755  0.8716 -0.5696  0.5915
  168SAPE   C3118948   1.959   5.396   6.780 -0.4426 -0.7274 -0.3010
  168SAPE   O3218949   2.058   5.371   6.708  0.1735  0.5073  0.1538
  168SAPE   C3218950   1.958   5.482   6.906 -0.1784  0.2396  0.5519
  168SAPE   H2X18951   1.914   5.417   6.984 -1.7309  1.6636  0.9067
  168SAPE   H2Y18952   1.886   5.564   6.881  1.6718  1.1200 -2.1327
  168SAPE   C2318953   1.787   5.246   7.179 -0.0527 -0.1829  0.2351
  168SAPE   H3R18954   1.701   5.315   7.197  1.2525  2.0011 -1.6518
  168SAPE   H3S18955   1.870   5.313   7.150 -0.7511  0.5662 -0.0620
  168SAPE   C2418956   1.826   5.175   7.311  0.3408 -0.4356  0.1446
  168SAPE   H4R18957   1.926   5.129   7.298  1.3859  1.9309 -0.5520
  168SAPE   H4S18958   1.752   5.095   7.333  0.8163 -1.1479 -0.8294
  168SAPE   C2518959   1.832   5.275   7.430 -0.0885  0.2394 -0.0701
  168SAPE   H5R18960   1.891   5.367   7.417  0.1225 -0.1661 -2.1308
  168SAPE   C2618961   1.781   5.253   7.553  0.3815  0.3002 -0.1256
  168SAPE   H6R18962   1.790   5.326   7.635 -1.1298  1.3402 -0.8641
  168SAPE   C2718963   1.702   5.135   7.598 -0.1306  0.3323  0.2137
  168SAPE   H7R18964   1.729   5.097   7.698  1.8073  0.9540 -0.0499
  168SAPE   H7S18965   1.731   5.047   7.537 -0.0917 -0.4770  1.3927
  168SAPE   C2818966   1.555   5.158   7.578 -0.9477  0.1205 -0.0373
  168SAPE   H8R18967   1.519   5.139   7.475 -2.4676  1.3001  0.2530
  168SAPE   C2918968   1.463   5.174   7.666  0.1172  0.2456 -0.8104
  168SAPE   H9R18969   1.360   5.190   7.633 -1.2228 -3.6355  1.1966
  168SAPE  C21018970   1.490   5.176   7.821  0.6954 -0.0819  0.3771
  168SAPE  H10R18971   1.427   5.251   7.873  0.0590  0.6423 -1.4040
  168SAPE  H10S18972   1.589   5.225   7.837  1.1389 -0.8053 -0.0976
  168SAPE  C21118973   1.497   5.041   7.892  0.3156  0.3147  0.0444
  168SAPE  H11R18974   1.454   4.957   7.835  3.2960 -0.2106 -1.5585
  168SAPE  C21218975   1.542   5.016   8.016 -0.6755  0.3637  0.1002
  168SAPE  H12R18976   1.534   4.918   8.064  3.0520 -0.4894 -0.8620
  168SAPE  C21318977   1.602   5.115   8.109  0.3861 -0.9292 -1.1098
  168SAPE  H13R18978   1.533   5.125   8.196  2.2771  0.6373  0.2394
  168SAPE  H13S18979   1.589   5.214   8.062 -0.3373 -0.4066  0.1825
  168SAPE  C21418980   1.747   5.092   8.149  0.9511 -0.0729  0.2386
  168SAPE  H14R18981   1.824   5.068   8.074  2.0206 -0.7044  1.4991
  168SAPE  C21518982   1.790   5.105   8.275  0.1677 -0.1730  0.8168
  168SAPE  H15R18983   1.896   5.085   8.295  0.1742 -2.0640 -0.9190
  168SAPE  C21618984   1.708   5.135   8.398 -0.8077  0.8970  0.0798
  168SAPE  H16R18985   1.769   5.112   8.488 -0.1201  1.1211 -0.3222
  168SAPE  H16S18986   1.610   5.082   8.396 -0.4274  0.2559 -2.1060
  168SAPE  C21718987   1.679   5.287   8.413 -0.3624  0.0995  0.0923
  168SAPE  H17R18988   1.636   5.331   8.320 -0.7272 -1.8100 -0.6763
  168SAPE  H17S18989   1.771   5.345   8.435  1.6549 -3.1656  0.6499
  168SAPE  C21818990   1.577   5.308   8.531 -0.3940  0.1326 -1.1313
  168SAPE  H18R18991   1.556   5.416   8.544  1.0990  0.3336 -0.2141
  168SAPE  H18S18992   1.631   5.277   8.623 -4.0079 -0.3413  0.9241
  168SAPE  C21918993   1.450   5.227   8.514  1.0090  0.6477  0.7219
  168SAPE  H19R18994   1.455   5.123   8.550 -1.4066  1.6007  4.0381
  168SAPE  H19S18995   1.428   5.222   8.405  0.7299 -0.1532  0.8162
  168SAPE  C22018996   1.332   5.291   8.582  0.5292 -0.3520  0.3038
  168SAPE  H20R18997   1.341   5.310   8.691 -1.3754  1.0743  0.2330
  168SAPE  H20S18998   1.247   5.221   8.572 -0.8364  1.2954  0.1901
  168SAPE  H20T18999   1.328   5.394   8.541  0.6014  0.5041  2.3720
  168SAPE   C3319000   2.095   5.521   6.960 -0.8409 -0.3133  0.1172
  168SAPE   H3X19001   2.128   5.617   6.915  0.1153  1.3024  4.0347
  168SAPE   H3Y19002   2.158   5.437   6.924  1.0314  1.5819 -1.1067
  168SAPE   C3419003   2.107   5.534   7.104 -0.2499  0.0372  0.5088
  168SAPE   H4X19004   2.210   5.572   7.120  0.8862 -2.4071 -0.6471
  168SAPE   H4Y19005   2.091   5.442   7.164 -0.5902 -0.3407 -0.1530
  168SAPE   C3519006   2.018   5.639   7.168  0.2180  0.1183  0.3119
  168SAPE   H5X19007   1.914   5.634   7.130  0.0983 -0.3261  0.6916
  168SAPE   H5Y19008   2.060   5.737   7.137 -0.5404  0.8972  1.6896
  168SAPE   C3619009   2.015   5.629   7.322 -0.6332 -0.1758 -0.3952
  168SAPE   H6X19010   1.963   5.539   7.360 -2.0376 -0.9338 -3.9363
  168SAPE   H6Y19011   1.953   5.720   7.342  1.0486  1.6393 -3.0494
  168SAPE   C3719012   2.149   5.633   7.395 -0.6748 -0.2884 -0.4151
  168SAPE   H7X19013   2.218   5.713   7.360  1.4981 -1.5590  0.8654
  168SAPE   H7Y19014   2.201   5.538   7.369  1.0844  0.8427 -1.1519
  168SAPE   C3819015   2.143   5.633   7.540  0.4476  0.2315 -0.1030
  168SAPE   H8X19016   2.246   5.654   7.578 -1.0219  3.6686  2.1801
  168SAPE   H8Y19017   2.106   5.537   7.583 -0.9751  0.6874 -0.3044
  168SAPE   C3919018   2.055   5.743   7.605 -0.3053 -0.2955 -0.1976
  168SAPE   H9X19019   1.954   5.727   7.562  0.0475  0.4933 -1.3289
  168SAPE   H9Y19020   2.087   5.847   7.584 -3.4712  0.7970  0.0615
  168SAPE  C31019021   2.028   5.719   7.753 -1.2021 -0.4372  0.1384
  168SAPE  H10X19022   2.049   5.613   7.779  1.3345 -0.2109 -0.8525
  168SAPE  H10Y19023   1.921   5.741   7.774 -1.3727  1.5740 -2.5590
  168SAPE  C31119024   2.107   5.819   7.834  0.0681  0.2031  0.1733
  168SAPE  H11X19025   2.087   5.792   7.940 -0.9525  0.0364 -0.0551
  168SAPE  H11Y19026   2.082   5.925   7.810  0.4029  0.1810 -0.2814
  168SAPE  C31219027   2.258   5.815   7.822  0.1023 -0.3485 -0.4985
  168SAPE  H12X19028   2.293   5.896   7.889  1.0176 -1.4639  0.3995
  168SAPE  H12Y19029   2.297   5.844   7.723 -0.1191  0.0661 -0.4631
  168SAPE  C31319030   2.330   5.681   7.854 -0.7730  0.4702 -0.9239
  168SAPE  H13X19031   2.287   5.600   7.791 -2.7878 -0.0687  1.0712
  168SAPE  H13Y19032   2.300   5.653   7.957  2.3071 -0.7946 -0.3093
  168SAPE  C31419033   2.480   5.697   7.854  0.0972  0.9136 -0.0436
  168SAPE  H14X19034   2.513   5.759   7.940 -0.3149 -0.1459  0.8859
  168SAPE  H14Y19035   2.508   5.748   7.759 -2.1115 -2.1742 -2.4719
  168SAPE  C31519036   2.549   5.564   7.852  0.0722 -0.3713  0.3630
  168SAPE  H15X19037   2.544   5.519   7.750  3.4495 -1.5132  0.6336
  168SAPE  H15Y19038   2.496   5.491   7.917 -3.3294  1.4456 -0.2342
  168SAPE  C31619039   2.702   5.567   7.874 -0.4191 -0.5183  0.5424
  168SAPE  H16X19040   2.703   5.634   7.963 -2.8405  1.9086 -1.1873
  168SAPE  H16Y19041   2.749   5.629   7.794 -0.6725 -1.5979 -0.4583
  168SAPE  C31719042   2.758   5.426   7.892 -0.0338 -0.3041 -0.8269
  168SAPE  H17X19043   2.716   5.390   7.988 -2.1438  0.4308 -1.4465
  168SAPE  H17Y19044   2.867   5.442   7.905 -0.3653  2.8588 -1.5451
  168SAPE  C31819045   2.730   5.320   7.788 -0.6444  0.0745  0.4677
  168SAPE  H18X19046   2.802   5.236   7.802 -1.4068 -1.0968 -2.3709
  168SAPE  H18Y19047   2.742   5.365   7.687 -1.9698  0.8184  0.6400
  168SAPE  H18Z19048   2.627   5.282   7.801 -0.1155 -1.0853  1.4497
  169SAPE     N19049   0.956   0.725   6.311 -0.1185  0.0984  0.3094
  169SAPE   HN119050   0.956   0.629   6.352  2.6501 -0.6483 -1.3021
  169SAPE   HN219051   0.890   0.726   6.231 -0.3904 -1.7807  0.4904
  169SAPE   HN319052   1.055   0.743   6.286 -0.5504  1.0845 -0.7144
  169SAPE   C1219053   0.904   0.806   6.422  0.6113 -0.1629  0.2659
  169SAPE  H12A19054   0.891   0.910   6.385  1.1895 -0.5015 -0.9155
  169SAPE  H12B19055   0.976   0.810   6.507 -0.5394  0.3772  1.2323
  169SAPE   C1119056   0.767   0.749   6.476  0.4922  0.0556 -1.1030
  169SAPE  H11A19057   0.734   0.804   6.567  2.1512  0.6057 -0.8235
  169SAPE  H11B19058   0.785   0.647   6.514  1.5383  1.4067  2.2018
  169SAPE     P19059   0.595   0.613   6.313 -0.0956 -0.4581 -0.2832
  169SAPE   O1319060   0.500   0.659   6.206  0.3128  0.0369 -0.5231
  169SAPE   O1419061   0.707   0.521   6.288  0.1955  0.7131  0.1381
  169SAPE   O1219062   0.663   0.746   6.373 -0.1514  0.3004 -0.0695
  169SAPE   O1119063   0.515   0.560   6.432 -0.2083  0.0715  0.3409
  169SAPE    C119064   0.389   0.618   6.476  0.0830 -0.1367  0.0727
  169SAPE    HA19065   0.368   0.707   6.413  2.4243 -0.7280 -1.6256
  169SAPE    HB19066   0.309   0.554   6.434  0.8011 -0.2280 -1.1832
  169SAPE    C219067   0.383   0.643   6.629  0.2325 -0.4334 -0.6159
  169SAPE    HS19068   0.280   0.676   6.653  0.5548 -0.1678  0.4541
  169SAPE   O2119069   0.469   0.752   6.669 -0.3231 -0.2973  0.1263
  169SAPE   C2119070   0.420   0.875   6.647 -0.5181  0.0749  0.1819
  169SAPE   O2219071   0.321   0.905   6.585 -0.2786 -0.0408  0.0929
  169SAPE   C2219072   0.517   0.973   6.717  0.7330 -0.4863  0.2734
  169SAPE   H2R19073   0.514   0.959   6.828 -0.0812 -1.3038  0.1523
  169SAPE   H2S19074   0.617   0.956   6.673  0.6081 -0.8738  0.1418
  169SAPE    C319075   0.419   0.519   6.713  0.7836 -0.0123  0.2928
  169SAPE    HX19076   0.522   0.480   6.698  0.6338  0.3647 -1.9735
  169SAPE    HY19077   0.352   0.440   6.672  0.9772 -0.4479  0.8118
  169SAPE   O3119078   0.390   0.538   6.851 -0.1927  0.1825 -0.3323
  169SAPE   C3119079   0.498   0.565   6.927 -0.4970 -0.3232 -0.8265
  169SAPE   O3219080   0.609   0.589   6.882 -0.2956  0.4659 -0.0022
  169SAPE   C3219081   0.468   0.549   7.073 -0.4039  0.1524 -0.8195
  169SAPE   H2X19082   0.559   0.567   7.134 -1.4137  1.0796  0.4339
  169SAPE   H2Y19083   0.436   0.445   7.097  0.6424  0.0071  0.0061
  169SAPE   C2319084   0.480   1.123   6.689  0.4346 -0.3097 -0.5676
  169SAPE   H3R19085   0.396   1.159   6.753  1.0707 -1.5469  0.9978
  169SAPE   H3S19086   0.451   1.138   6.583  0.9610  1.8783 -0.4366
  169SAPE   C2419087   0.603   1.214   6.732 -0.3582  0.8159 -0.0149
  169SAPE   H4R19088   0.597   1.304   6.667 -0.1096  0.4932 -0.4771
  169SAPE   H4S19089   0.695   1.156   6.712 -1.1052 -1.1109  1.9017
  169SAPE   C2519090   0.606   1.253   6.878  0.4669  0.3963  0.5241
  169SAPE   H5R19091   0.545   1.342   6.900  0.8696  0.4335  1.5211
  169SAPE   C2619092   0.677   1.203   6.981 -0.4973  0.3065  0.0375
  169SAPE   H6R19093   0.665   1.241   7.083  1.3443 -0.4515  0.5595
  169SAPE   C2719094   0.774   1.088   6.979  0.6393  0.8279 -0.6366
  169SAPE   H7R19095   0.855   1.118   7.050  1.0448  1.0065 -1.1701
  169SAPE   H7S19096   0.815   1.071   6.877  0.1472 -0.9608 -0.5659
  169SAPE   C2819097   0.716   0.949   7.010  0.3868  0.3904 -0.3962
  169SAPE   H8R19098   0.706   0.885   6.921  0.1202  0.2203 -0.2450
  169SAPE   C2919099   0.693   0.890   7.129 -0.4432  0.5346 -0.3834
  169SAPE   H9R19100   0.658   0.786   7.139  2.5653 -0.5426 -0.6852
  169SAPE  C21019101   0.732   0.948   7.262 -1.2965  1.3130  0.8132
  169SAPE  H10R19102   0.650   0.947   7.336 -0.4501 -0.7225  1.7633
  169SAPE  H10S19103   0.765   1.054   7.257 -0.7294  1.1910  1.8846
  169SAPE  C21119104   0.855   0.873   7.327 -0.4077 -0.4868 -0.2097
  169SAPE  H11R19105   0.942   0.863   7.260 -1.2311 -0.3148 -1.3229
  169SAPE  C21219106   0.868   0.833   7.456  0.8211  0.0482  0.2304
  169SAPE  H12R19107   0.958   0.780   7.491  1.5456  1.2363  0.2185
  169SAPE  C21319108   0.765   0.856   7.563 -0.4577 -0.0516 -0.1056
  169SAPE  H13R19109   0.786   0.775   7.636 -1.6264  0.5677  0.9397
  169SAPE  H13S19110   0.666   0.825   7.522 -0.4848 -0.4287  0.2426
  169SAPE  C21419111   0.753   0.982   7.642  1.7685 -0.0838 -0.3916
  169SAPE  H14R19112   0.693   1.054   7.585 -0.2426 -1.4061 -0.0053
  169SAPE  C21519113   0.781   1.005   7.770 -0.2610 -0.4761  0.4878
  169SAPE  H15R19114   0.757   1.102   7.815 -0.7318  0.5961 -1.9969
  169SAPE  C21619115   0.839   0.908   7.877 -0.2077 -0.4822 -0.2721
  169SAPE  H16R19116   0.910   0.964   7.943  1.6649  0.3425 -2.8848
  169SAPE  H16S19117   0.899   0.841   7.812  2.2666  1.4640 -0.0609
  169SAPE  C21719118   0.739   0.825   7.954  0.0413 -0.0270  0.0799
  169SAPE  H17R19119   0.672   0.768   7.886  0.1392 -1.2064  0.9539
  169SAPE  H17S19120   0.681   0.879   8.032  0.6691 -2.5145  2.3484
  169SAPE  C21819121   0.815   0.721   8.040  0.3082 -0.0464  0.1759
  169SAPE  H18R19122   0.898   0.762   8.100 -0.0461  1.4235 -0.3112
  169SAPE  H18S19123   0.852   0.645   7.968 -0.5199  1.7184 -2.1677
  169SAPE  C21919124   0.724   0.639   8.131 -0.3818  0.8752 -0.1134
  169SAPE  H19R19125   0.652   0.588   8.063  1.1316  0.7653 -1.6660
  169SAPE  H19S19126   0.672   0.703   8.206  1.0616  0.1133  1.5562
  169SAPE  C22019127   0.788   0.535   8.222  0.1085  0.0655 -0.0442
  169SAPE  H20R19128   0.715   0.489   8.292 -2.8994  3.8891 -0.5567
  169SAPE  H20S19129   0.870   0.590   8.274 -0.1428 -0.5524  1.0311
  169SAPE  H20T19130   0.821   0.444   8.167  0.6342  1.2382 -1.6809
  169SAPE   C3319131   0.362   0.646   7.123  0.2534  0.3904 -0.4109
  169SAPE   H3X19132   0.273   0.647   7.055  0.1484  4.4782 -0.3107
  169SAPE   H3Y19133   0.398   0.751   7.124 -0.1797  0.5528 -1.1530
  169SAPE   C3419134   0.299   0.613   7.260 -0.1267 -0.2562 -0.0202
  169SAPE   H4X19135   0.287   0.503   7.269 -0.1876 -0.3191 -0.8596
  169SAPE   H4Y19136   0.202   0.663   7.281 -0.4585  0.3174 -2.7121
  169SAPE   C3519137   0.402   0.648   7.369  0.2217  0.2005  0.3800
  169SAPE   H5X19138   0.438   0.753   7.359 -1.5544  0.9069  1.1823
  169SAPE   H5Y19139   0.492   0.584   7.359 -0.6527 -1.8559  4.4986
  169SAPE   C3619140   0.348   0.631   7.517  0.1853  0.9784 -0.1107
  169SAPE   H6X19141   0.262   0.560   7.515  1.3285 -0.3976 -1.4838
  169SAPE   H6Y19142   0.308   0.729   7.550 -1.1250  0.3956  0.0583
  169SAPE   C3719143   0.453   0.584   7.619 -0.4987  0.1840 -0.1028
  169SAPE   H7X19144   0.532   0.659   7.641 -0.3789 -0.1867  0.7539
  169SAPE   H7Y19145   0.505   0.498   7.572  0.6835  0.0110  1.4687
  169SAPE   C3819146   0.390   0.551   7.752  0.4524 -0.1169  0.1997
  169SAPE   H8X19147   0.284   0.524   7.730 -0.0482  0.7419  1.5306
  169SAPE   H8Y19148   0.390   0.639   7.819  0.3885 -2.9755  4.0838
  169SAPE   C3919149   0.462   0.444   7.826  0.4943 -0.3714 -0.2899
  169SAPE   H9X19150   0.557   0.489   7.861 -0.4630  0.9753  0.5967
  169SAPE   H9Y19151   0.493   0.363   7.755  3.1969  1.0960 -0.8487
  169SAPE  C31019152   0.398   0.399   7.956 -0.1444 -0.3374 -0.1668
  169SAPE  H10X19153   0.302   0.347   7.938  0.6347 -1.2528 -1.8038
  169SAPE  H10Y19154   0.365   0.488   8.013 -0.8050 -0.3987 -0.4515
  169SAPE  C31119155   0.501   0.319   8.049 -0.2792  0.7320 -0.2846
  169SAPE  H11X19156   0.585   0.380   8.086  1.9501 -2.3909 -0.0257
  169SAPE  H11Y19157   0.563   0.254   7.984 -0.5277 -0.8883  1.0628
  169SAPE  C31219158   0.435   0.239   8.163 -0.1964 -0.3001 -0.2734
  169SAPE  H12X19159   0.323   0.236   8.165 -0.1962 -0.3528  3.3164
  169SAPE  H12Y19160   0.458   0.305   8.249 -2.2991 -1.2471  1.0713
  169SAPE  C31319161   0.479   0.098   8.182  0.6697  0.0849 -0.1098
  169SAPE  H13X19162   0.589   0.093   8.202  0.3554  0.6964  1.8969
  169SAPE  H13Y19163   0.455   0.042   8.089 -1.2226  2.7310 -1.2682
  169SAPE  C31419164   0.399   0.030   8.293 -0.0856  0.3278 -0.3438
  169SAPE  H14X19165   0.297   0.015   8.251 -1.7258  0.4926  3.3034
  169SAPE  H14Y19166   0.383   0.097   8.381 -1.6614  1.3036 -1.3543
  169SAPE  C31519167   0.464  -0.103   8.344  0.8630  0.0792  0.3033
  169SAPE  H15X19168   0.495  -0.171   8.261 -1.4934  0.2720 -0.7593
  169SAPE  H15Y19169   0.379  -0.148   8.399 -1.0842 -0.4309 -2.9630
  169SAPE  C31619170   0.569  -0.069   8.456 -0.1432  0.2638 -0.0896
  169SAPE  H16X19171   0.521  -0.026   8.546 -0.5962  1.2104 -0.7741
  169SAPE  H16Y19172   0.637   0.003   8.407  0.8811 -0.1431  0.7194
  169SAPE  C31719173   0.654  -0.185   8.499 -0.0713 -0.2520  0.6978
  169SAPE  H17X19174   0.594  -0.249   8.568 -0.7058 -0.2424  0.1577
  169SAPE  H17Y19175   0.726  -0.138   8.569  1.0119  0.4288 -0.8724
  169SAPE  C31819176   0.711  -0.264   8.387  0.2641 -0.0671 -0.1356
  169SAPE  H18X19177   0.759  -0.200   8.310 -0.9538  2.4212  1.1341
  169SAPE  H18Y19178   0.633  -0.325   8.337  0.0080  0.8308 -0.8490
  169SAPE  H18Z19179   0.788  -0.332   8.429 -0.8749 -0.4344  1.3965
  170SAPE     N19180   1.781   4.074   6.510 -0.2866  0.1498  0.1135
  170SAPE   HN119181   1.875   4.089   6.552 -0.6015  2.6999  0.0178
  170SAPE   HN219182   1.720   4.058   6.592  1.4889  2.2576  1.9156
  170SAPE   HN319183   1.792   3.988   6.454 -0.5332 -0.4852  1.0321
  170SAPE   C1219184   1.729   4.191   6.426 -0.5207 -0.3689 -0.2111
  170SAPE  H12A19185   1.804   4.227   6.352  0.2257  0.3461  0.8845
  170SAPE  H12B19186   1.718   4.271   6.503 -0.2487 -1.0193  0.4990
  170SAPE   C1119187   1.599   4.146   6.358 -0.2248 -0.2011 -0.5711
  170SAPE  H11A19188   1.532   4.109   6.439 -0.9049  1.9288 -0.1136
  170SAPE  H11B19189   1.623   4.064   6.288  2.4286  0.8566 -0.9383
  170SAPE     P19190   1.462   4.375   6.351  0.0494  0.2346  0.3724
  170SAPE   O1319191   1.558   4.489   6.364  0.3443 -0.4891  0.2964
  170SAPE   O1419192   1.335   4.395   6.283 -0.1306  0.7344  1.2898
  170SAPE   O1219193   1.539   4.253   6.284 -0.2748  0.8693  0.0064
  170SAPE   O1119194   1.433   4.331   6.499 -0.2630 -0.6964 -0.1033
  170SAPE    C119195   1.295   4.333   6.540 -0.8893  0.0180  0.2136
  170SAPE    HA19196   1.235   4.271   6.470  0.1992  1.4829 -2.1052
  170SAPE    HB19197   1.302   4.278   6.636  0.4849  1.4938  0.9750
  170SAPE    C219198   1.229   4.472   6.572  1.0480 -0.3694  0.0284
  170SAPE    HS19199   1.224   4.528   6.476 -0.2459  1.0771  0.9150
  170SAPE   O2119200   1.319   4.540   6.662 -0.5177  0.6243 -0.0826
  170SAPE   C2119201   1.303   4.673   6.674  0.1362 -0.1009 -0.4060
  170SAPE   O2219202   1.230   4.740   6.610 -0.6363 -0.2579  0.1683
  170SAPE   C2219203   1.415   4.727   6.765 -0.6601  0.0840 -0.3972
  170SAPE   H2R19204   1.469   4.644   6.817 -1.4360  1.0558  2.0566
  170SAPE   H2S19205   1.489   4.781   6.704 -1.1236  1.1644 -0.0163
  170SAPE    C319206   1.083   4.455   6.620  0.5937  0.5837 -0.5197
  170SAPE    HX19207   1.024   4.429   6.529 -3.2399 -1.0940  2.3184
  170SAPE    HY19208   1.044   4.552   6.658 -0.9547 -0.6472  1.1291
  170SAPE   O3119209   1.071   4.348   6.725  0.0100  0.4986 -0.2244
  170SAPE   C3119210   1.071   4.404   6.841 -0.0665  0.4949  0.2369
  170SAPE   O3219211   1.062   4.522   6.869 -0.0610  0.1671 -0.1600
  170SAPE   C3219212   1.071   4.289   6.954 -0.5705 -0.4209  0.4881
  170SAPE   H2X19213   1.163   4.318   7.009 -1.6242  0.3468  1.8785
  170SAPE   H2Y19214   1.096   4.191   6.907 -0.4481 -1.2829  2.3024
  170SAPE   C2319215   1.355   4.823   6.881 -0.1239 -0.4090  0.3004
  170SAPE   H3R19216   1.300   4.757   6.952 -0.2259 -1.1535 -0.4689
  170SAPE   H3S19217   1.281   4.889   6.832  2.8065  0.8988 -2.5552
  170SAPE   C2419218   1.467   4.910   6.936  0.0666 -0.0076  0.0309
  170SAPE   H4R19219   1.503   4.973   6.852  1.0506 -2.1405 -1.1847
  170SAPE   H4S19220   1.555   4.852   6.970 -0.3064 -0.3391  0.4247
  170SAPE   C2519221   1.408   4.984   7.053 -0.2007  0.1433 -0.0381
  170SAPE   H5R19222   1.327   5.052   7.022  0.3094  0.5152 -0.5710
  170SAPE   C2619223   1.444   4.977   7.183 -0.7082  0.2295 -0.8883
  170SAPE   H6R19224   1.365   5.010   7.251  1.3320 -1.5763  2.4644
  170SAPE   C2719225   1.550   4.889   7.245 -0.3404 -0.0975 -0.7392
  170SAPE   H7R19226   1.613   4.944   7.318 -1.3460  0.8960 -0.6073
  170SAPE   H7S19227   1.627   4.855   7.173  1.9256 -0.1363  1.6468
  170SAPE   C2819228   1.485   4.769   7.307 -1.1612 -0.6356  0.4237
  170SAPE   H8R19229   1.415   4.714   7.242  0.7205 -1.8510 -0.6224
  170SAPE   C2919230   1.510   4.715   7.428 -0.1562 -0.3912  0.2927
  170SAPE   H9R19231   1.454   4.623   7.450 -0.1210 -0.9014 -1.6967
  170SAPE  C21019232   1.600   4.768   7.536 -0.7998  0.6251 -0.0222
  170SAPE  H10R19233   1.539   4.781   7.628  0.1354  3.1050  0.2837
  170SAPE  H10S19234   1.641   4.868   7.510  0.4586  0.2319  0.4466
  170SAPE  C21119235   1.721   4.681   7.557 -0.2532  0.5744  0.3780
  170SAPE  H11R19236   1.727   4.600   7.483 -0.4278 -1.4443  2.5328
  170SAPE  C21219237   1.805   4.672   7.667  0.2921  0.2513  0.3625
  170SAPE  H12R19238   1.889   4.602   7.664  0.7972  0.9117 -1.7365
  170SAPE  C21319239   1.788   4.762   7.789  0.1241  0.2844  0.0731
  170SAPE  H13R19240   1.728   4.849   7.755 -1.0101 -0.6885 -0.4514
  170SAPE  H13S19241   1.887   4.805   7.818  0.1484 -0.0820  0.5386
  170SAPE  C21419242   1.722   4.689   7.903 -0.2084 -0.1208 -0.2498
  170SAPE  H14R19243   1.622   4.665   7.865 -0.9320  3.0444 -0.4802
  170SAPE  C21519244   1.771   4.657   8.028 -0.1045 -0.0972  0.0768
  170SAPE  H15R19245   1.725   4.580   8.092  1.7707 -0.8143  0.5960
  170SAPE  C21619246   1.905   4.684   8.087 -0.0205  0.7438 -0.3859
  170SAPE  H16R19247   1.965   4.751   8.022  0.3699  0.5478 -0.2293
  170SAPE  H16S19248   1.960   4.588   8.100  0.8081  1.3654  0.8463
  170SAPE  C21719249   1.886   4.746   8.232 -0.2100  0.1533  0.3454
  170SAPE  H17R19250   1.797   4.811   8.244  0.8971  1.7608  0.0396
  170SAPE  H17S19251   1.977   4.810   8.238  0.5567 -0.9795  0.9056
  170SAPE  C21819252   1.882   4.635   8.347 -0.3763  0.3269  0.0955
  170SAPE  H18R19253   1.983   4.591   8.359  0.7796  2.0136 -2.7358
  170SAPE  H18S19254   1.815   4.551   8.320 -0.2850  0.5248 -0.7949
  170SAPE  C21919255   1.821   4.687   8.483  0.2921  0.7306  0.7021
  170SAPE  H19R19256   1.902   4.756   8.516  0.3373  1.0635 -0.0870
  170SAPE  H19S19257   1.809   4.595   8.544  1.3867 -1.0076 -1.5957
  170SAPE  C22019258   1.680   4.754   8.487 -0.4070  0.6660  1.0323
  170SAPE  H20R19259   1.692   4.841   8.418 -1.7450  1.9612  2.3980
  170SAPE  H20S19260   1.649   4.792   8.587 -0.9007  1.8077  0.4616
  170SAPE  H20T19261   1.617   4.679   8.434  1.4606 -0.0499 -0.2239
  170SAPE   C3319262   0.931   4.270   7.020 -0.1351 -0.0804 -0.1951
  170SAPE   H3X19263   0.961   4.201   7.101 -0.7931 -1.6489 -1.2640
  170SAPE   H3Y19264   0.865   4.235   6.937 -2.0485  0.8391  0.8968
  170SAPE   C3419265   0.876   4.398   7.093  0.0219  0.3731 -0.0037
  170SAPE   H4X19266   0.790   4.378   7.160  0.1722  1.8758  0.6515
  170SAPE   H4Y19267   0.842   4.472   7.017 -2.6902 -0.0579  0.7497
  170SAPE   C3519268   0.972   4.474   7.185  0.2911 -0.1255 -0.0366
  170SAPE   H5X19269   0.927   4.569   7.221 -1.2844 -0.8033 -0.1853
  170SAPE   H5Y19270   1.069   4.495   7.135  0.0857  1.2937  0.1486
  170SAPE   C3619271   1.002   4.387   7.309  0.3820  0.3466 -0.1044
  170SAPE   H6X19272   1.054   4.297   7.270  0.4739  0.9629 -1.4284
  170SAPE   H6Y19273   0.906   4.357   7.358  0.4105  1.4922  0.6520
  170SAPE   C3719274   1.091   4.459   7.413 -0.2902 -0.2060 -0.3710
  170SAPE   H7X19275   1.028   4.533   7.466  0.6858 -0.0669  0.6181
  170SAPE   H7Y19276   1.178   4.501   7.359  0.4411 -0.2210  0.7790
  170SAPE   C3819277   1.156   4.377   7.529 -0.5234  0.1668 -0.4902
  170SAPE   H8X19278   1.234   4.308   7.490 -0.0365 -1.0028  2.4667
  170SAPE   H8Y19279   1.071   4.329   7.580 -0.0236  1.0965  1.2404
  170SAPE   C3919280   1.220   4.474   7.629  0.5972  0.1086 -0.0393
  170SAPE   H9X19281   1.133   4.511   7.687 -0.4887 -1.6282 -0.5305
  170SAPE   H9Y19282   1.248   4.570   7.580 -0.2660 -1.4807 -3.8683
  170SAPE  C31019283   1.331   4.418   7.713  0.2061 -0.1333 -0.5385
  170SAPE  H10X19284   1.411   4.395   7.641 -0.0545 -1.1749 -0.4979
  170SAPE  H10Y19285   1.310   4.319   7.759 -1.2639  0.2143 -0.4305
  170SAPE  C31119286   1.395   4.497   7.828 -0.5767  0.7930 -0.6050
  170SAPE  H11X19287   1.446   4.580   7.774  1.3463 -0.1242 -0.2102
  170SAPE  H11Y19288   1.466   4.434   7.885 -2.7455 -1.2045 -0.0337
  170SAPE  C31219289   1.287   4.554   7.923  0.4460  0.3966 -0.3353
  170SAPE  H12X19290   1.214   4.617   7.867 -0.7219 -3.0137 -2.8395
  170SAPE  H12Y19291   1.337   4.627   7.990 -2.0265  0.6720  1.2792
  170SAPE  C31319292   1.208   4.446   8.004  0.1565 -0.0631 -0.4386
  170SAPE  H13X19293   1.156   4.396   7.920  1.5820 -0.3414 -1.1722
  170SAPE  H13Y19294   1.135   4.486   8.078  1.7918  2.5645 -0.1953
  170SAPE  C31419295   1.292   4.339   8.074 -1.0406 -0.1131  0.3910
  170SAPE  H14X19296   1.368   4.285   8.012 -0.0457 -0.4698  1.9026
  170SAPE  H14Y19297   1.221   4.263   8.111 -2.0580  0.9389  0.6316
  170SAPE  C31519298   1.370   4.396   8.198 -0.6374  0.1433 -0.0547
  170SAPE  H15X19299   1.301   4.442   8.272 -1.5417  0.2422 -0.9428
  170SAPE  H15Y19300   1.443   4.477   8.176 -0.5577  0.7292  2.2628
  170SAPE  C31619301   1.449   4.294   8.279 -0.2926  0.9612  0.0970
  170SAPE  H16X19302   1.521   4.236   8.217 -1.3946 -0.1226 -0.1901
  170SAPE  H16Y19303   1.373   4.221   8.312 -1.4047  1.3782 -1.4719
  170SAPE  C31719304   1.525   4.355   8.394  0.0762 -0.6766  0.4752
  170SAPE  H17X19305   1.453   4.405   8.463 -1.3131 -0.1365 -1.3177
  170SAPE  H17Y19306   1.594   4.433   8.355  0.0443 -0.5360  0.6962
  170SAPE  C31819307   1.609   4.243   8.467  0.0463 -0.4428 -0.6136
  170SAPE  H18X19308   1.687   4.208   8.396  1.9075  2.5816 -0.1411
  170SAPE  H18Y19309   1.549   4.158   8.505  0.4050 -0.8833 -1.0300
  170SAPE  H18Z19310   1.654   4.291   8.556 -1.1832  2.0368 -1.2590
  171SAPE     N19311   3.404   6.216   6.466 -0.4510  0.5382  0.1882
  171SAPE   HN119312   3.339   6.295   6.452 -0.1654  1.0867  1.8484
  171SAPE   HN219313   3.359   6.156   6.538  0.5312 -2.8208 -1.8959
  171SAPE   HN319314   3.489   6.250   6.516 -0.3519 -0.3996  0.6811
  171SAPE   C1219315   3.435   6.137   6.347 -0.4229 -0.0759  0.2273
  171SAPE  H12A19316   3.545   6.118   6.344 -0.5388 -0.8098  0.6064
  171SAPE  H12B19317   3.406   6.189   6.254  0.5627  0.3056  0.1196
  171SAPE   C1119318   3.361   6.005   6.343  0.0230 -0.0308  0.2058
  171SAPE  H11A19319   3.370   5.945   6.436  0.2299 -0.4157 -0.0632
  171SAPE  H11B19320   3.413   5.937   6.271  0.5537  1.3475 -0.7372
  171SAPE     P19321   3.113   5.920   6.337  0.3875 -0.3025 -0.0416
  171SAPE   O1319322   2.982   5.961   6.282 -0.3811 -1.1500  0.5083
  171SAPE   O1419323   3.176   5.794   6.290 -0.1477 -0.4371 -0.3894
  171SAPE   O1219324   3.226   6.033   6.318 -0.4560 -0.1285 -0.1726
  171SAPE   O1119325   3.104   5.916   6.494  0.1771  0.0119 -0.0634
  171SAPE    C119326   2.991   5.866   6.568 -0.0857 -0.0672 -0.2020
  171SAPE    HA19327   2.932   5.954   6.602  0.7236 -0.3199  1.9181
  171SAPE    HB19328   2.924   5.811   6.498 -0.4050 -0.3824  0.3508
  171SAPE    C219329   3.015   5.782   6.691 -0.2485 -0.3334  0.3972
  171SAPE    HS19330   2.922   5.778   6.752  0.5949 -1.8478  1.5982
  171SAPE   O2119331   3.119   5.840   6.773 -0.5921  0.6667 -0.2749
  171SAPE   C2119332   3.110   5.807   6.895  0.5974  0.4841 -0.0860
  171SAPE   O2219333   3.017   5.745   6.949 -0.4916 -0.1127  0.0950
  171SAPE   C2219334   3.230   5.876   6.967 -0.1941  0.4756 -0.0354
  171SAPE   H2R19335   3.318   5.847   6.906 -2.0098 -0.8967 -2.0833
  171SAPE   H2S19336   3.208   5.984   6.969 -0.1263  0.4798  2.0835
  171SAPE    C319337   3.059   5.632   6.640 -0.3926 -0.7602  0.5408
  171SAPE    HX19338   3.139   5.634   6.564 -0.8059 -1.8528  0.0698
  171SAPE    HY19339   2.975   5.589   6.582  0.3208  1.5892 -2.3615
  171SAPE   O3119340   3.092   5.552   6.754  1.1666 -0.2272  0.0611
  171SAPE   C3119341   2.988   5.492   6.807  0.6531  0.2069  0.1901
  171SAPE   O3219342   2.874   5.481   6.769  0.0652 -0.5141  0.6758
  171SAPE   C3219343   3.047   5.411   6.929  0.4184  0.3179  0.0885
  171SAPE   H2X19344   3.067   5.478   7.015 -1.4253 -0.1246  0.9051
  171SAPE   H2Y19345   3.143   5.376   6.886  1.0347  3.4920 -1.2433
  171SAPE   C2319346   3.240   5.841   7.112 -0.0844 -0.3585 -0.1851
  171SAPE   H3R19347   3.207   5.736   7.124 -0.1726 -0.2525  0.5363
  171SAPE   H3S19348   3.162   5.896   7.169 -0.4202  0.2566 -1.2229
  171SAPE   C2419349   3.379   5.877   7.180  1.0753  0.6602  0.3431
  171SAPE   H4R19350   3.379   5.988   7.181 -0.8571  0.6855 -0.6579
  171SAPE   H4S19351   3.461   5.842   7.114  1.0423  2.7012 -0.8031
  171SAPE   C2519352   3.387   5.818   7.316  0.9222  0.1159 -0.4823
  171SAPE   H5R19353   3.400   5.710   7.326 -1.4140  0.0073  1.9153
  171SAPE   C2619354   3.405   5.886   7.425 -0.0983  0.3537 -0.4275
  171SAPE   H6R19355   3.405   5.826   7.517  2.1169 -0.9043 -1.2122
  171SAPE   C2719356   3.414   6.036   7.441 -0.5062 -0.9942 -0.3428
  171SAPE   H7R19357   3.367   6.072   7.535  0.3893 -0.3648 -0.1328
  171SAPE   H7S19358   3.349   6.096   7.374 -1.0710 -0.9486  0.2396
  171SAPE   C2819359   3.552   6.078   7.427 -0.8664  0.5344  0.5549
  171SAPE   H8R19360   3.630   6.009   7.393 -1.1317  0.7606 -0.5349
  171SAPE   C2919361   3.601   6.198   7.470  0.3881  0.2342  0.3196
  171SAPE   H9R19362   3.709   6.218   7.468  0.1514  1.6571  0.5895
  171SAPE  C21019363   3.517   6.310   7.535  0.7695 -0.0663  0.5646
  171SAPE  H10R19364   3.427   6.254   7.568  0.6980  0.5399  1.3969
  171SAPE  H10S19365   3.489   6.393   7.466 -1.1224  0.9284  2.4662
  171SAPE  C21119366   3.586   6.376   7.651 -0.6365  0.0825  0.1540
  171SAPE  H11R19367   3.644   6.465   7.621 -0.7080  0.4354  1.0604
  171SAPE  C21219368   3.604   6.324   7.777  0.4916  0.7933  0.3709
  171SAPE  H12R19369   3.663   6.386   7.847  2.6709  1.1681 -1.7103
  171SAPE  C21319370   3.550   6.198   7.836 -0.4428  0.1028  0.3097
  171SAPE  H13R19371   3.457   6.180   7.778  0.9091 -3.9326 -0.7550
  171SAPE  H13S19372   3.523   6.220   7.941  1.6710  1.1862  0.6615
  171SAPE  C21419373   3.641   6.076   7.829 -0.1479 -0.7782  0.2461
  171SAPE  H14R19374   3.604   6.003   7.756 -0.0171 -0.5002 -0.1011
  171SAPE  C21519375   3.752   6.059   7.901  0.4829  0.0481 -0.3001
  171SAPE  H15R19376   3.782   5.953   7.891 -0.6132 -0.1576 -1.4113
  171SAPE  C21619377   3.809   6.149   8.010 -0.1304 -0.6383  0.8125
  171SAPE  H16R19378   3.757   6.126   8.106  0.2800 -2.8420  0.5355
  171SAPE  H16S19379   3.785   6.253   7.976 -1.0719 -1.7371 -2.0645
  171SAPE  C21719380   3.960   6.146   8.035  0.0452  0.0312 -0.3304
  171SAPE  H17R19381   4.006   6.048   8.013  3.4161  1.0614  1.7577
  171SAPE  H17S19382   3.973   6.157   8.145  0.1243 -0.3556 -0.3022
  171SAPE  C21819383   4.034   6.250   7.952  0.1678  0.5636 -0.4220
  171SAPE  H18R19384   3.970   6.340   7.941  1.5706  1.4894 -1.1271
  171SAPE  H18S19385   4.056   6.207   7.852  3.0774 -3.2137  1.7037
  171SAPE  C21919386   4.169   6.293   8.010 -0.5473  0.6194  0.0256
  171SAPE  H19R19387   4.132   6.337   8.105 -1.4719  1.3587 -0.6682
  171SAPE  H19S19388   4.213   6.372   7.946 -0.9856  0.0888 -0.9552
  171SAPE  C22019389   4.261   6.176   8.043  0.5353  0.3364  0.1462
  171SAPE  H20R19390   4.357   6.210   8.087  1.8541  1.4644 -3.4254
  171SAPE  H20S19391   4.282   6.123   7.948  0.4769 -1.0847  0.9057
  171SAPE  H20T19392   4.216   6.097   8.108  0.2277 -1.9276 -2.7092
  171SAPE   C3319393   2.968   5.291   6.971  0.2482  0.2725  0.1678
  171SAPE   H3X19394   3.009   5.191   6.941 -0.8290 -0.3842  0.8613
  171SAPE   H3Y19395   2.877   5.299   6.908  0.7416 -0.1083 -0.6116
  171SAPE   C3419396   2.925   5.300   7.120  0.5015 -0.5548 -0.1459
  171SAPE   H4X19397   2.841   5.232   7.142 -0.7369  0.6181 -1.2023
  171SAPE   H4Y19398   2.901   5.406   7.145  2.9371 -0.6797  3.0618
  171SAPE   C3519399   3.032   5.276   7.220  0.1901 -0.2266  0.2917
  171SAPE   H5X19400   3.119   5.343   7.208  1.5452 -2.0376 -0.1652
  171SAPE   H5Y19401   3.057   5.169   7.201 -1.4020 -0.4590 -0.6179
  171SAPE   C3619402   2.977   5.287   7.363  0.1837  0.0726  0.0941
  171SAPE   H6X19403   2.883   5.230   7.380  1.1569 -0.9910  1.9525
  171SAPE   H6Y19404   2.942   5.392   7.376  1.9210  0.4041  2.3602
  171SAPE   C3719405   3.080   5.244   7.477  0.1915  0.2631  0.3836
  171SAPE   H7X19406   3.170   5.309   7.471 -0.4724  1.1243 -0.2777
  171SAPE   H7Y19407   3.111   5.142   7.446  0.2129  0.9321 -1.8969
  171SAPE   C3819408   3.022   5.245   7.614  0.4380 -0.1883  0.1029
  171SAPE   H8X19409   2.926   5.190   7.611  0.8242 -0.8694  0.0927
  171SAPE   H8Y19410   2.992   5.348   7.644 -0.1222 -0.2309 -0.2918
  171SAPE   C3919411   3.112   5.180   7.715 -0.3615  0.4283 -0.3149
  171SAPE   H9X19412   3.085   5.231   7.811  1.1705 -1.9735  1.4526
  171SAPE   H9Y19413   3.217   5.210   7.695 -0.8243  1.7796 -0.8238
  171SAPE  C31019414   3.106   5.025   7.728 -0.0565  0.0510  0.5522
  171SAPE  H10X19415   3.144   4.970   7.639  0.1422 -0.4090  0.9170
  171SAPE  H10Y19416   3.000   4.997   7.743 -0.3835  0.7883 -0.2967
  171SAPE  C31119417   3.193   4.980   7.845  0.1943 -0.0584  0.0623
  171SAPE  H11X19418   3.167   5.045   7.931 -0.5448 -0.4696  0.1589
  171SAPE  H11Y19419   3.302   4.985   7.826  0.5273 -4.0400  0.5845
  171SAPE  C31219420   3.166   4.837   7.888 -0.1357 -0.1807  0.3211
  171SAPE  H12X19421   3.186   4.773   7.800  2.4275 -1.2110  1.6102
  171SAPE  H12Y19422   3.059   4.821   7.916 -0.1153 -0.4416  0.2541
  171SAPE  C31319423   3.260   4.798   8.007  0.7274 -0.2743 -0.0877
  171SAPE  H13X19424   3.237   4.880   8.079 -2.2129 -1.6384  0.5906
  171SAPE  H13Y19425   3.367   4.799   7.974  0.4920  0.2278 -0.8644
  171SAPE  C31419426   3.224   4.654   8.058 -0.8874 -0.4129 -0.0789
  171SAPE  H14X19427   3.296   4.633   8.140 -0.1573  0.7771 -0.4049
  171SAPE  H14Y19428   3.241   4.584   7.973 -1.1015  0.5683 -0.9503
  171SAPE  C31519429   3.082   4.643   8.109 -0.5111 -0.2954  0.4725
  171SAPE  H15X19430   3.019   4.640   8.018 -1.0294 -2.2006  0.8697
  171SAPE  H15Y19431   3.059   4.744   8.150  2.2387  0.3530  0.4833
  171SAPE  C31619432   3.073   4.545   8.224  0.2598 -0.3543 -0.5677
  171SAPE  H16X19433   3.140   4.570   8.308 -1.4649  1.2156  0.3803
  171SAPE  H16Y19434   3.099   4.444   8.187 -0.6035 -1.2466  1.2088
  171SAPE  C31719435   2.939   4.552   8.291  0.0633  0.0782  0.7797
  171SAPE  H17X19436   2.859   4.545   8.215  0.0318  1.3591  0.6808
  171SAPE  H17Y19437   2.927   4.642   8.355  0.6219  0.3798  0.4678
  171SAPE  C31819438   2.920   4.434   8.388  0.7513  0.3605  0.4857
  171SAPE  H18X19439   2.956   4.339   8.343 -2.7313  0.0301 -1.7654
  171SAPE  H18Y19440   2.815   4.428   8.424  1.0429  1.2857  1.5026
  171SAPE  H18Z19441   2.984   4.444   8.478 -0.1004  0.7203  1.0562
  172SAPE     N19442   2.252   3.575   6.205  0.0266 -0.4606 -0.6775
  172SAPE   HN119443   2.320   3.546   6.279  0.8795  0.1336 -1.2159
  172SAPE   HN219444   2.179   3.501   6.200 -0.4414  0.0764 -2.0367
  172SAPE   HN319445   2.317   3.576   6.123 -0.9476  0.1053 -1.4534
  172SAPE   C1219446   2.193   3.700   6.253  0.0085  0.5353 -0.2094
  172SAPE  H12A19447   2.103   3.685   6.318  0.2757  0.8059  0.2263
  172SAPE  H12B19448   2.156   3.750   6.161 -0.1711  1.1477  0.1881
  172SAPE   C1119449   2.276   3.805   6.335  0.3100 -0.6239 -0.2733
  172SAPE  H11A19450   2.339   3.750   6.408  0.7934 -1.0534 -0.9961
  172SAPE  H11B19451   2.204   3.870   6.388  0.0913 -2.0073  1.1756
  172SAPE     P19452   2.509   3.891   6.258  0.3230  0.2880 -0.0737
  172SAPE   O1319453   2.567   3.759   6.235  0.3377 -0.0443  0.0046
  172SAPE   O1419454   2.554   4.001   6.173  0.4780 -0.5617 -0.3230
  172SAPE   O1219455   2.354   3.868   6.237 -0.4234  0.2293  0.0328
  172SAPE   O1119456   2.523   3.912   6.414 -0.1465 -0.3123  0.0653
  172SAPE    C119457   2.484   4.041   6.462  0.0357  0.0502  0.0644
  172SAPE    HA19458   2.550   4.126   6.434 -0.1894 -0.7954 -3.3467
  172SAPE    HB19459   2.385   4.071   6.421  0.4166  0.7833 -0.3319
  172SAPE    C219460   2.462   4.051   6.612  0.1790 -0.1911 -0.0335
  172SAPE    HS19461   2.434   4.153   6.646  1.1734 -0.4635  1.6530
  172SAPE   O2119462   2.576   4.003   6.686 -0.2595  0.7088  0.0528
  172SAPE   C2119463   2.646   4.085   6.752 -0.3486 -1.1761  1.0079
  172SAPE   O2219464   2.638   4.208   6.764 -0.4971  0.3864  0.5990
  172SAPE   C2219465   2.750   4.012   6.835  0.2710 -0.0863  0.5094
  172SAPE   H2R19466   2.700   3.948   6.910 -1.4730 -0.9769 -1.3572
  172SAPE   H2S19467   2.794   3.935   6.767  0.3714  0.9488 -0.6231
  172SAPE    C319468   2.322   3.989   6.658  0.2717  0.0739  0.8242
  172SAPE    HX19469   2.321   3.882   6.628 -0.2977  0.8309 -2.0422
  172SAPE    HY19470   2.245   4.036   6.593  2.4006 -2.3331 -3.7147
  172SAPE   O3119471   2.291   3.985   6.804 -0.2743 -0.4166 -0.2228
  172SAPE   C3119472   2.229   4.085   6.852 -0.0281  0.5546  0.0623
  172SAPE   O3219473   2.187   4.182   6.789  0.4132  0.6104 -0.1447
  172SAPE   C3219474   2.220   4.057   7.007  0.3043 -0.0350  0.3513
  172SAPE   H2X19475   2.214   4.149   7.069  0.2285 -0.1830  0.5653
  172SAPE   H2Y19476   2.313   4.003   7.039  0.2278  0.2755  1.1204
  172SAPE   C2319477   2.859   4.101   6.909 -0.3991 -0.2644  0.1718
  172SAPE   H3R19478   2.813   4.182   6.970 -2.3362 -1.3924  0.2487
  172SAPE   H3S19479   2.912   4.161   6.833  1.8803 -2.2539  0.1660
  172SAPE   C2419480   2.964   4.023   6.992 -0.4353 -0.0866  0.1116
  172SAPE   H4R19481   3.051   4.086   7.020  0.3419 -0.2940 -1.7946
  172SAPE   H4S19482   3.011   3.946   6.927 -1.5583 -2.3109  1.8513
  172SAPE   C2519483   2.896   3.939   7.102 -0.3985  0.0941  0.0971
  172SAPE   H5R19484   2.793   3.922   7.067  0.5117 -0.6458 -2.2800
  172SAPE   C2619485   2.940   3.911   7.229 -0.0603 -0.5358 -0.7086
  172SAPE   H6R19486   2.863   3.850   7.277 -0.3814  0.9597  0.7362
  172SAPE   C2719487   3.073   3.959   7.299  0.7356  0.5700  0.0950
  172SAPE   H7R19488   3.141   4.008   7.225 -0.8225  1.9895 -0.4332
  172SAPE   H7S19489   3.126   3.868   7.334 -0.5854  0.3908  1.6834
  172SAPE   C2819490   3.045   4.055   7.411  0.2195 -0.6082 -0.2430
  172SAPE   H8R19491   2.998   4.149   7.377  0.5440 -0.0898  0.7321
  172SAPE   C2919492   3.072   4.031   7.544 -0.5433 -0.2613  0.3415
  172SAPE   H9R19493   3.049   4.105   7.622  0.8630  0.0155  0.5143
  172SAPE  C21019494   3.135   3.906   7.604  0.3194  0.3920  0.7395
  172SAPE  H10R19495   3.113   3.819   7.538  3.1117  0.5668 -0.4457
  172SAPE  H10S19496   3.071   3.890   7.694 -0.8545  1.0293  0.0313
  172SAPE  C21119497   3.273   3.917   7.642 -0.2638  0.0029 -0.5988
  172SAPE  H11R19498   3.336   3.914   7.552 -0.6492 -0.1354 -0.8607
  172SAPE  C21219499   3.325   3.900   7.768 -0.3265  0.0960 -0.5153
  172SAPE  H12R19500   3.434   3.903   7.780 -0.5171  0.5324  1.1406
  172SAPE  C21319501   3.244   3.879   7.897 -0.0294 -1.1958 -0.1155
  172SAPE  H13R19502   3.286   3.795   7.957  0.2758  1.2932  3.2968
  172SAPE  H13S19503   3.141   3.837   7.885 -0.8656  0.7088  0.2583
  172SAPE  C21419504   3.250   3.992   7.993 -0.1878  0.4572 -0.1330
  172SAPE  H14R19505   3.270   4.093   7.953  1.8807  0.0136 -0.2255
  172SAPE  C21519506   3.237   3.990   8.128 -0.5595 -0.0762 -0.0398
  172SAPE  H15R19507   3.250   4.083   8.186  0.2693 -0.0050 -0.3374
  172SAPE  C21619508   3.207   3.867   8.204 -0.2152 -0.2754 -0.7835
  172SAPE  H16R19509   3.152   3.792   8.143  0.3936  1.0036 -2.9204
  172SAPE  H16S19510   3.156   3.886   8.301  1.1218 -1.8148  0.2499
  172SAPE  C21719511   3.337   3.791   8.249 -0.3180 -0.1295 -0.5693
  172SAPE  H17R19512   3.380   3.759   8.152 -0.0262 -1.9380  0.1402
  172SAPE  H17S19513   3.304   3.704   8.309  1.8487 -0.2484  0.4800
  172SAPE  C21819514   3.444   3.869   8.341 -0.1627  0.7547  0.1038
  172SAPE  H18R19515   3.490   3.938   8.267 -1.5844  2.5746  0.8810
  172SAPE  H18S19516   3.519   3.792   8.369  0.8597  1.3986 -0.8198
  172SAPE  C21919517   3.390   3.941   8.462  0.0565  0.6853 -1.2867
  172SAPE  H19R19518   3.314   4.019   8.440 -1.9641 -0.4051  1.5269
  172SAPE  H19S19519   3.481   3.991   8.500 -0.2472  1.2748 -1.3398
  172SAPE  C22019520   3.339   3.851   8.574 -0.3730  0.0082  0.0139
  172SAPE  H20R19521   3.246   3.803   8.538 -0.6587  0.0360  0.7049
  172SAPE  H20S19522   3.322   3.894   8.675 -0.1508 -3.2001  1.4759
  172SAPE  H20T19523   3.421   3.778   8.591 -0.6873 -0.4993 -0.6216
  172SAPE   C3319524   2.090   3.974   7.042  0.4034 -0.2134 -0.3548
  172SAPE   H3X19525   2.112   3.872   7.002  2.4764  0.1208 -0.1510
  172SAPE   H3Y19526   1.999   4.023   7.002 -0.3796 -1.9084 -0.6712
  172SAPE   C3419527   2.060   3.975   7.194 -0.5114 -0.1355  0.3322
  172SAPE   H4X19528   1.978   3.902   7.211 -2.0663  1.4654 -0.1844
  172SAPE   H4Y19529   2.004   4.061   7.236 -0.5466  0.4911 -0.9927
  172SAPE   C3519530   2.179   3.944   7.280  0.3939 -0.9243 -0.0528
  172SAPE   H5X19531   2.256   4.022   7.262  0.4294 -0.5014  1.7766
  172SAPE   H5Y19532   2.225   3.845   7.257  0.2723 -0.7493 -1.0332
  172SAPE   C3619533   2.141   3.935   7.420 -0.0509 -0.2042 -0.5661
  172SAPE   H6X19534   2.051   3.872   7.433 -0.1607 -0.0364 -0.5166
  172SAPE   H6Y19535   2.113   4.033   7.463  3.0329 -0.5161  2.3945
  172SAPE   C3719536   2.260   3.889   7.508 -0.2034 -0.2205 -0.4827
  172SAPE   H7X19537   2.357   3.939   7.493  0.1689 -0.0783  2.0703
  172SAPE   H7Y19538   2.268   3.786   7.467 -3.2517 -1.5557  2.0179
  172SAPE   C3819539   2.236   3.886   7.660 -0.4378  0.2264 -0.0662
  172SAPE   H8X19540   2.136   3.843   7.681 -0.5719  0.7960  0.4847
  172SAPE   H8Y19541   2.226   3.993   7.691 -1.0281  0.2182 -0.2175
  172SAPE   C3919542   2.340   3.808   7.741  0.5483 -0.3732  0.3704
  172SAPE   H9X19543   2.438   3.861   7.734  1.3107 -1.9761 -1.9577
  172SAPE   H9Y19544   2.337   3.704   7.703  0.3023 -0.5284  0.8228
  172SAPE  C31019545   2.301   3.811   7.889 -0.2561 -0.0864  0.5938
  172SAPE  H10X19546   2.203   3.760   7.903  0.3289 -0.8278  2.1473
  172SAPE  H10Y19547   2.273   3.913   7.921 -1.8248 -0.3485  0.0992
  172SAPE  C31119548   2.397   3.755   7.994 -0.2993  1.3572 -0.4703
  172SAPE  H11X19549   2.487   3.819   7.985  0.4006  0.9633  3.0493
  172SAPE  H11Y19550   2.418   3.649   7.969  1.7605  2.1210 -2.0970
  172SAPE  C31219551   2.350   3.762   8.140 -0.2253  0.1035 -0.1952
  172SAPE  H12X19552   2.268   3.691   8.162 -1.4693  2.2687  2.4320
  172SAPE  H12Y19553   2.324   3.865   8.172  0.4208  0.4241 -0.6641
  172SAPE  C31319554   2.468   3.728   8.238 -0.5731 -0.2362 -0.0882
  172SAPE  H13X19555   2.544   3.808   8.228  1.0704 -1.5111  1.8367
  172SAPE  H13Y19556   2.507   3.636   8.190 -1.4658 -1.9504  2.3368
  172SAPE  C31419557   2.424   3.703   8.382 -0.9264  0.0935  0.4702
  172SAPE  H14X19558   2.333   3.639   8.375 -0.5364 -0.4019 -0.1433
  172SAPE  H14Y19559   2.411   3.808   8.416  2.7689  0.3110  1.4780
  172SAPE  C31519560   2.525   3.642   8.485 -0.0727  0.2140 -1.2928
  172SAPE  H15X19561   2.482   3.657   8.586 -0.3146 -1.8394 -1.0578
  172SAPE  H15Y19562   2.616   3.706   8.491 -0.2725  0.3427  0.7419
  172SAPE  C31619563   2.540   3.496   8.464  0.1094  0.0137  0.0527
  172SAPE  H16X19564   2.594   3.480   8.369  0.6122  3.5290 -0.3039
  172SAPE  H16Y19565   2.439   3.450   8.455  0.1291 -0.2497  1.1261
  172SAPE  C31719566   2.621   3.426   8.577  0.5736  0.3656 -0.1099
  172SAPE  H17X19567   2.704   3.497   8.599  1.0991 -0.8276  1.8949
  172SAPE  H17Y19568   2.647   3.322   8.550 -0.4216  0.3907 -1.1729
  172SAPE  C31819569   2.530   3.408   8.703 -0.3406 -0.4755  0.1635
  172SAPE  H18X19570   2.525   3.499   8.768  0.3983 -0.8618  0.7808
  172SAPE  H18Y19571   2.557   3.325   8.773  0.5244  0.5154  1.0367
  172SAPE  H18Z19572   2.430   3.378   8.666  0.0145 -0.5129 -0.7734
  173SOPE     N19573   3.609   1.707  11.119 -0.2737 -0.8580 -0.3575
  173SOPE   HN119574   3.552   1.704  11.206  1.7470  2.3620  1.1347
  173SOPE   HN219575   3.606   1.611  11.077 -1.4849 -0.9357 -0.1240
  173SOPE   HN319576   3.704   1.724  11.158  1.0704  0.0201 -3.8221
  173SOPE   C1219577   3.577   1.820  11.029  0.1019  0.2203 -0.1253
  173SOPE  H12A19578   3.647   1.815  10.943 -0.0564 -1.0872 -0.1830
  173SOPE  H12B19579   3.598   1.911  11.090  0.9602 -0.5502  0.7461
  173SOPE   C1119580   3.430   1.821  10.990  0.0670 -0.0587  0.1208
  173SOPE  H11A19581   3.414   1.908  10.922 -0.4777  0.7431  1.2573
  173SOPE  H11B19582   3.370   1.841  11.081  2.2615 -0.2733  1.6494
  173SOPE     P19583   3.254   1.691  10.857  0.0285  0.3231 -0.2492
  173SOPE   O1319584   3.154   1.751  10.945 -0.0141 -0.6631  0.0550
  173SOPE   O1419585   3.237   1.554  10.807  0.1778  0.2298  0.3373
  173SOPE   O1219586   3.391   1.696  10.928  0.0568 -0.1455  0.1263
  173SOPE   O1119587   3.277   1.781  10.725  0.3142  0.3149 -0.6462
  173SOPE    C119588   3.371   1.738  10.629  0.5542  0.2566  0.3114
  173SOPE    HA19589   3.316   1.670  10.561  1.9710 -1.9009  1.2661
  173SOPE    HB19590   3.465   1.706  10.678  0.1474 -0.9885  0.2816
  173SOPE    C219591   3.429   1.854  10.537  0.3257 -0.1429 -0.1297
  173SOPE    HS19592   3.447   1.937  10.609 -0.5537  0.2602 -0.3567
  173SOPE   O2119593   3.335   1.887  10.428  0.1593 -0.3689 -0.4894
  173SOPE   C2119594   3.349   2.006  10.364  0.4289  0.1076 -0.5922
  173SOPE   O2219595   3.421   2.092  10.408 -0.5046  0.6550  0.1431
  173SOPE   C2219596   3.237   2.016  10.254 -0.2899  0.0420  0.0691
  173SOPE   H2R19597   3.137   2.030  10.300 -1.2503  1.5645 -2.3739
  173SOPE   H2S19598   3.228   1.926  10.191  1.2164  0.2024 -0.4046
  173SOPE    C319599   3.556   1.803  10.467  0.2249 -0.4036  0.1940
  173SOPE    HX19600   3.639   1.801  10.541  1.0559  2.3885 -0.6059
  173SOPE    HY19601   3.587   1.879  10.392 -1.0490  0.8469  0.9221
  173SOPE   O3119602   3.536   1.672  10.409 -0.0616 -0.1362 -0.2970
  173SOPE   C3119603   3.503   1.675  10.281  0.3690  0.5378 -0.2836
  173SOPE   O3219604   3.510   1.771  10.204  0.2997  0.9150 -0.7281
  173SOPE   C3219605   3.442   1.543  10.248  0.8650 -0.2849  0.1538
  173SOPE   H2X19606   3.384   1.503  10.334  1.0942  1.5021  1.1521
  173SOPE   H2Y19607   3.528   1.473  10.238  1.4559  0.1595  2.0511
  173SOPE   C2319608   3.289   2.129  10.153  0.0257  0.1511  0.7728
  173SOPE   H3R19609   3.304   2.221  10.214 -1.6321 -0.0229  1.4672
  173SOPE   H3S19610   3.210   2.154  10.079  0.7158  0.0983  0.0174
  173SOPE   C2419611   3.426   2.100  10.090 -0.5855 -0.6231 -0.7520
  173SOPE   H4R19612   3.462   2.193  10.040 -1.9791  0.5914  0.4269
  173SOPE   H4S19613   3.502   2.080  10.168 -0.4254  3.9557  0.4148
  173SOPE   C2519614   3.417   1.987   9.991 -0.7142 -0.3376  0.4105
  173SOPE   H5R19615   3.492   1.907  10.012 -0.1208  0.7342  2.4658
  173SOPE   H5S19616   3.323   1.929   9.999  0.7310 -3.3118 -2.5684
  173SOPE   C2619617   3.454   2.028   9.843 -0.1738 -0.0314 -0.1641
  173SOPE   H6R19618   3.423   1.946   9.775  0.5363  0.0950 -0.6431
  173SOPE   H6S19619   3.390   2.115   9.819 -0.7797  0.0274  1.5848
  173SOPE   C2719620   3.607   2.048   9.823 -0.3243  0.4052 -0.3435
  173SOPE   H7R19621   3.646   2.140   9.873  0.4164 -1.2151  2.1478
  173SOPE   H7S19622   3.658   1.964   9.874 -3.6562 -1.0448  0.7447
  173SOPE   C2819623   3.644   2.052   9.677  0.2212 -0.0543  0.3095
  173SOPE   H8R19624   3.754   2.055   9.659  0.0252  0.0162 -0.9029
  173SOPE   H8S19625   3.599   1.958   9.638 -0.6635  1.1247 -1.5941
  173SOPE   C2919626   3.579   2.178   9.625  0.8625 -0.4543  0.2393
  173SOPE   H9119627   3.581   2.257   9.701 -0.4985  0.1106 -0.3001
  173SOPE  C21019628   3.547   2.196   9.496  0.1917  0.5649  0.4794
  173SOPE  H10119629   3.507   2.296   9.473 -1.2519 -0.1110  0.0217
  173SOPE  C21119630   3.562   2.094   9.391 -0.0786 -0.0656  0.2660
  173SOPE  H11R19631   3.599   1.999   9.434  1.7333  1.0000  1.1056
  173SOPE  H11S19632   3.634   2.123   9.310 -0.1801  0.2293  0.2801
  173SOPE  C21219633   3.433   2.051   9.319  0.9273  0.1713  0.0567
  173SOPE  H12R19634   3.354   2.026   9.392 -0.1677 -1.0179 -1.4966
  173SOPE  H12S19635   3.460   1.961   9.260 -0.2861 -1.4053  1.8753
  173SOPE  C21319636   3.375   2.163   9.224 -0.3026  0.5108 -0.1092
  173SOPE  H13R19637   3.354   2.253   9.285  1.1756  1.0856 -0.4495
  173SOPE  H13S19638   3.278   2.113   9.202  0.3520 -1.7099  1.7353
  173SOPE  C21419639   3.460   2.192   9.098 -0.0125 -0.6455 -0.1712
  173SOPE  H14R19640   3.450   2.092   9.049 -0.7419 -1.0864  0.8523
  173SOPE  H14S19641   3.564   2.222   9.120  0.3199 -1.4636 -0.5964
  173SOPE  C21519642   3.405   2.307   9.005 -0.4808 -0.0147 -0.1562
  173SOPE  H15R19643   3.481   2.315   8.924  0.2213 -0.0334  0.4868
  173SOPE  H15S19644   3.391   2.403   9.060 -0.3813 -0.4593  0.6640
  173SOPE  C21619645   3.273   2.283   8.942 -0.1848  0.1444 -0.3972
  173SOPE  H16R19646   3.192   2.256   9.013 -0.8104  1.5114 -0.5790
  173SOPE  H16S19647   3.288   2.191   8.882 -2.7591 -0.4032 -0.2205
  173SOPE  C21719648   3.251   2.396   8.834  0.8588  0.8337 -0.3063
  173SOPE  H17R19649   3.302   2.354   8.745 -0.2560 -4.4683  1.3804
  173SOPE  H17S19650   3.296   2.494   8.861  2.8280 -0.7060  2.2355
  173SOPE  C21819651   3.100   2.416   8.794  0.0193  1.0883 -0.7023
  173SOPE  H18R19652   3.097   2.473   8.699 -1.2101  0.7880 -0.8444
  173SOPE  H18S19653   3.055   2.474   8.877  1.7726 -0.6476  1.5047
  173SOPE  H18T19654   3.046   2.320   8.782  0.2517  0.4817  2.6500
  173SOPE   C3319655   3.355   1.536  10.128 -0.0269 -0.3564  0.9434
  173SOPE   H3X19656   3.289   1.626  10.122  0.6433  0.1476  1.0465
  173SOPE   H3Y19657   3.278   1.458  10.141 -0.1979 -0.3601 -0.0045
  173SOPE   C3419658   3.432   1.518   9.995  0.5136  0.4293  0.0399
  173SOPE   H4X19659   3.478   1.417   9.997  2.3796  1.2650  0.2764
  173SOPE   H4Y19660   3.520   1.586   9.997  1.0573 -0.2863  0.5020
  173SOPE   C3519661   3.350   1.527   9.872  0.1290  1.0529 -0.4091
  173SOPE   H5X19662   3.260   1.586   9.900 -0.1659  0.3147  0.2329
  173SOPE   H5Y19663   3.311   1.428   9.838  2.6630 -0.0872 -0.0631
  173SOPE   C3619664   3.428   1.596   9.760 -0.0975  0.4515 -0.3121
  173SOPE   H6X19665   3.504   1.525   9.721  0.7744  1.9177 -1.3336
  173SOPE   H6Y19666   3.481   1.683   9.804  1.0831 -1.1542  1.5582
  173SOPE   C3719667   3.333   1.645   9.648 -0.3220 -0.4300 -0.8130
  173SOPE   H7X19668   3.388   1.698   9.568  0.2667 -0.0506 -0.1573
  173SOPE   H7Y19669   3.262   1.719   9.690  0.5737 -1.5536  2.9112
  173SOPE   C3819670   3.273   1.524   9.571 -0.0731  0.2741 -0.5085
  173SOPE   H8X19671   3.217   1.457   9.640  0.7364 -0.3770 -0.4800
  173SOPE   H8Y19672   3.353   1.471   9.515  0.5846  0.8071 -0.0782
  173SOPE   C3919673   3.170   1.582   9.469  0.6655  0.0115  0.6751
  173SOPE   H9X19674   3.103   1.654   9.520  1.8297  0.7616  1.1552
  173SOPE   H9Y19675   3.105   1.501   9.428  0.9103 -0.4269  1.1548
  173SOPE  C31019676   3.233   1.650   9.345  0.2875  0.8608  0.0754
  173SOPE  H10X19677   3.309   1.720   9.386  2.7057 -1.7727  0.2356
  173SOPE  H10Y19678   3.144   1.701   9.303 -1.1314  0.4062  2.3852
  173SOPE  C31119679   3.296   1.553   9.248  0.1929  0.0054  0.4216
  173SOPE  H11X19680   3.370   1.488   9.298  1.0145  0.1663 -0.5664
  173SOPE  H11Y19681   3.343   1.626   9.177 -0.5109 -0.3897 -0.4641
  173SOPE  C31219682   3.193   1.467   9.171  0.5229 -0.8956  0.1193
  173SOPE  H12X19683   3.115   1.536   9.133  0.6742 -1.6902 -1.7048
  173SOPE  H12Y19684   3.150   1.392   9.242  0.3657 -0.4332  0.5163
  173SOPE  C31319685   3.249   1.380   9.053 -0.3300 -0.9156 -0.1099
  173SOPE  H13X19686   3.314   1.305   9.102 -1.4657 -2.1821 -0.4962
  173SOPE  H13Y19687   3.306   1.439   8.978 -0.6405  0.1406  0.4660
  173SOPE  C31419688   3.136   1.303   8.984  0.4701  0.2834 -0.1653
  173SOPE  H14X19689   3.089   1.378   8.917  0.3605 -0.0186 -0.4248
  173SOPE  H14Y19690   3.062   1.252   9.049 -1.5790  2.8418 -0.4029
  173SOPE  C31519691   3.205   1.191   8.896 -0.1258  0.3243 -0.1483
  173SOPE  H15X19692   3.233   1.122   8.977  0.4938  0.1067 -0.5427
  173SOPE  H15Y19693   3.294   1.231   8.843  1.2419 -0.0417  1.8535
  173SOPE  C31619694   3.112   1.134   8.795 -0.0003  0.1779  0.1617
  173SOPE  H16X19695   3.081   1.220   8.732 -0.4500 -0.7771 -0.9403
  173SOPE  H16Y19696   3.020   1.100   8.849 -1.6932  3.2346 -0.6627
  173SOPE  C31719697   3.174   1.022   8.708  1.3554 -0.5513 -0.4285
  173SOPE  H17X19698   3.213   0.943   8.776 -0.3169 -0.8205  0.2403
  173SOPE  H17Y19699   3.257   1.076   8.657  2.4401 -1.5851  0.2033
  173SOPE  C31819700   3.075   0.963   8.598 -0.7119  0.2120 -0.0414
  173SOPE  H18X19701   3.044   1.055   8.543  0.9432 -0.0692 -1.4640
  173SOPE  H18Y19702   2.978   0.923   8.636 -1.1321 -1.1977 -2.5084
  173SOPE  H18Z19703   3.139   0.892   8.542  0.9569  0.2944  1.6968
  174SOPE     N19704   3.196   0.861  11.294 -0.0952 -0.4188 -0.0828
  174SOPE   HN119705   3.220   0.935  11.364  2.4498  0.5748 -1.9222
  174SOPE   HN219706   3.144   0.787  11.345 -0.7796  0.5519  0.6588
  174SOPE   HN319707   3.290   0.823  11.270  0.4463  2.1069 -2.2861
  174SOPE   C1219708   3.130   0.929  11.169 -0.3164 -0.2002  0.0170
  174SOPE  H12A19709   3.029   0.970  11.192 -0.3169 -0.4559  0.4797
  174SOPE  H12B19710   3.115   0.846  11.097  4.4913 -1.4219  0.2563
  174SOPE   C1119711   3.216   1.046  11.100 -0.1865  0.1762  0.0716
  174SOPE  H11A19712   3.235   1.128  11.173  2.0922  0.7665 -1.1223
  174SOPE  H11B19713   3.159   1.084  11.012 -0.5435  1.0272  0.6558
  174SOPE     P19714   3.442   1.106  11.008  0.2210 -0.1602  0.1778
  174SOPE   O1319715   3.569   1.039  10.970  0.0409  0.1468 -0.0880
  174SOPE   O1419716   3.448   1.227  11.092  0.1952  0.2351 -0.1903
  174SOPE   O1219717   3.354   0.995  11.078  0.7030  0.2743 -0.0167
  174SOPE   O1119718   3.353   1.133  10.879  0.0309 -0.4376 -0.1478
  174SOPE    C119719   3.340   1.028  10.787 -0.0529  0.2924 -0.0239
  174SOPE    HA19720   3.246   0.970  10.803 -1.2089  2.6480  2.0752
  174SOPE    HB19721   3.419   0.950  10.798  0.8066  1.2458  0.5924
  174SOPE    C219722   3.337   1.084  10.646  0.1168 -1.5409  0.4485
  174SOPE    HS19723   3.433   1.140  10.639 -0.6869 -0.2529 -0.4915
  174SOPE   O2119724   3.227   1.175  10.631  0.5384  0.1885 -0.4026
  174SOPE   C2119725   3.255   1.289  10.569  0.3604 -0.2412 -0.2264
  174SOPE   O2219726   3.364   1.333  10.545 -0.2905  0.3423 -0.1586
  174SOPE   C2219727   3.121   1.358  10.534 -0.0565 -1.2041  0.2948
  174SOPE   H2R19728   3.143   1.441  10.464  1.8868 -1.2515  0.8256
  174SOPE   H2S19729   3.095   1.402  10.633  2.0992  1.3657 -0.2307
  174SOPE    C319730   3.327   0.985  10.535  0.4882  0.0167 -0.2438
  174SOPE    HX19731   3.226   0.942  10.547  0.4304  0.5367  1.1430
  174SOPE    HY19732   3.400   0.904  10.557  1.0615  0.5940  0.0080
  174SOPE   O3119733   3.332   1.043  10.403 -0.6661 -0.1575  0.5548
  174SOPE   C3119734   3.457   1.084  10.372 -0.3835  0.2680 -0.0272
  174SOPE   O3219735   3.553   1.053  10.440 -0.2242  1.0936 -0.5193
  174SOPE   C3219736   3.453   1.182  10.254  0.2589  0.1171  0.3096
  174SOPE   H2X19737   3.559   1.214  10.254 -0.6356  3.3352  0.5759
  174SOPE   H2Y19738   3.373   1.258  10.268 -0.3078  0.0402 -2.2469
  174SOPE   C2319739   3.009   1.265  10.493 -0.2106 -0.0738  0.8258
  174SOPE   H3R19740   2.923   1.335  10.499 -0.3828  0.1160 -2.8993
  174SOPE   H3S19741   2.996   1.190  10.573 -3.7964  3.6879  3.9980
  174SOPE   C2419742   3.010   1.198  10.356 -0.3764  0.7157  0.0246
  174SOPE   H4R19743   3.101   1.137  10.338 -1.1863 -0.1093 -1.3590
  174SOPE   H4S19744   2.927   1.125  10.358  0.1732  0.0944  2.6571
  174SOPE   C2519745   3.015   1.293  10.236 -0.3393 -0.1171 -0.1946
  174SOPE   H5R19746   2.915   1.340  10.233  0.7751  2.3052 -0.9078
  174SOPE   H5S19747   3.078   1.384  10.250 -1.7223  0.9220 -0.5485
  174SOPE   C2619748   3.032   1.227  10.100 -0.8501 -0.6000  0.5290
  174SOPE   H6R19749   3.069   1.305  10.030 -1.2070 -0.8695  0.0335
  174SOPE   H6S19750   3.105   1.146  10.118 -2.5438 -2.2384  0.2394
  174SOPE   C2719751   2.903   1.160  10.060  0.7646 -0.2661  0.2322
  174SOPE   H7R19752   2.869   1.076  10.125 -0.4196 -1.1020 -1.4139
  174SOPE   H7S19753   2.811   1.221  10.050  0.9360  0.1108  0.9845
  174SOPE   C2819754   2.918   1.093   9.923 -0.1616  0.1176 -0.0754
  174SOPE   H8R19755   2.826   1.044   9.884 -0.4144  0.3651  0.2120
  174SOPE   H8S19756   2.937   1.170   9.845 -0.8964 -0.5366 -0.9254
  174SOPE   C2919757   3.021   0.984   9.920 -0.0883  0.4624 -0.1349
  174SOPE   H9119758   3.023   0.913  10.005 -0.1223 -0.4940 -0.9281
  174SOPE  C21019759   3.116   0.984   9.826  0.3992 -0.0288 -0.4203
  174SOPE  H10119760   3.177   0.892   9.830 -0.4823 -0.6214 -0.3446
  174SOPE  C21119761   3.140   1.075   9.711  0.6252 -0.5504 -0.2316
  174SOPE  H11R19762   3.238   1.054   9.663  1.1311 -0.7016  0.8490
  174SOPE  H11S19763   3.142   1.176   9.757  1.5312 -0.5375 -0.2827
  174SOPE  C21219764   3.029   1.077   9.599  0.2123  0.5802  0.2563
  174SOPE  H12R19765   2.932   1.113   9.639  1.1163  2.6348  0.6685
  174SOPE  H12S19766   3.021   0.975   9.555  0.6306  0.9134 -0.6187
  174SOPE  C21319767   3.073   1.188   9.499  0.1523 -0.2595 -0.6506
  174SOPE  H13R19768   3.183   1.179   9.487  0.0764 -0.6142 -1.1007
  174SOPE  H13S19769   3.047   1.285   9.548 -0.1929 -1.6769  2.0803
  174SOPE  C21419770   2.996   1.163   9.360 -0.3443 -0.4259 -0.1038
  174SOPE  H14R19771   3.054   1.077   9.320 -2.0625 -2.0915  0.9492
  174SOPE  H14S19772   3.014   1.251   9.294 -2.3005  0.3306  0.3494
  174SOPE  C21519773   2.846   1.136   9.368 -0.7392 -0.1303  0.2336
  174SOPE  H15R19774   2.787   1.228   9.384  0.3770  0.9614 -1.6887
  174SOPE  H15S19775   2.832   1.055   9.443  0.5401  1.8507  2.6551
  174SOPE  C21619776   2.801   1.082   9.230 -0.0897  0.0102  0.5338
  174SOPE  H16R19777   2.856   1.140   9.153  0.1405 -1.8999 -0.7642
  174SOPE  H16S19778   2.691   1.097   9.221  0.2880  1.3456 -2.3409
  174SOPE  C21719779   2.821   0.934   9.211  0.5551 -0.3836  0.1193
  174SOPE  H17R19780   2.771   0.884   9.296 -0.7540  1.8362  0.6856
  174SOPE  H17S19781   2.930   0.912   9.216  0.9116  1.2220 -0.1424
  174SOPE  C21819782   2.772   0.889   9.073 -0.5831 -0.1053  0.1821
  174SOPE  H18R19783   2.792   0.780   9.065  1.2987  0.3608 -1.8708
  174SOPE  H18S19784   2.824   0.956   9.001 -0.2509 -0.0028  0.5180
  174SOPE  H18T19785   2.661   0.891   9.060 -0.4855 -3.7030 -1.8595
  174SOPE   C3319786   3.419   1.121  10.113 -0.6941  0.4832 -0.2059
  174SOPE   H3X19787   3.398   1.201  10.039  0.6360 -0.5459 -1.7218
  174SOPE   H3Y19788   3.326   1.061  10.109 -0.1491 -0.5467  1.7471
  174SOPE   C3419789   3.536   1.036  10.053 -0.0373 -0.6023  0.2947
  174SOPE   H4X19790   3.546   0.956  10.129 -2.8980 -1.5468 -0.2884
  174SOPE   H4Y19791   3.636   1.084  10.055 -0.2706  0.0139 -1.8794
  174SOPE   C3519792   3.516   0.986   9.908 -0.5189 -0.4299  0.3544
  174SOPE   H5X19793   3.419   0.936   9.890 -0.0262 -0.9222 -1.0072
  174SOPE   H5Y19794   3.591   0.913   9.869 -0.1076 -1.7190  3.3968
  174SOPE   C3619795   3.519   1.101   9.812  0.3290  0.7255 -0.0351
  174SOPE   H6X19796   3.598   1.174   9.838 -0.0244 -0.4221  4.6031
  174SOPE   H6Y19797   3.420   1.153   9.814  0.5118  1.1415 -1.3345
  174SOPE   C3719798   3.548   1.062   9.670  0.8613 -0.2055  0.4939
  174SOPE   H7X19799   3.478   0.982   9.637  0.6417  0.5427 -0.8704
  174SOPE   H7Y19800   3.653   1.029   9.653  0.5784 -0.6425 -0.4407
  174SOPE   C3819801   3.524   1.187   9.587 -0.5456  0.2993 -0.3056
  174SOPE   H8X19802   3.598   1.260   9.625  0.3073  0.4361 -2.1788
  174SOPE   H8Y19803   3.426   1.237   9.600  1.0895  3.5335  0.0620
  174SOPE   C3919804   3.551   1.166   9.438  0.0603  0.4937 -1.5960
  174SOPE   H9X19805   3.655   1.127   9.430  0.3735  0.5596  1.5596
  174SOPE   H9Y19806   3.557   1.263   9.383 -0.5634  0.4053 -1.8274
  174SOPE  C31019807   3.452   1.078   9.373  0.1928 -0.6833 -0.3789
  174SOPE  H10X19808   3.356   1.124   9.404  0.2937  0.3432 -1.5248
  174SOPE  H10Y19809   3.455   0.971   9.402  0.2958 -0.7036 -0.4617
  174SOPE  C31119810   3.444   1.097   9.219  0.7303  0.0034 -0.2389
  174SOPE  H11X19811   3.475   1.202   9.199  0.8136 -0.0900 -0.5962
  174SOPE  H11Y19812   3.340   1.078   9.187  0.1062  0.6107  1.3858
  174SOPE  C31219813   3.542   1.006   9.147 -0.1264  0.5563  0.3035
  174SOPE  H12X19814   3.512   0.901   9.167  1.3275 -0.0403 -0.5869
  174SOPE  H12Y19815   3.640   1.031   9.193  1.0359 -0.1799 -1.6987
  174SOPE  C31319816   3.539   1.027   8.997  0.2522  0.4187 -1.1803
  174SOPE  H13X19817   3.531   1.135   8.972  2.7320  0.9353  0.1671
  174SOPE  H13Y19818   3.446   0.978   8.959 -1.9583  1.6189  2.4357
  174SOPE  C31419819   3.648   0.955   8.911  0.2814  0.1939 -0.4000
  174SOPE  H14X19820   3.675   0.855   8.953 -0.8213 -0.2752 -0.7800
  174SOPE  H14Y19821   3.742   1.013   8.898  0.5113 -0.5652 -2.2884
  174SOPE  C31519822   3.595   0.914   8.778  0.3248  0.1575  0.9867
  174SOPE  H15X19823   3.515   0.839   8.795  1.0129 -0.7553  0.1785
  174SOPE  H15Y19824   3.664   0.845   8.726 -1.4946 -3.2725  2.9331
  174SOPE  C31619825   3.551   1.030   8.673 -0.1485  0.3654  0.2198
  174SOPE  H16X19826   3.621   1.116   8.685  0.4247  0.1694 -1.5534
  174SOPE  H16Y19827   3.463   1.083   8.715  0.4152  0.1177  1.7506
  174SOPE  C31719828   3.533   0.983   8.524  0.0521 -0.7837 -0.4288
  174SOPE  H17X19829   3.510   1.076   8.468 -0.8364  0.2594  1.6219
  174SOPE  H17Y19830   3.440   0.922   8.533 -1.1769  1.2409  1.0850
  174SOPE  C31819831   3.632   0.889   8.463  0.1437  0.0457 -0.3180
  174SOPE  H18X19832   3.617   0.865   8.356 -0.7500  1.0124 -0.4127
  174SOPE  H18Y19833   3.634   0.792   8.519  1.0760  1.2473  1.8178
  174SOPE  H18Z19834   3.734   0.931   8.475  0.0784 -0.4415  2.3753
  175SOPE     N19835   4.356   3.099  10.814 -0.0033 -0.9556 -0.4086
  175SOPE   HN119836   4.385   3.197  10.794  1.4245 -1.1535  0.6328
  175SOPE   HN219837   4.295   3.072  10.734 -0.2001  2.3640 -1.4598
  175SOPE   HN319838   4.298   3.101  10.900 -1.0179 -1.5912 -1.0687
  175SOPE   C1219839   4.462   3.001  10.837 -0.0482  0.4112 -0.4594
  175SOPE  H12A19840   4.425   2.909  10.889  1.5796 -1.1179 -1.9515
  175SOPE  H12B19841   4.552   3.043  10.886  1.0506 -2.3122 -0.0112
  175SOPE   C1119842   4.506   2.940  10.703 -0.1969  0.2837 -0.7665
  175SOPE  H11A19843   4.421   2.888  10.654  1.0011 -2.6849  0.1883
  175SOPE  H11B19844   4.583   2.864  10.730  0.1172  0.6488 -0.6363
  175SOPE     P19845   4.718   3.059  10.577 -0.0377  0.6406 -0.1592
  175SOPE   O1319846   4.786   3.154  10.666 -0.0447 -0.1101  0.4160
  175SOPE   O1419847   4.707   3.105  10.441  0.2375  0.3766  0.7032
  175SOPE   O1219848   4.563   3.041  10.623  1.2162  0.6874  0.1944
  175SOPE   O1119849   4.782   2.912  10.577  0.3480 -0.2365 -0.5517
  175SOPE    C119850   4.712   2.817  10.490  0.3514 -0.6505 -0.9037
  175SOPE    HA19851   4.603   2.828  10.470 -0.0307  0.9067  1.7601
  175SOPE    HB19852   4.727   2.720  10.542 -2.0699  0.5758  2.1946
  175SOPE    C219853   4.797   2.795  10.355  0.1535 -0.4571  0.0186
  175SOPE    HS19854   4.789   2.891  10.299  2.1179  0.7771  1.7927
  175SOPE   O2119855   4.726   2.680  10.294  0.6100  0.0088  0.2585
  175SOPE   C2119856   4.710   2.683  10.166  0.2855  0.0860  0.2199
  175SOPE   O2219857   4.763   2.764  10.091  0.2956 -0.1204 -0.3882
  175SOPE   C2219858   4.610   2.571  10.126 -0.8126  0.5690 -0.2306
  175SOPE   H2R19859   4.510   2.612  10.153 -1.0392 -0.9043  1.2635
  175SOPE   H2S19860   4.646   2.482  10.181  0.0958 -0.1379 -1.9179
  175SOPE    C319861   4.948   2.774  10.370  0.3729  0.0000 -0.0379
  175SOPE    HX19862   4.962   2.690  10.441  0.4860  0.9520  1.0762
  175SOPE    HY19863   4.986   2.859  10.430  0.1048 -0.3684  0.6576
  175SOPE   O3119864   5.023   2.765  10.247 -0.6453 -0.0825 -0.0691
  175SOPE   C3119865   5.026   2.885  10.181 -0.7378 -0.2338 -0.0604
  175SOPE   O3219866   4.976   2.985  10.223 -0.2152 -0.1183 -0.9334
  175SOPE   C3219867   5.098   2.866  10.044 -0.0040  0.2556 -0.0636
  175SOPE   H2X19868   5.031   2.798   9.986  0.3438 -1.7739  1.8499
  175SOPE   H2Y19869   5.186   2.804  10.070  0.9265  1.8411  0.6239
  175SOPE   C2319870   4.614   2.546   9.976  0.0542 -0.3846 -0.0135
  175SOPE   H3R19871   4.711   2.517   9.931 -0.6426 -0.1422 -1.6828
  175SOPE   H3S19872   4.598   2.649   9.938  1.6785  0.1335  0.6322
  175SOPE   C2419873   4.495   2.457   9.920 -0.1782  0.4291 -0.2644
  175SOPE   H4R19874   4.512   2.358   9.966  0.5026  0.8225  0.3373
  175SOPE   H4S19875   4.394   2.494   9.949  0.2662 -0.9678  3.2983
  175SOPE   C2519876   4.512   2.437   9.767  0.7538 -0.2319 -0.5273
  175SOPE   H5R19877   4.510   2.540   9.725 -1.0369  1.3048  3.1169
  175SOPE   H5S19878   4.612   2.396   9.744  1.1867  0.6563 -0.2180
  175SOPE   C2619879   4.397   2.345   9.712 -0.4598 -0.0280  0.4565
  175SOPE   H6R19880   4.399   2.239   9.744  1.1595 -0.2202 -0.2799
  175SOPE   H6S19881   4.316   2.386   9.777 -0.9205 -0.9797  0.4869
  175SOPE   C2719882   4.361   2.385   9.569 -0.0140  0.4333 -0.3114
  175SOPE   H7R19883   4.254   2.363   9.548 -0.1827 -0.7640  1.6796
  175SOPE   H7S19884   4.353   2.495   9.554 -0.8221  0.2195 -1.5048
  175SOPE   C2819885   4.454   2.336   9.459 -0.0339  0.1721 -0.0196
  175SOPE   H8R19886   4.433   2.391   9.365  0.3468  1.0209  0.3863
  175SOPE   H8S19887   4.560   2.358   9.485  1.2403 -3.0021 -2.2278
  175SOPE   C2919888   4.444   2.186   9.440 -0.3181 -0.1354 -0.5677
  175SOPE   H9119889   4.413   2.119   9.522  0.3729 -0.3786 -0.5019
  175SOPE  C21019890   4.464   2.119   9.327  0.1442 -0.3682 -0.6789
  175SOPE  H10119891   4.445   2.011   9.321 -0.7229 -0.2736  0.3855
  175SOPE  C21119892   4.513   2.178   9.202  0.1532  0.3070 -0.2004
  175SOPE  H11R19893   4.595   2.110   9.169 -2.1002 -2.1142 -1.0142
  175SOPE  H11S19894   4.576   2.267   9.226  0.2682  0.6180 -1.6422
  175SOPE  C21219895   4.406   2.220   9.108  0.4663 -0.7020  0.2251
  175SOPE  H12R19896   4.334   2.291   9.156 -0.0740 -0.3943 -1.0187
  175SOPE  H12S19897   4.340   2.144   9.062  0.9182 -0.5296 -0.7201
  175SOPE  C21319898   4.473   2.293   8.982 -0.6023  0.0406 -0.0763
  175SOPE  H13R19899   4.544   2.230   8.924  0.4147 -0.4848  1.7091
  175SOPE  H13S19900   4.525   2.384   9.018 -2.4384  1.7257 -1.5397
  175SOPE  C21419901   4.356   2.340   8.886  0.2115 -0.2356  0.3859
  175SOPE  H14R19902   4.379   2.429   8.824 -1.8751  0.0104 -0.0610
  175SOPE  H14S19903   4.283   2.377   8.961 -0.6425 -1.6782  0.2846
  175SOPE  C21519904   4.292   2.226   8.803 -1.3669  0.8080 -0.0348
  175SOPE  H15R19905   4.242   2.152   8.870  1.5987 -0.9851  0.2851
  175SOPE  H15S19906   4.371   2.169   8.749 -1.6970  0.5975 -0.2996
  175SOPE  C21619907   4.199   2.285   8.693 -0.2473  0.0895 -0.6495
  175SOPE  H16R19908   4.273   2.304   8.612  0.4803  0.3292  0.0747
  175SOPE  H16S19909   4.153   2.381   8.722  1.3822  0.6865 -0.0288
  175SOPE  C21719910   4.092   2.178   8.660  0.1686  0.1566 -0.1568
  175SOPE  H17R19911   4.017   2.222   8.591  0.2269  0.2503 -0.1598
  175SOPE  H17S19912   4.046   2.146   8.755  2.5453 -1.4649  0.4964
  175SOPE  C21819913   4.156   2.054   8.595 -0.3377 -0.1921 -0.1590
  175SOPE  H18R19914   4.230   2.010   8.665 -0.7041 -0.2252  0.2052
  175SOPE  H18S19915   4.198   2.085   8.497  0.0400 -0.2877 -0.0257
  175SOPE  H18T19916   4.075   1.981   8.571  0.1090 -0.4751 -0.8154
  175SOPE   C3319917   5.155   2.994   9.983 -0.3703  0.0842  0.0744
  175SOPE   H3X19918   5.246   3.023  10.040  0.0433 -1.6935  0.3717
  175SOPE   H3Y19919   5.080   3.075   9.974  0.2588  0.8193  1.2565
  175SOPE   C3419920   5.205   2.960   9.840  0.7451  0.6471 -0.2056
  175SOPE   H4X19921   5.111   2.924   9.793  1.4248  0.5829 -1.5470
  175SOPE   H4Y19922   5.280   2.878   9.846  0.6077  0.5480  0.1846
  175SOPE   C3519923   5.265   3.073   9.748 -1.1557 -0.0914 -0.4876
  175SOPE   H5X19924   5.362   3.107   9.789 -0.5647 -0.3657 -1.6535
  175SOPE   H5Y19925   5.196   3.160   9.746 -0.4668  0.4610 -0.3357
  175SOPE   C3619926   5.299   3.019   9.611  0.3240 -0.3157 -0.4147
  175SOPE   H6X19927   5.204   2.969   9.580  0.3783  0.2589 -1.5281
  175SOPE   H6Y19928   5.381   2.944   9.617 -0.0800 -0.8655 -1.5920
  175SOPE   C3719929   5.338   3.125   9.514  0.1576  0.2643  1.2091
  175SOPE   H7X19930   5.444   3.159   9.519 -0.3247  1.7357  1.7661
  175SOPE   H7Y19931   5.286   3.221   9.534  0.9507  0.7299  1.0555
  175SOPE   C3819932   5.310   3.084   9.371 -0.1621 -0.1259  0.1684
  175SOPE   H8X19933   5.200   3.077   9.358 -0.7586 -1.0308  4.7147
  175SOPE   H8Y19934   5.354   2.987   9.338  0.1590  0.2460 -0.5009
  175SOPE   C3919935   5.361   3.190   9.269  0.0823  0.5926 -0.5173
  175SOPE   H9X19936   5.472   3.185   9.276  0.0942 -0.5529 -1.4974
  175SOPE   H9Y19937   5.336   3.296   9.293 -0.6896  0.8808 -2.5617
  175SOPE  C31019938   5.307   3.157   9.131  0.1556 -0.0408  0.1766
  175SOPE  H10X19939   5.197   3.169   9.122  0.1561  0.4765  0.8780
  175SOPE  H10Y19940   5.318   3.052   9.095  0.8950  0.9739 -2.6959
  175SOPE  C31119941   5.373   3.241   9.020  0.4931  0.1186  0.1989
  175SOPE  H11X19942   5.484   3.231   9.024  0.4202 -0.3269  1.2817
  175SOPE  H11Y19943   5.344   3.348   9.022  0.6441  0.2362 -1.9798
  175SOPE  C31219944   5.316   3.190   8.883 -0.4192 -0.1628 -0.4811
  175SOPE  H12X19945   5.209   3.166   8.899 -0.2858 -0.6156 -0.2524
  175SOPE  H12Y19946   5.357   3.093   8.846 -0.5673  0.3207 -1.9412
  175SOPE  C31319947   5.326   3.306   8.772 -0.4754 -0.5842 -0.5681
  175SOPE  H13X19948   5.291   3.258   8.678 -1.2697 -0.7166 -0.2089
  175SOPE  H13Y19949   5.428   3.338   8.742 -1.6501  0.8251 -3.2389
  175SOPE  C31419950   5.243   3.434   8.791  0.0454 -0.1698 -0.4587
  175SOPE  H14X19951   5.302   3.502   8.856  2.0915 -0.6487 -1.7777
  175SOPE  H14Y19952   5.148   3.405   8.841  0.3652 -0.7747 -0.2025
  175SOPE  C31519953   5.227   3.518   8.664 -0.0603 -0.2187  0.3901
  175SOPE  H15X19954   5.329   3.538   8.625 -0.0962 -2.5611 -0.9600
  175SOPE  H15Y19955   5.178   3.612   8.698 -0.9190 -0.0843 -1.1676
  175SOPE  C31619956   5.141   3.446   8.559 -0.3763 -0.2140  0.0054
  175SOPE  H16X19957   5.045   3.415   8.605 -0.2806  0.9105  0.9831
  175SOPE  H16Y19958   5.203   3.360   8.524 -0.0682  0.4521 -1.1013
  175SOPE  C31719959   5.117   3.520   8.425  0.5693  0.3438  0.0703
  175SOPE  H17X19960   5.068   3.619   8.435  0.9840  0.3236  2.9444
  175SOPE  H17Y19961   5.050   3.459   8.363 -0.1649  0.1080  1.0827
  175SOPE  C31819962   5.242   3.536   8.345 -0.5256 -0.3431  0.5095
  175SOPE  H18X19963   5.234   3.590   8.248  3.3610 -0.8969 -0.1908
  175SOPE  H18Y19964   5.292   3.438   8.331 -0.7191 -0.6280  1.7369
  175SOPE  H18Z19965   5.317   3.590   8.406 -0.7146  1.5647 -0.8831
  176SOPE     N19966   4.995   2.408  11.239  0.2324 -0.4024 -0.0310
  176SOPE   HN119967   5.045   2.411  11.331  0.4965 -0.0137 -0.1879
  176SOPE   HN219968   4.920   2.335  11.238  0.1862 -0.3796  0.9171
  176SOPE   HN319969   5.064   2.372  11.170  0.2047  0.8068 -0.6884
  176SOPE   C1219970   4.952   2.537  11.187  0.0172  0.4182  0.4263
  176SOPE  H12A19971   5.028   2.614  11.214  1.9597 -1.4990  0.5334
  176SOPE  H12B19972   4.854   2.571  11.228 -0.5556 -0.3054 -0.3361
  176SOPE   C1119973   4.930   2.522  11.038  0.0843 -0.6265  0.6220
  176SOPE  H11A19974   4.903   2.623  11.002 -2.4928 -0.3694  3.1613
  176SOPE  H11B19975   4.847   2.449  11.024  0.8457 -1.1074 -1.6679
  176SOPE     P19976   5.043   2.401  10.838  0.1538 -0.2844 -0.0351
  176SOPE   O1319977   4.963   2.281  10.842  0.0984 -0.3766  0.3150
  176SOPE   O1419978   5.179   2.382  10.797  0.3106  0.7219  0.2604
  176SOPE   O1219979   5.051   2.466  10.981 -1.1551  0.1699  0.5927
  176SOPE   O1119980   4.968   2.508  10.751  0.1224 -0.7899 -0.9609
  176SOPE    C119981   4.832   2.497  10.708  0.4175  0.1321  0.7613
  176SOPE    HA19982   4.794   2.597  10.677  0.8278  0.0488 -0.0207
  176SOPE    HB19983   4.762   2.464  10.788  0.3716  3.7424  2.3202
  176SOPE    C219984   4.824   2.406  10.585 -0.1465  0.0279  0.2431
  176SOPE    HS19985   4.866   2.306  10.605  0.0370 -0.2098 -1.2496
  176SOPE   O2119986   4.896   2.464  10.474  0.0786  0.7955 -0.2769
  176SOPE   C2119987   4.947   2.380  10.388  0.5501  0.4729  0.2416
  176SOPE   O2219988   4.940   2.259  10.405  0.4261  0.0038 -0.5244
  176SOPE   C2219989   5.003   2.453  10.266 -0.2290  0.7276 -0.0176
  176SOPE   H2R19990   5.081   2.514  10.317 -1.4849  1.4300  1.0860
  176SOPE   H2S19991   4.931   2.519  10.213 -1.5436 -1.2762 -0.7965
  176SOPE    C319992   4.683   2.390  10.531  0.7000  0.1382  0.2473
  176SOPE    HX19993   4.651   2.479  10.472  0.7540  0.7729  1.1561
  176SOPE    HY19994   4.613   2.378  10.616 -2.3060  0.8580 -2.0524
  176SOPE   O3119995   4.673   2.271  10.454  0.0325  0.2527  0.7624
  176SOPE   C3119996   4.551   2.256  10.391 -0.0351  0.6176 -0.5148
  176SOPE   O3219997   4.466   2.337  10.412 -0.1294 -0.1034 -0.2857
  176SOPE   C3219998   4.564   2.158  10.283  0.5307  0.1846 -0.2452
  176SOPE   H2X19999   4.583   2.055  10.320 -1.9576  0.1541  1.0724
  176SOPE   H2Y20000   4.655   2.185  10.226 -0.7239  0.3829 -2.1809
  176SOPE   C2320001   5.048   2.345  10.163  0.1085 -0.3358 -0.3595
  176SOPE   H3R20002   4.965   2.310  10.098  0.7471 -0.3053 -1.1902
  176SOPE   H3S20003   5.087   2.257  10.219  2.8612  1.3333  0.4513
  176SOPE   C2420004   5.160   2.388  10.076 -0.3392  0.2592  0.3966
  176SOPE   H4R20005   5.258   2.417  10.119  0.3517  0.2371 -1.1090
  176SOPE   H4S20006   5.189   2.312  10.000 -2.3177 -1.0893  0.9768
  176SOPE   C2520007   5.119   2.512   9.988 -0.5542 -0.4095 -0.0981
  176SOPE   H5R20008   5.071   2.595  10.043 -0.4716 -0.4596  0.0518
  176SOPE   H5S20009   5.210   2.548   9.936 -0.0370  0.7415  1.5788
  176SOPE   C2620010   5.026   2.471   9.869 -0.0523  0.5635  0.0380
  176SOPE   H6R20011   5.066   2.380   9.820  2.2451  0.7831  1.4679
  176SOPE   H6S20012   4.928   2.433   9.903  0.0880 -0.2051 -0.4142
  176SOPE   C2720013   5.014   2.576   9.758  0.2034 -0.4071  0.8892
  176SOPE   H7R20014   4.949   2.658   9.796 -0.4574 -0.0838 -0.8920
  176SOPE   H7S20015   5.114   2.624   9.757 -0.2836  0.6144 -0.6422
  176SOPE   C2820016   4.970   2.528   9.623 -1.0597  0.5911  0.1853
  176SOPE   H8R20017   5.022   2.432   9.600 -0.3295  1.3063 -1.1922
  176SOPE   H8S20018   4.864   2.498   9.630 -1.0556  0.2491 -1.0802
  176SOPE   C2920019   4.990   2.632   9.516  0.1815  0.8166  0.1577
  176SOPE   H9120020   5.064   2.709   9.544 -0.2454  0.6267  1.8512
  176SOPE  C21020021   4.922   2.627   9.400 -0.2219 -0.5651  0.8606
  176SOPE  H10120022   4.948   2.705   9.326  0.7988 -0.5146  1.2619
  176SOPE  C21120023   4.816   2.526   9.367 -0.5308  0.1720  0.4343
  176SOPE  H11R20024   4.724   2.581   9.337 -0.5217 -0.7151 -1.3070
  176SOPE  H11S20025   4.780   2.463   9.452  0.8402 -0.1161  0.8078
  176SOPE  C21220026   4.849   2.418   9.263 -0.5228  0.5671  0.9966
  176SOPE  H12R20027   4.772   2.338   9.265 -2.0012  1.8860 -0.9073
  176SOPE  H12S20028   4.943   2.365   9.287  0.0736  0.4140 -1.4888
  176SOPE  C21320029   4.854   2.466   9.119  0.4199  0.6980 -0.5497
  176SOPE  H13R20030   4.944   2.531   9.120 -0.0067  1.2859  0.4378
  176SOPE  H13S20031   4.776   2.539   9.092 -0.6151  0.2597  1.1672
  176SOPE  C21420032   4.868   2.362   9.009  0.5468  0.5695 -0.1470
  176SOPE  H14R20033   4.797   2.281   9.038 -1.2988  1.5151 -1.8877
  176SOPE  H14S20034   4.971   2.320   9.008 -0.6917 -2.6030 -1.0363
  176SOPE  C21520035   4.829   2.419   8.870  0.7286  0.3937  0.6279
  176SOPE  H15R20036   4.735   2.478   8.876  0.0852 -0.4942 -0.3833
  176SOPE  H15S20037   4.795   2.339   8.800  1.2767  2.1194 -1.6492
  176SOPE  C21620038   4.922   2.516   8.791  0.5475 -0.2026  0.5539
  176SOPE  H16R20039   4.963   2.591   8.861 -0.4646  1.0170 -0.1504
  176SOPE  H16S20040   4.868   2.568   8.709 -0.9204 -1.5828  0.6098
  176SOPE  C21720041   5.031   2.433   8.726  0.3562 -0.3941 -0.2381
  176SOPE  H17R20042   4.999   2.414   8.621  1.8099  0.7080 -0.9064
  176SOPE  H17S20043   5.044   2.339   8.783  1.3014 -0.6844 -0.9179
  176SOPE  C21820044   5.165   2.504   8.735  0.0129  0.4808  0.4443
  176SOPE  H18R20045   5.186   2.532   8.840  2.7766  0.3453 -0.0420
  176SOPE  H18S20046   5.172   2.598   8.677 -0.3136  0.3703  0.2240
  176SOPE  H18T20047   5.248   2.437   8.703 -0.6163 -0.2338  0.2979
  176SOPE   C3320048   4.436   2.155  10.193 -1.1192 -0.1571 -0.7784
  176SOPE   H3X20049   4.428   2.247  10.131  2.0593 -0.3448 -1.5228
  176SOPE   H3Y20050   4.348   2.140  10.258 -1.4360 -0.5938 -1.3073
  176SOPE   C3420051   4.427   2.045  10.094 -0.4856 -0.3927  0.0753
  176SOPE   H4X20052   4.394   1.951  10.143 -4.1273 -0.7139 -2.8259
  176SOPE   H4Y20053   4.520   2.028  10.034  0.4449  0.4291  1.2562
  176SOPE   C3520054   4.311   2.070   9.998 -0.9327  0.2995  1.1112
  176SOPE   H5X20055   4.325   2.177   9.971  3.1539 -0.1000  1.3406
  176SOPE   H5Y20056   4.213   2.056  10.048 -1.3883 -1.4494 -0.2229
  176SOPE   C3620057   4.309   1.990   9.873 -0.1812  0.3308 -0.0963
  176SOPE   H6X20058   4.295   1.882   9.897 -0.0577  0.2124 -0.5539
  176SOPE   H6Y20059   4.414   1.992   9.836 -0.6279 -1.7341 -1.6062
  176SOPE   C3720060   4.203   2.039   9.766 -0.3173  0.0288  0.4638
  176SOPE   H7X20061   4.220   2.146   9.742 -0.3466  0.2147  1.2718
  176SOPE   H7Y20062   4.106   2.033   9.820 -0.4695  1.5574  0.3655
  176SOPE   C3820063   4.198   1.951   9.639 -0.6355 -0.5066 -0.1337
  176SOPE   H8X20064   4.165   1.846   9.658 -0.2242 -0.5531  0.3284
  176SOPE   H8Y20065   4.301   1.955   9.597 -0.5246  0.9517  0.2560
  176SOPE   C3920066   4.098   2.013   9.539  0.6477 -0.4723  0.4144
  176SOPE   H9X20067   4.124   2.117   9.509 -2.3422  0.0669 -0.4445
  176SOPE   H9Y20068   3.997   2.019   9.586  0.6188 -1.4794  0.4879
  176SOPE  C31020069   4.063   1.930   9.415 -0.1268 -0.1592 -0.2939
  176SOPE  H10X20070   4.019   1.838   9.459 -1.3051  1.0314  1.0702
  176SOPE  H10Y20071   4.151   1.893   9.359 -0.7684 -2.2505  0.0214
  176SOPE  C31120072   3.976   1.989   9.299  0.0533  0.0383  0.0450
  176SOPE  H11X20073   3.871   2.006   9.333 -0.2707  0.8629 -1.2855
  176SOPE  H11Y20074   3.977   1.908   9.223  1.7173 -1.3309  1.5103
  176SOPE  C31220075   4.042   2.108   9.228 -0.4195  0.4308 -0.2618
  176SOPE  H12X20076   4.070   2.090   9.122 -0.4926  1.0151 -0.3776
  176SOPE  H12Y20077   4.142   2.129   9.271 -0.4275 -0.5484  0.2557
  176SOPE  C31320078   3.948   2.233   9.229 -0.4157 -0.0417 -0.0685
  176SOPE  H13X20079   3.945   2.274   9.333 -2.6112 -0.5115  0.0689
  176SOPE  H13Y20080   3.850   2.189   9.201 -0.7440  0.0676  0.8790
  176SOPE  C31420081   3.988   2.354   9.137 -0.3986  0.0650  0.8360
  176SOPE  H14X20082   4.025   2.321   9.037 -0.7760 -0.8132  0.9847
  176SOPE  H14Y20083   4.078   2.397   9.186 -0.6489  1.2512  0.2732
  176SOPE  C31520084   3.875   2.464   9.118 -0.2077 -0.0846 -0.3298
  176SOPE  H15X20085   3.868   2.516   9.216 -1.0922  1.9875 -1.4513
  176SOPE  H15Y20086   3.782   2.409   9.095 -0.6183  1.2065 -1.8771
  176SOPE  C31620087   3.916   2.563   9.003 -0.6720 -0.1557 -0.1642
  176SOPE  H16X20088   3.925   2.515   8.904  0.9563  0.4136 -0.2963
  176SOPE  H16Y20089   4.019   2.601   9.018 -1.0890  1.6448 -1.7607
  176SOPE  C31720090   3.826   2.684   9.014 -0.1923  0.0871  0.3162
  176SOPE  H17X20091   3.849   2.730   9.113  1.3929  1.9104 -0.8391
  176SOPE  H17Y20092   3.723   2.644   9.006  0.6847 -1.8950 -1.2028
  176SOPE  C31820093   3.843   2.779   8.900 -0.1642  0.4024  0.3497
  176SOPE  H18X20094   3.815   2.879   8.939 -2.4054  0.0567 -0.2678
  176SOPE  H18Y20095   3.775   2.751   8.816  2.1102 -0.3473 -1.2986
  176SOPE  H18Z20096   3.943   2.764   8.854 -0.0216 -0.2946  0.8742
  177SOPE     N20097   4.043   6.313  11.197 -0.2710 -0.1033 -0.3269
  177SOPE   HN120098   4.042   6.230  11.261 -0.4240  0.2052  0.0715
  177SOPE   HN220099   4.143   6.317  11.171  0.4097  2.0854  2.3890
  177SOPE   HN320100   4.005   6.399  11.241 -0.9759 -0.4882 -0.1737
  177SOPE   C1220101   3.953   6.286  11.085  0.4186  0.3991  0.3381
  177SOPE  H12A20102   3.849   6.310  11.118  0.2925  1.4014 -0.7285
  177SOPE  H12B20103   3.960   6.181  11.050  2.4927  0.4585  0.5444
  177SOPE   C1120104   3.977   6.368  10.959  0.1582  0.5586 -0.0779
  177SOPE  H11A20105   3.913   6.336  10.874  0.0058  0.2667  0.1469
  177SOPE  H11B20106   4.079   6.340  10.928 -0.2948 -2.0085  0.6468
  177SOPE     P20107   3.815   6.584  11.002 -0.0191  0.7009  0.2244
  177SOPE   O1320108   3.831   6.691  11.104 -0.0862  0.1080  0.5676
  177SOPE   O1420109   3.696   6.490  11.004 -0.8371 -0.7316 -0.1343
  177SOPE   O1220110   3.950   6.505  10.990 -0.7878  0.5689  0.1341
  177SOPE   O1120111   3.809   6.654  10.862 -0.0789 -0.2399 -0.1357
  177SOPE    C120112   3.860   6.609  10.732  0.3535 -0.4907 -0.6838
  177SOPE    HA20113   3.800   6.644  10.646 -1.4285 -0.6853  0.4659
  177SOPE    HB20114   3.868   6.498  10.729 -0.9230 -0.5637 -1.8359
  177SOPE    C220115   4.008   6.661  10.714  0.2481 -0.6012 -0.1494
  177SOPE    HS20116   4.074   6.621  10.793 -0.9276  3.5121  3.1236
  177SOPE   O2120117   4.009   6.804  10.721 -0.0127 -0.1463  0.6904
  177SOPE   C2120118   4.136   6.852  10.735 -0.0354  0.2078  0.2396
  177SOPE   O2220119   4.235   6.783  10.753  0.3292  0.2709  0.1056
  177SOPE   C2220120   4.139   6.997  10.718 -0.0960  0.4312 -0.2535
  177SOPE   H2R20121   4.213   7.040  10.789  0.4193  0.5884 -0.8820
  177SOPE   H2S20122   4.044   7.045  10.752  0.2792  1.2449 -0.3525
  177SOPE    C320123   4.074   6.601  10.588 -0.7935  0.0752  0.4576
  177SOPE    HX20124   4.056   6.491  10.592 -1.1104  0.1895  3.5895
  177SOPE    HY20125   4.184   6.613  10.602 -0.9031  0.7211  0.7716
  177SOPE   O3120126   4.040   6.670  10.464  0.1709  0.2336 -0.0800
  177SOPE   C3120127   3.937   6.633  10.402  0.7183 -0.3073 -0.1043
  177SOPE   O3220128   3.863   6.540  10.431  0.0270 -0.6615 -0.4362
  177SOPE   C3220129   3.909   6.725  10.280  0.4390 -0.5468 -0.4452
  177SOPE   H2X20130   3.956   6.824  10.299 -1.6689  0.9389 -2.6354
  177SOPE   H2Y20131   3.800   6.745  10.279  0.4024 -0.5393  2.0135
  177SOPE   C2320132   4.174   7.037  10.575  1.1145  0.3678  0.1011
  177SOPE   H3R20133   4.260   6.976  10.538  0.2032 -0.6365 -0.4135
  177SOPE   H3S20134   4.209   7.142  10.571  0.0502  0.7390  0.4607
  177SOPE   C2420135   4.051   7.022  10.472  0.4928  0.6031 -0.0693
  177SOPE   H4R20136   4.080   7.065  10.373  0.7646  1.3765  0.3441
  177SOPE   H4S20137   4.032   6.913  10.468 -0.5746  0.7558  0.7461
  177SOPE   C2520138   3.926   7.107  10.511  0.1169  0.5440  0.7357
  177SOPE   H5R20139   3.887   7.069  10.608  0.6285 -1.4224  0.2000
  177SOPE   H5S20140   3.933   7.216  10.531 -0.5114  0.9409 -1.0419
  177SOPE   C2620141   3.800   7.086  10.414 -0.2489  0.6568  0.0018
  177SOPE   H6R20142   3.802   6.975  10.410 -1.3984  0.5614  1.4793
  177SOPE   H6S20143   3.708   7.126  10.461  0.3883 -0.8013  2.6663
  177SOPE   C2720144   3.828   7.127  10.264 -0.0309  0.0852  0.5892
  177SOPE   H7R20145   3.839   7.236  10.249 -0.4376  0.0402 -0.0512
  177SOPE   H7S20146   3.918   7.075  10.226  0.0144  0.7337 -0.1929
  177SOPE   C2820147   3.711   7.074  10.174 -0.6420 -0.8252 -0.6705
  177SOPE   H8R20148   3.765   7.062  10.077 -3.2395  0.1457 -2.2729
  177SOPE   H8S20149   3.700   6.966  10.197 -3.0333 -0.7216 -1.2507
  177SOPE   C2920150   3.580   7.142  10.163 -0.1318 -0.1663  0.3501
  177SOPE   H9120151   3.546   7.185  10.259  0.3549 -1.5334  1.1637
  177SOPE  C21020152   3.505   7.166  10.054  0.5494  0.0895 -0.2747
  177SOPE  H10120153   3.399   7.194  10.063  0.4732  0.2664 -1.5261
  177SOPE  C21120154   3.555   7.124   9.917  0.3060  0.7350  0.0059
  177SOPE  H11R20155   3.462   7.120   9.855 -0.3879 -0.2910  1.1062
  177SOPE  H11S20156   3.584   7.017   9.922 -0.8577  0.3556 -0.9608
  177SOPE  C21220157   3.665   7.201   9.848 -0.1136 -0.8076 -0.0742
  177SOPE  H12R20158   3.751   7.210   9.918  0.8488 -2.7902 -0.9668
  177SOPE  H12S20159   3.621   7.298   9.816  0.0351 -0.6885  0.0806
  177SOPE  C21320160   3.714   7.128   9.720 -0.7060 -0.2153 -0.0648
  177SOPE  H13R20161   3.752   7.027   9.747 -0.4741  0.1120  0.8511
  177SOPE  H13S20162   3.795   7.198   9.689 -0.2974 -0.6211  0.0650
  177SOPE  C21420163   3.603   7.130   9.611 -0.3355  0.0784 -0.3385
  177SOPE  H14R20164   3.560   7.231   9.628  0.4981 -0.1125  3.3284
  177SOPE  H14S20165   3.521   7.061   9.638 -0.6611  0.1115 -1.2134
  177SOPE  C21520166   3.655   7.113   9.469 -0.0362 -0.1383 -0.1371
  177SOPE  H15R20167   3.686   7.008   9.451 -1.3503 -0.9452  2.0682
  177SOPE  H15S20168   3.741   7.182   9.456  0.7861 -0.8662  1.3384
  177SOPE  C21620169   3.549   7.154   9.368  0.2726 -0.3038 -0.1619
  177SOPE  H16R20170   3.514   7.258   9.381  1.4025 -0.0235  0.7507
  177SOPE  H16S20171   3.460   7.088   9.374  0.5559 -0.7774 -1.0739
  177SOPE  C21720172   3.592   7.156   9.219  0.4375  0.2766 -0.1130
  177SOPE  H17R20173   3.680   7.089   9.203  0.4918  1.0297 -3.3520
  177SOPE  H17S20174   3.622   7.260   9.194 -1.0745  0.5813 -0.7186
  177SOPE  C21820175   3.477   7.123   9.125  0.3701  0.4973 -1.1264
  177SOPE  H18R20176   3.506   7.112   9.018  3.2352 -0.7752 -0.2752
  177SOPE  H18S20177   3.396   7.198   9.123  1.6396  1.9208  0.1020
  177SOPE  H18T20178   3.426   7.026   9.148 -1.6052  1.8207  0.2434
  177SOPE   C3320179   3.938   6.668  10.143 -0.7923  0.5142 -0.2506
  177SOPE   H3X20180   3.875   6.582  10.111 -1.0125  1.8549 -3.6298
  177SOPE   H3Y20181   4.039   6.620  10.147 -1.6744 -1.3921 -0.1883
  177SOPE   C3420182   3.936   6.761  10.019 -0.6660 -0.1088 -0.7541
  177SOPE   H4X20183   3.989   6.859  10.026 -2.0131  0.6111 -0.4478
  177SOPE   H4Y20184   3.836   6.808  10.005 -0.7580  0.1012  0.4958
  177SOPE   C3520185   3.985   6.696   9.892  0.4057  0.2127  0.3694
  177SOPE   H5X20186   3.947   6.592   9.879  0.8893 -0.0556  1.0608
  177SOPE   H5Y20187   4.095   6.690   9.880  0.5793 -0.3566  2.1539
  177SOPE   C3620188   3.941   6.760   9.757  0.6915  0.1959 -0.6630
  177SOPE   H6X20189   3.838   6.799   9.768  0.8837  0.2387  1.1785
  177SOPE   H6Y20190   3.936   6.676   9.684  3.4764  0.0842 -0.7698
  177SOPE   C3720191   4.021   6.873   9.696  0.0422 -0.2312  0.0203
  177SOPE   H7X20192   4.126   6.839   9.684 -0.1049 -0.5951 -0.2474
  177SOPE   H7Y20193   4.012   6.964   9.759 -1.7940  0.5828 -1.3686
  177SOPE   C3820194   3.961   6.915   9.563 -0.8555  0.2244  0.8405
  177SOPE   H8X20195   3.980   7.023   9.546  0.6236  0.1152  1.7722
  177SOPE   H8Y20196   3.850   6.911   9.575 -0.8233 -1.5695  0.6933
  177SOPE   C3920197   4.018   6.846   9.440  0.0324 -0.3316  0.7843
  177SOPE   H9X20198   4.003   6.736   9.447 -1.7623 -0.4041 -2.9661
  177SOPE   H9Y20199   4.128   6.851   9.424 -0.2079 -0.7697 -1.1814
  177SOPE  C31020200   3.940   6.883   9.313 -0.1042 -0.1622  0.0320
  177SOPE  H10X20201   3.894   6.983   9.328  2.1656  0.5638  2.8508
  177SOPE  H10Y20202   3.863   6.804   9.299 -1.1176  0.9544 -0.8223
  177SOPE  C31120203   4.029   6.889   9.187 -1.1332  0.6021  0.3828
  177SOPE  H11X20204   4.100   6.806   9.170  0.5756  1.8676  1.1338
  177SOPE  H11Y20205   4.099   6.973   9.207 -0.5048 -0.0634  1.0067
  177SOPE  C31220206   3.945   6.929   9.066  0.1107  0.8377 -0.0302
  177SOPE  H12X20207   3.996   7.005   9.004 -2.1416  3.3062  1.0249
  177SOPE  H12Y20208   3.851   6.984   9.088  0.3868  1.0955  0.5395
  177SOPE  C31320209   3.907   6.810   8.980  0.3868 -0.4384  0.0128
  177SOPE  H13X20210   3.859   6.733   9.045  0.0594 -0.3979 -0.1797
  177SOPE  H13Y20211   4.002   6.765   8.944 -0.7628 -2.2351 -0.8842
  177SOPE  C31420212   3.816   6.845   8.860  0.7209 -0.3389 -0.4507
  177SOPE  H14X20213   3.857   6.932   8.806  0.7613 -0.6604 -0.9419
  177SOPE  H14Y20214   3.713   6.872   8.894  0.6789 -1.7167  0.5951
  177SOPE  C31520215   3.794   6.735   8.760  0.6954 -0.2971 -0.1152
  177SOPE  H15X20216   3.711   6.754   8.690  0.4313 -0.1574  0.2330
  177SOPE  H15Y20217   3.780   6.639   8.814  0.6447  0.9558  2.1986
  177SOPE  C31620218   3.930   6.702   8.677  0.3406 -0.2187 -0.5778
  177SOPE  H16X20219   3.901   6.631   8.597 -0.4726 -2.1817  1.4111
  177SOPE  H16Y20220   4.005   6.656   8.745  1.7241 -0.0100 -1.9459
  177SOPE  C31720221   3.992   6.822   8.599 -0.4808 -0.5963  0.7739
  177SOPE  H17X20222   4.095   6.785   8.579  0.4354  2.3819 -0.2915
  177SOPE  H17Y20223   3.998   6.908   8.669 -0.8970  0.0219  0.0636
  177SOPE  C31820224   3.917   6.858   8.480  0.1564  0.6604  0.7905
  177SOPE  H18X20225   3.824   6.914   8.506 -1.1976 -0.1126 -2.1521
  177SOPE  H18Y20226   3.883   6.769   8.423  0.7049  1.6942 -1.1819
  177SOPE  H18Z20227   3.982   6.921   8.416  1.2050 -1.5605 -0.3729
  178SOPE     N20228   0.515   5.442  10.476 -0.0224  0.3738  0.3075
  178SOPE   HN120229   0.562   5.419  10.387  2.4791 -1.0428  1.9252
  178SOPE   HN220230   0.544   5.371  10.546  0.2696  0.9363  0.7718
  178SOPE   HN320231   0.414   5.431  10.458 -0.3167  1.7723  0.9984
  178SOPE   C1220232   0.537   5.579  10.539  0.6243 -0.0006  0.1460
  178SOPE  H12A20233   0.487   5.568  10.637 -0.8084  1.1331 -0.4538
  178SOPE  H12B20234   0.478   5.654  10.482 -0.7623 -1.0065  0.2327
  178SOPE   C1120235   0.683   5.620  10.550  0.1545  0.1316  0.2281
  178SOPE  H11A20236   0.685   5.692  10.636 -0.0195  1.4778 -0.8807
  178SOPE  H11B20237   0.722   5.675  10.462  1.6741  0.4653  1.0862
  178SOPE     P20238   0.912   5.508  10.635  0.1668 -0.2158  0.0317
  178SOPE   O1320239   0.949   5.373  10.676 -0.2784  0.3830  0.4730
  178SOPE   O1420240   0.921   5.615  10.736 -0.3183 -0.3207  0.3600
  178SOPE   O1220241   0.767   5.507  10.577  0.2100 -0.0007 -0.6571
  178SOPE   O1120242   1.010   5.537  10.519 -0.0334  0.1834 -0.0353
  178SOPE    C120243   0.979   5.570  10.382  0.7896 -0.6738 -1.0584
  178SOPE    HA20244   1.078   5.590  10.335 -0.4662  1.8099 -2.7327
  178SOPE    HB20245   0.924   5.665  10.365  1.6493  0.5036  2.2749
  178SOPE    C220246   0.915   5.451  10.305  0.2222  0.4831 -0.1234
  178SOPE    HS20247   0.846   5.400  10.376  0.5046 -0.5043 -0.5563
  178SOPE   O2120248   1.026   5.362  10.274  0.5352  0.0605  0.1576
  178SOPE   C2120249   0.985   5.234  10.246 -0.6701 -0.7723  0.2325
  178SOPE   O2220250   0.877   5.193  10.275  0.3453  1.5515  0.3977
  178SOPE   C2220251   1.097   5.163  10.167  0.1460 -0.5159 -1.0578
  178SOPE   H2R20252   1.082   5.054  10.184  1.9623 -0.3949  1.6507
  178SOPE   H2S20253   1.194   5.193  10.212 -0.2956 -2.9499  1.6311
  178SOPE    C320254   0.846   5.503  10.174  0.5099  1.1010  0.0403
  178SOPE    HX20255   0.933   5.538  10.114  0.5607  0.5885 -0.1915
  178SOPE    HY20256   0.774   5.584  10.198  0.4308 -0.0353  4.0467
  178SOPE   O3120257   0.781   5.402  10.101 -0.1378  0.2143  0.4915
  178SOPE   C3120258   0.665   5.355  10.147  0.4695 -0.3942 -0.4381
  178SOPE   O3220259   0.610   5.396  10.248  0.3584  0.2340  0.0491
  178SOPE   C3220260   0.628   5.243  10.049  0.1455 -0.4271  0.2888
  178SOPE   H2X20261   0.535   5.196  10.089 -0.0057  0.1816  0.6660
  178SOPE   H2Y20262   0.716   5.175  10.049  0.0069 -0.6021 -0.0757
  178SOPE   C2320263   1.104   5.196  10.018  0.8666  0.2898 -0.0460
  178SOPE   H3R20264   1.001   5.176   9.979 -0.3157  2.7089  1.6607
  178SOPE   H3S20265   1.168   5.118   9.973  0.0178 -0.0359 -0.7108
  178SOPE   C2420266   1.160   5.338   9.977  0.3420  0.2540 -0.3668
  178SOPE   H4R20267   1.086   5.421   9.976 -0.6983 -0.6625 -0.6110
  178SOPE   H4S20268   1.252   5.371  10.030  0.7401 -0.1817 -0.7830
  178SOPE   C2520269   1.204   5.326   9.829 -0.3295 -0.7401  0.2906
  178SOPE   H5R20270   1.241   5.421   9.788 -1.4457 -0.0931  0.7513
  178SOPE   H5S20271   1.291   5.257   9.821  0.0680 -0.1384 -0.5943
  178SOPE   C2620272   1.095   5.295   9.731  0.0806 -0.4551  0.3518
  178SOPE   H6R20273   1.142   5.289   9.630  0.7173 -0.2174  0.6317
  178SOPE   H6S20274   1.045   5.196   9.737 -0.4510 -0.3349 -1.8022
  178SOPE   C2720275   0.994   5.412   9.714 -0.3660 -0.2149  0.2442
  178SOPE   H7R20276   0.954   5.448   9.811  1.9042 -2.0178  1.9145
  178SOPE   H7S20277   1.037   5.496   9.655  1.4182 -1.8278 -0.8335
  178SOPE   C2820278   0.865   5.376   9.629 -0.2298 -0.2302 -0.4795
  178SOPE   H8R20279   0.885   5.323   9.534 -2.4319  1.6180 -2.0335
  178SOPE   H8S20280   0.799   5.311   9.691 -2.9139  3.8416  1.1215
  178SOPE   C2920281   0.782   5.506   9.600 -0.1278 -0.0086 -0.0779
  178SOPE   H9120282   0.765   5.566   9.691  0.3656 -1.5649  1.0696
  178SOPE  C21020283   0.744   5.554   9.481 -0.2218 -0.0403  0.0025
  178SOPE  H10120284   0.684   5.646   9.491 -1.7419 -1.3060  3.1270
  178SOPE  C21120285   0.771   5.491   9.347 -0.2025  0.4399 -0.1356
  178SOPE  H11R20286   0.675   5.475   9.293 -0.7219  1.6094  0.4130
  178SOPE  H11S20287   0.818   5.391   9.364 -1.4172 -0.0597  0.3640
  178SOPE  C21220288   0.873   5.565   9.264  0.1722 -0.6028  0.5123
  178SOPE  H12R20289   0.976   5.566   9.307  1.0517  0.6499 -1.5540
  178SOPE  H12S20290   0.835   5.669   9.263 -3.1482 -1.7560 -0.1381
  178SOPE  C21320291   0.879   5.514   9.117  0.1619 -0.2676  0.1070
  178SOPE  H13R20292   0.950   5.576   9.058 -0.6399 -0.1754 -0.7956
  178SOPE  H13S20293   0.780   5.528   9.067  0.8326  3.1294 -0.4130
  178SOPE  C21420294   0.918   5.366   9.112  0.0393 -0.6770  0.3536
  178SOPE  H14R20295   0.857   5.297   9.175  0.0316 -0.7382  0.2798
  178SOPE  H14S20296   1.022   5.358   9.150  0.3851 -0.6860 -0.5965
  178SOPE  C21520297   0.929   5.313   8.967  0.2748 -0.3936 -0.0639
  178SOPE  H15R20298   1.007   5.373   8.917 -0.3880  0.2997 -0.2601
  178SOPE  H15S20299   0.827   5.317   8.924  0.6602  0.9078 -0.8762
  178SOPE  C21620300   0.975   5.165   8.971 -0.7748 -0.0835 -0.0397
  178SOPE  H16R20301   0.896   5.106   9.022  1.1013 -0.8943  2.0252
  178SOPE  H16S20302   1.059   5.158   9.044 -1.0775  0.7155  0.3873
  178SOPE  C21720303   1.026   5.113   8.836 -0.0286 -0.5496 -0.6174
  178SOPE  H17R20304   1.073   5.014   8.855 -0.8146 -0.5101  1.6957
  178SOPE  H17S20305   1.113   5.177   8.809 -0.5069 -0.1182 -1.1509
  178SOPE  C21820306   0.919   5.109   8.736  0.8081 -0.3306  0.2181
  178SOPE  H18R20307   0.871   5.209   8.732 -0.2760 -0.9045 -1.4422
  178SOPE  H18S20308   0.841   5.040   8.773 -1.2302  0.6350 -2.0938
  178SOPE  H18T20309   0.947   5.077   8.633  0.2367  0.7662 -0.2886
  178SOPE   C3320310   0.599   5.293   9.906  0.0584  0.2564  0.3418
  178SOPE   H3X20311   0.639   5.213   9.840  1.6610  0.0140  1.5852
  178SOPE   H3Y20312   0.666   5.381   9.892  0.8418 -0.0820  1.8410
  178SOPE   C3420313   0.453   5.324   9.872  0.3759 -0.3377 -0.2888
  178SOPE   H4X20314   0.410   5.405   9.934  3.4552  1.4868 -0.4170
  178SOPE   H4Y20315   0.396   5.232   9.896 -0.2487 -0.6190 -2.7250
  178SOPE   C3520316   0.429   5.364   9.724 -0.5503  0.4044 -0.1463
  178SOPE   H5X20317   0.493   5.451   9.699  0.2967  0.3254  1.6310
  178SOPE   H5Y20318   0.325   5.395   9.701 -0.2011  2.0096  0.3263
  178SOPE   C3620319   0.471   5.255   9.619 -0.2099  0.0164 -0.3711
  178SOPE   H6X20320   0.392   5.179   9.634  0.0890 -0.0810  0.7728
  178SOPE   H6Y20321   0.566   5.199   9.632 -0.9526 -0.9225  1.0091
  178SOPE   C3720322   0.464   5.309   9.473  0.2134 -0.4664 -0.4133
  178SOPE   H7X20323   0.553   5.370   9.447 -0.6476  1.1528  0.3656
  178SOPE   H7Y20324   0.376   5.375   9.458  0.1491 -0.1699  1.1828
  178SOPE   C3820325   0.453   5.199   9.373 -0.1603 -0.1925 -0.8066
  178SOPE   H8X20326   0.359   5.141   9.386 -0.2283 -0.4536 -2.3056
  178SOPE   H8Y20327   0.535   5.131   9.402 -1.2919 -1.7337 -1.1532
  178SOPE   C3920328   0.456   5.240   9.225 -0.3972 -0.5637 -0.0818
  178SOPE   H9X20329   0.527   5.325   9.215 -0.3758 -0.7013 -1.2719
  178SOPE   H9Y20330   0.363   5.276   9.176  1.3608  0.6368 -2.6843
  178SOPE  C31020331   0.508   5.123   9.134  0.0523 -0.8199 -0.0807
  178SOPE  H10X20332   0.464   5.036   9.187  0.1072 -0.1862  1.0309
  178SOPE  H10Y20333   0.618   5.113   9.139  0.0445 -0.6173  0.6834
  178SOPE  C31120334   0.459   5.136   8.991 -0.1796 -0.2462  0.2562
  178SOPE  H11X20335   0.352   5.164   8.981 -1.0012 -2.7651  1.6436
  178SOPE  H11Y20336   0.472   5.039   8.938  0.2533 -0.4919  0.8027
  178SOPE  C31220337   0.551   5.232   8.902 -0.0934  0.5066  0.7244
  178SOPE  H12X20338   0.656   5.196   8.906 -0.4021 -0.3706  1.0272
  178SOPE  H12Y20339   0.547   5.336   8.941  3.9198  1.0542 -0.0776
  178SOPE  C31320340   0.505   5.241   8.753 -0.4453  0.2207 -0.0822
  178SOPE  H13X20341   0.398   5.265   8.762 -0.6635 -0.6299 -0.3144
  178SOPE  H13Y20342   0.516   5.138   8.713 -0.5138  0.2611 -0.2046
  178SOPE  C31420343   0.568   5.346   8.669  0.2742  0.5271 -0.1140
  178SOPE  H14X20344   0.672   5.373   8.697  0.7322 -2.6547  1.5975
  178SOPE  H14Y20345   0.526   5.444   8.701 -2.6484 -1.2666  1.7961
  178SOPE  C31520346   0.558   5.316   8.522 -0.1029  0.9021 -0.1045
  178SOPE  H15X20347   0.470   5.252   8.502 -0.8500  1.3514  1.6124
  178SOPE  H15Y20348   0.648   5.264   8.483 -0.8957 -0.6660  0.1028
  178SOPE  C31620349   0.546   5.455   8.450  0.9260  0.0443 -0.0203
  178SOPE  H16X20350   0.617   5.521   8.504  0.4884 -0.4452  1.1710
  178SOPE  H16Y20351   0.445   5.498   8.469 -0.7537 -3.6199 -0.1324
  178SOPE  C31720352   0.568   5.445   8.298  0.9572  0.2077 -0.0622
  178SOPE  H17X20353   0.637   5.360   8.278  0.2541 -0.1317 -1.0592
  178SOPE  H17Y20354   0.623   5.536   8.264  0.8745  0.3968  0.2999
  178SOPE  C31820355   0.434   5.431   8.231 -0.3181  0.3307  0.2400
  178SOPE  H18X20356   0.374   5.524   8.222 -0.4472 -0.0944 -4.2050
  178SOPE  H18Y20357   0.378   5.358   8.292 -2.1076 -0.1229 -1.8714
  178SOPE  H18Z20358   0.443   5.398   8.125  2.5471  1.2704  0.1416
  179SOPE     N20359   0.423   0.157   6.173  0.2390  0.3192  0.3307
  179SOPE   HN120360   0.488   0.117   6.103 -0.5094 -0.7975  0.2615
  179SOPE   HN220361   0.340   0.096   6.161 -1.6925  3.2890 -2.1581
  179SOPE   HN320362   0.398   0.257   6.156 -2.5618 -0.1303  1.4479
  179SOPE   C1220363   0.495   0.131   6.299 -0.1385 -0.8648 -0.0599
  179SOPE  H12A20364   0.592   0.184   6.296  0.5346 -1.8347  2.7052
  179SOPE  H12B20365   0.523   0.024   6.309  1.6430 -0.3917  0.1367
  179SOPE   C1120366   0.402   0.164   6.419  0.2660 -0.7890 -0.0161
  179SOPE  H11A20367   0.369   0.268   6.399 -0.8512 -0.7121  2.1604
  179SOPE  H11B20368   0.472   0.158   6.505 -0.9567 -1.6343  0.9365
  179SOPE     P20369   0.172   0.110   6.542  0.6495  0.0006 -0.2721
  179SOPE   O1320370   0.101  -0.020   6.582  0.2565  0.4091 -0.1375
  179SOPE   O1420371   0.084   0.219   6.487 -0.5696 -0.2741 -0.3344
  179SOPE   O1220372   0.289   0.080   6.440  0.1355 -0.1890 -0.3573
  179SOPE   O1120373   0.249   0.166   6.666 -0.3011 -0.4192  0.5191
  179SOPE    C120374   0.306   0.078   6.762 -0.3382  0.7790  0.2863
  179SOPE    HA20375   0.397   0.123   6.808  0.2834 -0.2172  0.0341
  179SOPE    HB20376   0.343  -0.015   6.715 -3.8933 -0.7104  0.3206
  179SOPE    C220377   0.216   0.055   6.892 -0.0619  0.4216  0.0704
  179SOPE    HS20378   0.127   0.007   6.846 -0.2868 -1.7851  2.7102
  179SOPE   O2120379   0.177   0.182   6.953 -0.4103  0.5582  0.4572
  179SOPE   C2120380   0.059   0.232   6.936  0.5018  0.3747 -0.5015
  179SOPE   O2220381  -0.033   0.166   6.884  0.2880 -0.3263  0.0481
  179SOPE   C2220382   0.046   0.371   6.986 -0.2815  0.1705  0.1303
  179SOPE   H2R20383  -0.009   0.420   6.902 -1.6091 -0.8695  0.3732
  179SOPE   H2S20384   0.148   0.415   6.992  0.3264 -0.9850 -1.2709
  179SOPE    C320385   0.276  -0.055   6.988 -0.4367  0.2220 -0.1409
  179SOPE    HX20386   0.307  -0.145   6.931  0.6742  0.0429  0.7232
  179SOPE    HY20387   0.207  -0.098   7.064  0.6070 -1.1246  0.0617
  179SOPE   O3120388   0.399  -0.016   7.059 -0.0904  0.0978 -0.1720
  179SOPE   C3120389   0.375   0.060   7.164 -0.6930  0.2360 -0.3868
  179SOPE   O3220390   0.268   0.065   7.221  0.7548 -0.9004 -0.3489
  179SOPE   C3220391   0.511   0.130   7.210  0.2963 -0.3557 -0.0673
  179SOPE   H2X20392   0.518   0.202   7.126 -3.1695  0.4198  0.2286
  179SOPE   H2Y20393   0.585   0.047   7.200  0.5608 -0.1229 -0.0514
  179SOPE   C2320394  -0.029   0.370   7.118  0.2144  0.0889 -0.2413
  179SOPE   H3R20395  -0.130   0.325   7.114  1.2697 -2.3068 -0.9185
  179SOPE   H3S20396  -0.035   0.474   7.158  0.5029 -0.3762  1.0460
  179SOPE   C2420397   0.039   0.303   7.236  0.0086  0.6929 -0.9822
  179SOPE   H4R20398   0.026   0.193   7.224  0.5203  0.4645  0.3732
  179SOPE   H4S20399   0.147   0.328   7.229 -0.2133  3.1295  2.7928
  179SOPE   C2520400   0.011   0.369   7.370 -0.0812  0.4866 -0.4202
  179SOPE   H5R20401   0.060   0.468   7.367 -1.3351  1.1218  0.2498
  179SOPE   H5S20402  -0.099   0.380   7.378 -0.2818 -0.3538 -1.6868
  179SOPE   C2620403   0.082   0.303   7.492 -0.5006 -0.1199  0.5309
  179SOPE   H6R20404   0.049   0.197   7.490  0.0338 -0.3215  1.6540
  179SOPE   H6S20405   0.190   0.306   7.467 -0.1292 -1.2540  1.9309
  179SOPE   C2720406   0.051   0.366   7.627 -0.0873  0.2718  0.3796
  179SOPE   H7R20407   0.098   0.467   7.624  0.7827 -0.0630  2.2945
  179SOPE   H7S20408  -0.060   0.368   7.631 -0.1746 -1.9461 -0.1856
  179SOPE   C2820409   0.103   0.290   7.748 -0.2935  0.0298 -0.6793
  179SOPE   H8R20410   0.200   0.236   7.743 -1.0890 -1.3938 -0.9814
  179SOPE   H8S20411   0.112   0.367   7.829  1.9441  0.8496 -1.6556
  179SOPE   C2920412   0.012   0.181   7.800 -0.1813  0.1481 -0.1108
  179SOPE   H9120413  -0.063   0.136   7.732 -0.0074 -1.4248  0.7128
  179SOPE  C21020414   0.012   0.124   7.920  0.3896  0.0048  0.7146
  179SOPE  H10120415  -0.050   0.034   7.931  2.1041 -1.1975  0.7962
  179SOPE  C21120416   0.087   0.169   8.042 -0.3113  0.9555  0.0369
  179SOPE  H11R20417   0.154   0.257   8.037 -1.7149  2.3574  3.8401
  179SOPE  H11S20418   0.152   0.090   8.085 -1.4822 -0.9903 -1.6403
  179SOPE  C21220419  -0.020   0.208   8.149 -0.0179 -0.0207  0.5663
  179SOPE  H12R20420  -0.088   0.124   8.173  0.7755 -0.6816  0.5038
  179SOPE  H12S20421  -0.081   0.298   8.122 -0.7233  0.9692  4.9718
  179SOPE  C21320422   0.057   0.241   8.287 -0.2047  0.8820 -0.4521
  179SOPE  H13R20423   0.137   0.316   8.271 -0.9186  1.5000 -1.1696
  179SOPE  H13S20424   0.098   0.146   8.328 -0.0869  2.0458  2.2470
  179SOPE  C21420425  -0.038   0.281   8.404 -0.0647  0.1438  0.4729
  179SOPE  H14R20426   0.022   0.267   8.497  0.7303 -4.5709 -0.6382
  179SOPE  H14S20427  -0.121   0.208   8.410 -0.5021  0.6341  0.4388
  179SOPE  C21520428  -0.090   0.425   8.409  0.5539  0.0016 -0.9993
  179SOPE  H15R20429  -0.156   0.451   8.323  0.1683  1.8959 -0.1533
  179SOPE  H15S20430   0.002   0.487   8.400  1.3998 -1.2092 -0.6893
  179SOPE  C21620431  -0.158   0.466   8.542 -0.2529 -0.1032  0.3519
  179SOPE  H16R20432  -0.250   0.405   8.554 -0.2730 -0.1068  0.1844
  179SOPE  H16S20433  -0.189   0.573   8.549  1.2614  0.2728  1.6366
  179SOPE  C21720434  -0.076   0.450   8.675  0.0627  0.6703  0.5787
  179SOPE  H17R20435   0.022   0.499   8.657  1.4622 -2.5551 -0.9782
  179SOPE  H17S20436  -0.055   0.341   8.687  1.9446  1.1236  1.4905
  179SOPE  C21820437  -0.159   0.519   8.789 -0.2187  0.2474  0.6744
  179SOPE  H18R20438  -0.181   0.627   8.773  0.0913  0.7850  3.5880
  179SOPE  H18S20439  -0.108   0.490   8.883  0.9442 -1.7893 -0.5247
  179SOPE  H18T20440  -0.258   0.470   8.799 -0.9130  1.7407  1.2944
  179SOPE   C3320441   0.493   0.202   7.349 -0.6246 -0.6624  0.3320
  179SOPE   H3X20442   0.405   0.269   7.344 -0.0474  0.1572  1.0723
  179SOPE   H3Y20443   0.580   0.266   7.373 -1.7989  1.1439 -0.1757
  179SOPE   C3420444   0.464   0.097   7.459 -0.0602 -0.9345 -0.1957
  179SOPE   H4X20445   0.546   0.023   7.451  0.2166 -0.5714 -0.7230
  179SOPE   H4Y20446   0.372   0.037   7.440 -1.8638  1.6102  0.2228
  179SOPE   C3520447   0.460   0.158   7.598 -0.0792  0.3172 -0.4079
  179SOPE   H5X20448   0.384   0.238   7.606 -0.4412 -0.0986  0.3714
  179SOPE   H5Y20449   0.561   0.198   7.624 -0.0793 -0.1393  0.3340
  179SOPE   C3620450   0.442   0.048   7.708  1.1538 -0.6144 -0.0859
  179SOPE   H6X20451   0.438   0.095   7.808  1.5426  0.4517 -0.5712
  179SOPE   H6Y20452   0.526  -0.025   7.710 -0.3425 -2.4633 -1.4912
  179SOPE   C3720453   0.317  -0.030   7.701  0.0350 -0.2055 -0.3014
  179SOPE   H7X20454   0.345  -0.123   7.647 -0.5313  0.5139 -1.8590
  179SOPE   H7Y20455   0.240   0.021   7.639  0.2545 -0.1952 -0.5676
  179SOPE   C3820456   0.258  -0.085   7.828  0.6690  0.2110 -0.3598
  179SOPE   H8X20457   0.147  -0.093   7.820  0.2486  0.2924  4.0651
  179SOPE   H8Y20458   0.283  -0.018   7.913  3.1324  0.2113 -1.0464
  179SOPE   C3920459   0.316  -0.223   7.870  0.0792 -0.2487  0.2273
  179SOPE   H9X20460   0.426  -0.213   7.866  0.1015 -0.5337  0.1041
  179SOPE   H9Y20461   0.286  -0.305   7.801  0.5600 -0.2708  0.0469
  179SOPE  C31020462   0.290  -0.259   8.024  0.5436  0.1103 -0.2943
  179SOPE  H10X20463   0.181  -0.271   8.042  0.8114  0.6169  1.7840
  179SOPE  H10Y20464   0.320  -0.171   8.084  0.8551 -2.3010  3.2625
  179SOPE  C31120465   0.371  -0.388   8.062  0.0377  0.2988 -0.0204
  179SOPE  H11X20466   0.478  -0.369   8.038 -0.1229  1.6612  0.3145
  179SOPE  H11Y20467   0.342  -0.476   8.001  1.5242 -0.3420  0.1638
  179SOPE  C31220468   0.357  -0.424   8.208 -0.1853  0.3063 -0.1578
  179SOPE  H12X20469   0.251  -0.433   8.241 -0.2029 -0.3518 -0.3907
  179SOPE  H12Y20470   0.407  -0.341   8.262 -1.1695  1.4761 -1.0007
  179SOPE  C31320471   0.419  -0.559   8.251  0.0693  0.1178 -0.4935
  179SOPE  H13X20472   0.526  -0.554   8.222 -0.2677 -1.0110 -1.9781
  179SOPE  H13Y20473   0.371  -0.646   8.202 -0.9690  1.8704 -2.6721
  179SOPE  C31420474   0.433  -0.571   8.408  0.0012 -0.4989  0.9192
  179SOPE  H14X20475   0.482  -0.482   8.453  1.7427 -0.9096 -0.0868
  179SOPE  H14Y20476   0.496  -0.661   8.427 -2.5860 -1.9410  3.0818
  179SOPE  C31520477   0.304  -0.609   8.473  0.4521 -0.6678 -0.2725
  179SOPE  H15X20478   0.264  -0.697   8.417 -0.5378  0.0413 -0.6913
  179SOPE  H15Y20479   0.234  -0.524   8.460  1.5493  0.6161  1.9056
  179SOPE  C31620480   0.301  -0.638   8.625  0.2586 -0.4058 -0.0509
  179SOPE  H16X20481   0.347  -0.738   8.644  0.0272 -0.1911  1.7170
  179SOPE  H16Y20482   0.191  -0.654   8.638  0.0546  2.7459  2.7535
  179SOPE  C31720483   0.356  -0.522   8.710  0.2277 -0.1079  0.0871
  179SOPE  H17X20484   0.467  -0.516   8.708  0.5219 -4.1369 -0.9953
  179SOPE  H17Y20485   0.343  -0.556   8.815  0.6212 -1.3096 -0.2396
  179SOPE  C31820486   0.290  -0.384   8.698 -0.0739  0.1189  0.2703
  179SOPE  H18X20487   0.307  -0.332   8.601 -0.0241  2.3476  1.4309
  179SOPE  H18Y20488   0.325  -0.317   8.779  0.8434 -0.2768  0.2067
  179SOPE  H18Z20489   0.180  -0.395   8.705 -0.4188  3.2002  0.5916
  180SOPE     N20490   5.154   0.079   6.341  0.1263  0.2142 -0.1122
  180SOPE   HN120491   5.210   0.002   6.298  0.0594  0.4745 -0.6773
  180SOPE   HN220492   5.171   0.079   6.443 -0.9804  1.3692  0.0872
  180SOPE   HN320493   5.053   0.073   6.319 -0.0317  0.5562  0.5070
  180SOPE   C1220494   5.212   0.196   6.266  0.5021 -0.5773  0.6574
  180SOPE  H12A20495   5.181   0.292   6.313  0.9237 -0.7314  1.2476
  180SOPE  H12B20496   5.172   0.202   6.162 -0.3291  0.0659  1.0032
  180SOPE   C1120497   5.363   0.207   6.268  0.1215  0.8006  0.1256
  180SOPE  H11A20498   5.395   0.209   6.374 -0.0411 -2.4745  0.2872
  180SOPE  H11B20499   5.396   0.304   6.226  1.1140  1.4192  2.2761
  180SOPE     P20500   5.579   0.077   6.171 -0.0780  0.1448 -0.2577
  180SOPE   O1320501   5.617   0.216   6.153  0.4308  0.2705  0.3878
  180SOPE   O1420502   5.607  -0.020   6.067 -0.1672  0.1981 -0.1998
  180SOPE   O1220503   5.419   0.092   6.197 -0.3729  0.0849 -0.3860
  180SOPE   O1120504   5.634   0.019   6.311  0.0170  0.3186 -0.0324
  180SOPE    C120505   5.539  -0.044   6.403  0.6665  0.0802  0.3800
  180SOPE    HA20506   5.460  -0.108   6.358  0.7640  0.3540 -0.1920
  180SOPE    HB20507   5.486   0.030   6.467 -2.6739 -1.7105 -0.1780
  180SOPE    C220508   5.614  -0.130   6.508 -0.3655  0.4490  0.3741
  180SOPE    HS20509   5.545  -0.198   6.563  0.6498 -0.1092  0.9592
  180SOPE   O2120510   5.690  -0.058   6.600 -0.2463  0.2919 -0.1380
  180SOPE   C2120511   5.619  -0.009   6.697 -0.3033  0.2556  0.4455
  180SOPE   O2220512   5.500  -0.022   6.718 -0.0921  0.5481  0.1154
  180SOPE   C2220513   5.710   0.067   6.796 -0.5272 -0.4047  0.4821
  180SOPE   H2R20514   5.674   0.171   6.809 -1.5689 -0.5312 -1.2290
  180SOPE   H2S20515   5.810   0.081   6.748  0.6658  0.9027  3.2321
  180SOPE    C320516   5.711  -0.234   6.430  0.3490  0.4631  0.9334
  180SOPE    HX20517   5.780  -0.185   6.358 -0.4390  0.6424  0.3034
  180SOPE    HY20518   5.645  -0.303   6.373 -2.9064  1.8976  2.8541
  180SOPE   O3120519   5.804  -0.304   6.521 -0.3470  0.2322  0.0316
  180SOPE   C3120520   5.737  -0.393   6.601  0.9324 -0.4195  0.3951
  180SOPE   O3220521   5.619  -0.396   6.602  0.0006 -0.4939  0.0827
  180SOPE   C3220522   5.824  -0.478   6.692 -0.1608  0.4891 -0.9990
  180SOPE   H2X20523   5.904  -0.425   6.750  0.2131 -2.2188  1.0861
  180SOPE   H2Y20524   5.884  -0.533   6.617 -0.4670 -0.1632 -0.7603
  180SOPE   C2320525   5.727  -0.023   6.920  0.1310  0.3097 -1.1313
  180SOPE   H3R20526   5.637  -0.083   6.950  1.0859 -0.6449 -0.1235
  180SOPE   H3S20527   5.755   0.045   7.003 -1.3311 -1.9587  1.3522
  180SOPE   C2420528   5.844  -0.121   6.912 -0.2083  0.0520 -0.3274
  180SOPE   H4R20529   5.833  -0.171   6.813 -0.1987 -0.3447 -0.1267
  180SOPE   H4S20530   5.942  -0.068   6.909 -1.0641  1.7023  0.0696
  180SOPE   C2520531   5.849  -0.243   7.000  0.3633 -0.1619  0.1567
  180SOPE   H5R20532   5.758  -0.306   6.995  0.4419 -0.1563 -1.5656
  180SOPE   H5S20533   5.915  -0.316   6.949 -0.2195 -1.4264  1.1954
  180SOPE   C2620534   5.895  -0.219   7.146 -0.0888  0.8865 -0.6325
  180SOPE   H6R20535   5.986  -0.155   7.153  1.4244 -1.2017 -0.4495
  180SOPE   H6S20536   5.811  -0.177   7.205 -1.0713 -1.3073 -0.4384
  180SOPE   C2720537   5.940  -0.353   7.215 -0.3928 -0.0616  0.5817
  180SOPE   H7R20538   5.861  -0.428   7.195  0.8218 -1.9578  2.7368
  180SOPE   H7S20539   6.032  -0.396   7.171 -0.9996 -0.0421 -0.7261
  180SOPE   C2820540   5.967  -0.333   7.373 -0.7371 -0.1397  0.6832
  180SOPE   H8R20541   5.875  -0.281   7.407  0.6708  1.1258  2.6818
  180SOPE   H8S20542   5.969  -0.438   7.409 -0.7361 -0.1214  0.7363
  180SOPE   C2920543   6.097  -0.252   7.395  0.8000 -0.2967  0.0744
  180SOPE   H9120544   6.173  -0.254   7.316  0.8196 -0.5785  0.1027
  180SOPE  C21020545   6.125  -0.182   7.503 -0.6340 -0.4827  0.0604
  180SOPE  H10120546   6.222  -0.131   7.516 -1.6654  1.3174  0.9475
  180SOPE  C21120547   6.043  -0.175   7.627 -0.3428 -0.3134  0.2182
  180SOPE  H11R20548   5.972  -0.260   7.615 -4.3025  2.9337 -0.2997
  180SOPE  H11S20549   5.977  -0.086   7.638 -0.2548 -0.2832  0.5115
  180SOPE  C21220550   6.117  -0.184   7.755 -0.4004 -0.3621  0.3081
  180SOPE  H12R20551   6.167  -0.086   7.774  0.0528 -0.2178 -1.5214
  180SOPE  H12S20552   6.203  -0.253   7.738  0.0207  0.3025 -0.3334
  180SOPE  C21320553   6.045  -0.248   7.877  0.8931 -0.6551  0.6617
  180SOPE  H13R20554   6.008  -0.352   7.863  0.6291 -0.4980  0.2065
  180SOPE  H13S20555   5.954  -0.190   7.902 -0.1493 -0.8061 -2.5538
  180SOPE  C21420556   6.152  -0.247   7.998  0.2374  0.1011  0.3614
  180SOPE  H14R20557   6.170  -0.139   8.014 -0.7397  0.2314  0.6214
  180SOPE  H14S20558   6.249  -0.276   7.954 -0.1994  0.9203 -1.1932
  180SOPE  C21520559   6.108  -0.321   8.125 -0.2190  0.0315 -0.0783
  180SOPE  H15R20560   6.097  -0.428   8.097  0.9177 -0.3030  0.6937
  180SOPE  H15S20561   6.015  -0.282   8.172  0.5361 -0.8626  2.2276
  180SOPE  C21620562   6.213  -0.299   8.238  0.2838  0.0329 -0.2896
  180SOPE  H16R20563   6.229  -0.191   8.261  1.2716  0.1152 -1.3474
  180SOPE  H16S20564   6.305  -0.343   8.196  0.1985  0.7449 -1.2228
  180SOPE  C21720565   6.185  -0.399   8.356 -0.2535 -0.5735 -0.3964
  180SOPE  H17R20566   6.079  -0.433   8.358 -0.7853  1.1016  1.8928
  180SOPE  H17S20567   6.219  -0.340   8.444  1.0495  0.2001 -1.4026
  180SOPE  C21820568   6.269  -0.528   8.359  0.4321  0.3200  0.2068
  180SOPE  H18R20569   6.375  -0.511   8.332  0.6645 -0.0682  0.8615
  180SOPE  H18S20570   6.227  -0.596   8.282  0.3576  0.5051  0.0835
  180SOPE  H18T20571   6.274  -0.583   8.455  0.5413  1.6772  0.9825
  180SOPE   C3320572   5.746  -0.578   6.777  0.5100  0.3079 -0.1906
  180SOPE   H3X20573   5.656  -0.623   6.730 -0.3461  1.6511  0.1503
  180SOPE   H3Y20574   5.716  -0.533   6.874  4.3757 -2.9480  2.6951
  180SOPE   C3420575   5.833  -0.690   6.841  0.3245  0.5770  0.3415
  180SOPE   H4X20576   5.922  -0.633   6.875  0.1680  1.4473 -0.6570
  180SOPE   H4Y20577   5.864  -0.766   6.767 -0.0472  0.7436  0.0121
  180SOPE   C3520578   5.769  -0.764   6.964 -0.5519  0.2453  0.4198
  180SOPE   H5X20579   5.707  -0.850   6.932 -1.4919  1.0479  0.1001
  180SOPE   H5Y20580   5.697  -0.691   7.006 -0.8229  1.6807 -2.4486
  180SOPE   C3620581   5.875  -0.793   7.073 -0.3808  0.2083  0.7112
  180SOPE   H6X20582   5.938  -0.708   7.106  1.1173  0.2247 -2.0787
  180SOPE   H6Y20583   5.940  -0.871   7.028 -0.8012 -1.3361  2.7036
  180SOPE   C3720584   5.819  -0.840   7.211  0.3819  0.3533 -0.0083
  180SOPE   H7X20585   5.893  -0.902   7.266  0.1635  0.8536  0.8593
  180SOPE   H7Y20586   5.733  -0.905   7.182  0.5673 -0.2305  0.7514
  180SOPE   C3820587   5.765  -0.724   7.295 -0.2196 -0.1802  0.2833
  180SOPE   H8X20588   5.662  -0.700   7.259  0.8166  0.3494 -2.4402
  180SOPE   H8Y20589   5.830  -0.635   7.300 -1.0457  0.3888  1.1731
  180SOPE   C3920590   5.744  -0.762   7.441 -0.0305  0.1903  0.0620
  180SOPE   H9X20591   5.834  -0.796   7.496 -1.1354 -0.2907  1.5916
  180SOPE   H9Y20592   5.682  -0.854   7.446 -0.2411  0.3111 -0.3353
  180SOPE  C31020593   5.662  -0.656   7.516  0.0006  0.1302 -0.1362
  180SOPE  H10X20594   5.553  -0.673   7.503 -0.2100  0.1354  1.5317
  180SOPE  H10Y20595   5.702  -0.568   7.462  0.8366 -0.1386  0.0340
  180SOPE  C31120596   5.693  -0.643   7.664 -0.0396  0.9651  0.5358
  180SOPE  H11X20597   5.655  -0.729   7.722 -1.1224 -0.4710 -2.2253
  180SOPE  H11Y20598   5.642  -0.547   7.690 -0.7098  0.4243  1.2372
  180SOPE  C31220599   5.843  -0.609   7.693 -1.0355  0.2064  0.8665
  180SOPE  H12X20600   5.864  -0.509   7.649  0.9441 -0.6319 -0.1445
  180SOPE  H12Y20601   5.906  -0.686   7.644  0.5707  1.9583  0.1180
  180SOPE  C31320602   5.884  -0.601   7.840 -0.3384  0.2939 -0.0050
  180SOPE  H13X20603   5.852  -0.504   7.883  0.5404  0.0704  1.1903
  180SOPE  H13Y20604   5.995  -0.614   7.838  0.0094  3.1814 -1.6445
  180SOPE  C31420605   5.842  -0.721   7.926  0.0505  0.7028  0.2056
  180SOPE  H14X20606   5.874  -0.820   7.888  0.5010 -0.1524  2.7197
  180SOPE  H14Y20607   5.731  -0.728   7.937  0.1347  0.1680  0.7459
  180SOPE  C31520608   5.902  -0.705   8.070  0.5763 -0.0064  0.2265
  180SOPE  H15X20609   5.878  -0.601   8.099 -0.2955  0.4415 -2.0441
  180SOPE  H15Y20610   6.013  -0.702   8.063  0.5052  0.5749 -0.6784
  180SOPE  C31620611   5.852  -0.803   8.178 -0.0155 -0.4657 -0.6405
  180SOPE  H16X20612   5.911  -0.794   8.272  0.8648 -0.7531 -1.1583
  180SOPE  H16Y20613   5.858  -0.902   8.129  2.5184  0.4440 -2.2620
  180SOPE  C31720614   5.707  -0.771   8.224  0.4972  0.1461  0.4579
  180SOPE  H17X20615   5.633  -0.780   8.142 -2.4856 -3.7161  3.4023
  180SOPE  H17Y20616   5.688  -0.667   8.260  1.1337  0.3026  0.3582
  180SOPE  C31820617   5.647  -0.865   8.326 -0.1473  0.0022  1.0492
  180SOPE  H18X20618   5.694  -0.858   8.426  0.6055 -1.2771  0.7991
  180SOPE  H18Y20619   5.647  -0.973   8.298 -4.7006 -0.4275  2.3751
  180SOPE  H18Z20620   5.547  -0.822   8.348  1.2742  3.2488  1.3319
  181SOPE     N20621   5.048   3.924   5.757 -0.0810  0.1584 -0.5008
  181SOPE   HN120622   5.118   3.989   5.798 -0.5104  1.4887 -1.8229
  181SOPE   HN220623   5.098   3.871   5.683  2.1347 -1.7329  2.2386
  181SOPE   HN320624   4.983   3.983   5.701 -0.0869 -1.6258 -2.4205
  181SOPE   C1220625   4.980   3.842   5.864 -0.1982 -0.5673  0.1913
  181SOPE  H12A20626   4.890   3.797   5.817  0.2542 -0.8871 -0.3617
  181SOPE  H12B20627   4.959   3.908   5.951 -0.4679 -1.4085  0.7719
  181SOPE   C1120628   5.083   3.743   5.912  0.4049  0.4309  0.6169
  181SOPE  H11A20629   5.119   3.674   5.833  1.4849  1.4815  0.1643
  181SOPE  H11B20630   5.050   3.680   5.997 -0.8657 -0.1678 -0.3088
  181SOPE     P20631   5.322   3.770   6.038  0.3086  0.2718  0.1604
  181SOPE   O1320632   5.451   3.757   5.958  0.6922  0.1757 -0.2383
  181SOPE   O1420633   5.272   3.649   6.106  0.2119  0.9881  0.2446
  181SOPE   O1220634   5.208   3.812   5.946  0.8099 -0.5361 -0.2244
  181SOPE   O1120635   5.330   3.904   6.122 -0.0167  0.1365 -0.5392
  181SOPE    C120636   5.211   3.963   6.172 -0.3017 -0.2364 -0.4355
  181SOPE    HA20637   5.130   3.890   6.191  1.0518 -1.1970  1.8497
  181SOPE    HB20638   5.166   4.033   6.099 -1.1138 -1.4215 -1.0979
  181SOPE    C220639   5.239   4.048   6.302 -0.4782 -0.5969 -0.1428
  181SOPE    HS20640   5.133   4.066   6.331 -0.0759 -0.3736  1.2144
  181SOPE   O2120641   5.302   4.175   6.275 -0.9641  0.0485 -0.0183
  181SOPE   C2120642   5.271   4.266   6.367  0.1743  0.2917 -0.2115
  181SOPE   O2220643   5.188   4.244   6.452  0.4443 -0.2877  0.0824
  181SOPE   C2220644   5.364   4.387   6.362 -0.9085  0.4183  0.7344
  181SOPE   H2R20645   5.366   4.424   6.257 -1.1107 -0.4227  0.4278
  181SOPE   H2S20646   5.463   4.349   6.396 -1.5425 -1.5394  0.4422
  181SOPE    C320647   5.313   3.961   6.406  0.2627  0.2222  0.6167
  181SOPE    HX20648   5.422   3.966   6.385  0.2471  0.6953  0.6391
  181SOPE    HY20649   5.276   3.859   6.383  0.2986 -0.0856  1.8767
  181SOPE   O3120650   5.291   3.999   6.541  0.1789  1.1532 -0.3382
  181SOPE   C3120651   5.207   3.917   6.612  0.3082 -0.3648  0.4116
  181SOPE   O3220652   5.169   3.806   6.572 -0.4712  0.4824 -0.3587
  181SOPE   C3220653   5.159   3.986   6.743  0.5455 -0.2804  0.0567
  181SOPE   H2X20654   5.051   3.964   6.752  0.9003 -2.0824  0.0212
  181SOPE   H2Y20655   5.176   4.096   6.734  1.2853 -0.5522 -2.1015
  181SOPE   C2320656   5.323   4.516   6.452  0.4907  0.1173 -0.5473
  181SOPE   H3R20657   5.415   4.577   6.463 -0.0699  0.5099  2.6490
  181SOPE   H3S20658   5.291   4.469   6.548  0.7406  0.2461 -0.4020
  181SOPE   C2420659   5.200   4.583   6.401  0.1977  0.3654  0.3389
  181SOPE   H4R20660   5.222   4.646   6.312  1.5265 -0.0066  0.3967
  181SOPE   H4S20661   5.120   4.511   6.373  1.9433 -0.2036 -3.4128
  181SOPE   C2520662   5.141   4.680   6.503 -0.1899 -0.7443 -0.9562
  181SOPE   H5R20663   5.050   4.730   6.465  0.2987  0.0913 -1.0519
  181SOPE   H5S20664   5.115   4.627   6.596 -1.0221  0.5367 -0.4510
  181SOPE   C2620665   5.242   4.789   6.567  0.0416 -0.0849  0.4177
  181SOPE   H6R20666   5.311   4.748   6.644  0.2169  0.0989  0.3610
  181SOPE   H6S20667   5.301   4.834   6.484 -0.9357  1.2701  0.4469
  181SOPE   C2720668   5.173   4.910   6.642  0.0371 -0.3044 -0.2327
  181SOPE   H7R20669   5.259   4.969   6.682  0.3139 -0.4375 -0.6256
  181SOPE   H7S20670   5.108   4.972   6.578  1.7032 -1.5438 -3.2688
  181SOPE   C2820671   5.076   4.888   6.759  0.0811  0.2511 -0.0295
  181SOPE   H8R20672   5.047   4.989   6.798 -1.7554 -0.2338 -0.0580
  181SOPE   H8S20673   4.988   4.842   6.710  0.4643 -1.4592  0.8581
  181SOPE   C2920674   5.117   4.779   6.857 -0.4207 -0.5648  0.3887
  181SOPE   H9120675   5.128   4.677   6.818  0.2717  0.3766 -1.9674
  181SOPE  C21020676   5.145   4.809   6.987 -0.2174  0.0139 -0.3407
  181SOPE  H10120677   5.162   4.721   7.052  1.9231  0.7211  0.0682
  181SOPE  C21120678   5.138   4.945   7.056 -0.1299  0.3782  0.2496
  181SOPE  H11R20679   5.064   5.013   7.009 -0.5171  0.7662  1.4018
  181SOPE  H11S20680   5.233   5.001   7.071  0.9658 -0.6426 -2.6196
  181SOPE  C21220681   5.073   4.926   7.194 -0.1647 -0.3711  0.3853
  181SOPE  H12R20682   5.132   4.865   7.265  0.7206  0.7902  0.6644
  181SOPE  H12S20683   4.972   4.883   7.177 -0.2602 -0.4505  1.1574
  181SOPE  C21320684   5.056   5.060   7.272 -0.5729 -0.0470 -0.1629
  181SOPE  H13R20685   4.976   5.119   7.221 -0.8245  0.1126  0.4008
  181SOPE  H13S20686   5.157   5.104   7.260 -0.0834 -1.8606 -2.9187
  181SOPE  C21420687   5.024   5.055   7.423 -0.0578 -0.1059 -0.5733
  181SOPE  H14R20688   5.090   4.979   7.469 -0.7319 -0.0209  0.5670
  181SOPE  H14S20689   4.922   5.032   7.459  0.5852 -0.0931  1.2988
  181SOPE  C21520690   5.056   5.189   7.487 -0.6130 -0.2764 -1.0281
  181SOPE  H15R20691   4.988   5.273   7.462 -0.9982 -0.4960 -0.7205
  181SOPE  H15S20692   5.153   5.229   7.450 -0.4127 -0.2206 -0.4532
  181SOPE  C21620693   5.057   5.169   7.641  0.6648  0.3218  0.5722
  181SOPE  H16R20694   5.136   5.093   7.661 -0.5275 -1.6684 -2.0928
  181SOPE  H16S20695   4.957   5.128   7.669  1.1348 -1.1747  0.1345
  181SOPE  C21720696   5.075   5.303   7.706 -0.1331  0.1293  0.8071
  181SOPE  H17R20697   4.986   5.369   7.698 -0.9446 -0.8324  1.8028
  181SOPE  H17S20698   5.157   5.350   7.647 -1.2502  0.5179 -0.4532
  181SOPE  C21820699   5.112   5.289   7.857 -0.4602  0.6366 -0.3955
  181SOPE  H18R20700   5.204   5.227   7.866 -0.5385  0.7070  0.8620
  181SOPE  H18S20701   5.029   5.237   7.909 -1.7287  2.7464 -0.2578
  181SOPE  H18T20702   5.133   5.389   7.902 -0.0869 -0.0736  1.0367
  181SOPE   C3320703   5.237   3.928   6.868 -0.2361 -0.2024 -0.5492
  181SOPE   H3X20704   5.346   3.948   6.859 -0.1273 -0.7784 -0.4972
  181SOPE   H3Y20705   5.226   3.819   6.855  0.4263 -0.4248  0.7026
  181SOPE   C3420706   5.186   3.974   7.007 -0.1114  0.2621  0.1809
  181SOPE   H4X20707   5.075   3.975   7.015 -0.2916  1.3121 -2.2032
  181SOPE   H4Y20708   5.213   4.080   7.022  0.7569 -0.0077  0.5623
  181SOPE   C3520709   5.249   3.903   7.130  0.3329  0.4770  0.2114
  181SOPE   H5X20710   5.360   3.905   7.128  0.3981 -0.7544  1.5350
  181SOPE   H5Y20711   5.239   3.794   7.114  0.5124  0.5559 -0.4212
  181SOPE   C3620712   5.183   3.962   7.248  0.4517  0.0916 -0.1319
  181SOPE   H6X20713   5.073   3.947   7.243  0.6271 -1.0257 -0.8032
  181SOPE   H6Y20714   5.204   4.069   7.266  1.2065 -0.1235  0.2853
  181SOPE   C3720715   5.238   3.892   7.375 -0.5578  0.4025  0.1790
  181SOPE   H7X20716   5.345   3.863   7.374 -1.0074 -1.2852 -1.5093
  181SOPE   H7Y20717   5.178   3.800   7.394  2.9265 -1.7055  1.5237
  181SOPE   C3820718   5.221   3.979   7.498 -0.8389  0.2126  0.4802
  181SOPE   H8X20719   5.116   4.014   7.500 -0.8902  0.0139  1.5038
  181SOPE   H8Y20720   5.287   4.068   7.500  0.8432 -0.9550 -1.2882
  181SOPE   C3920721   5.254   3.887   7.612  0.0136  0.2357 -0.1981
  181SOPE   H9X20722   5.353   3.847   7.581  0.2080  0.8973 -0.4346
  181SOPE   H9Y20723   5.187   3.801   7.633  0.9640 -0.6748 -0.8733
  181SOPE  C31020724   5.278   3.968   7.742 -0.7832 -0.0503  0.6658
  181SOPE  H10X20725   5.175   4.007   7.760 -0.1736  2.4715 -1.0467
  181SOPE  H10Y20726   5.348   4.052   7.726 -0.8062  0.1096  1.3713
  181SOPE  C31120727   5.315   3.870   7.855 -0.6257  0.1607 -0.1034
  181SOPE  H11X20728   5.409   3.822   7.820 -0.9627  0.9425 -2.1474
  181SOPE  H11Y20729   5.247   3.782   7.857 -1.4995  0.8486  1.3072
  181SOPE  C31220730   5.313   3.930   7.999 -0.4185 -0.3328  0.3297
  181SOPE  H12X20731   5.218   3.988   8.005 -0.0536  0.2920  0.1524
  181SOPE  H12Y20732   5.388   4.012   7.996 -1.1538  0.3291 -1.0234
  181SOPE  C31320733   5.337   3.833   8.117  0.3228 -0.3711 -0.5632
  181SOPE  H13X20734   5.268   3.748   8.098 -1.1217  0.5784  0.2956
  181SOPE  H13Y20735   5.302   3.886   8.209  0.8992 -1.4862  0.3096
  181SOPE  C31420736   5.475   3.779   8.135  0.4526 -0.1375  0.2443
  181SOPE  H14X20737   5.477   3.747   8.242 -1.6024 -1.0150  0.0566
  181SOPE  H14Y20738   5.553   3.857   8.132  0.7649 -0.4576  0.0374
  181SOPE  C31520739   5.505   3.653   8.053  0.2218  0.1221  0.6711
  181SOPE  H15X20740   5.504   3.674   7.944  0.9625 -1.4946  0.3315
  181SOPE  H15Y20741   5.435   3.569   8.070  0.4466 -0.6033 -1.7542
  181SOPE  C31620742   5.646   3.595   8.070 -0.2860 -1.1516  0.0280
  181SOPE  H16X20743   5.676   3.584   8.176 -0.6504  1.6597  0.4504
  181SOPE  H16Y20744   5.715   3.666   8.020 -0.0754 -1.4298 -0.0774
  181SOPE  C31720745   5.679   3.455   8.014 -0.4734  0.4111  0.9241
  181SOPE  H17X20746   5.655   3.452   7.905  0.6567 -0.8749  0.6989
  181SOPE  H17Y20747   5.623   3.371   8.060 -1.0084  0.9933  1.3578
  181SOPE  C31820748   5.829   3.430   8.021 -0.4406 -0.2735  0.3229
  181SOPE  H18X20749   5.904   3.511   8.015  0.5153 -1.2541 -1.4730
  181SOPE  H18Y20750   5.864   3.370   7.934  1.5168 -1.5544  1.9652
  181SOPE  H18Z20751   5.851   3.374   8.115  1.1505 -0.9909 -0.4634
  182SOPE     N20752   5.616   5.849   6.078  0.1813 -0.2940 -0.7620
  182SOPE   HN120753   5.523   5.896   6.069  0.8410  0.7203 -2.7432
  182SOPE   HN220754   5.608   5.762   6.134  0.6826 -0.8365 -1.5150
  182SOPE   HN320755   5.666   5.922   6.132  0.0344 -1.0751  0.4496
  182SOPE   C1220756   5.692   5.823   5.949 -0.0780 -0.0515  0.8748
  182SOPE  H12A20757   5.702   5.917   5.891  1.0481 -1.8827 -1.9794
  182SOPE  H12B20758   5.633   5.757   5.882 -1.4284  1.6776  0.3109
  182SOPE   C1120759   5.832   5.769   5.977  0.2685  0.6360  0.1009
  182SOPE  H11A20760   5.893   5.855   6.013  0.7983 -0.3060  1.4855
  182SOPE  H11B20761   5.871   5.748   5.875  1.7351 -2.6714  1.2937
  182SOPE     P20762   5.983   5.610   6.123  0.0710  0.4832 -0.1171
  182SOPE   O1320763   6.070   5.728   6.125 -0.2360 -0.8830 -0.3333
  182SOPE   O1420764   6.040   5.500   6.045  0.2040  0.0064  0.1857
  182SOPE   O1220765   5.837   5.653   6.065 -0.1363 -0.3488 -0.1134
  182SOPE   O1120766   5.960   5.568   6.276 -0.1496  0.0101 -0.3305
  182SOPE    C120767   5.849   5.629   6.351  0.1003 -0.4262 -0.3871
  182SOPE    HA20768   5.753   5.595   6.305 -0.3961 -0.3631  0.5806
  182SOPE    HB20769   5.867   5.737   6.367 -0.1689 -0.5259  0.6437
  182SOPE    C220770   5.828   5.567   6.497  0.8518  0.5306  0.4258
  182SOPE    HS20771   5.739   5.622   6.536 -0.9201 -1.7894 -0.1830
  182SOPE   O2120772   5.943   5.581   6.580 -0.2451  0.2123 -0.0419
  182SOPE   C2120773   5.957   5.686   6.653 -0.0497 -0.0203 -0.6582
  182SOPE   O2220774   5.891   5.788   6.648 -0.6975  0.2268  0.1246
  182SOPE   C2220775   6.082   5.661   6.751  0.2689  0.2936  0.6788
  182SOPE   H2R20776   6.090   5.747   6.822 -0.5182 -0.1662  1.3390
  182SOPE   H2S20777   6.177   5.655   6.694 -1.8572  1.7522 -3.1331
  182SOPE    C320778   5.788   5.424   6.498  0.3929  0.3401 -0.9911
  182SOPE    HX20779   5.849   5.360   6.430  0.1706 -0.8273 -0.1030
  182SOPE    HY20780   5.685   5.422   6.458  0.5238 -2.7543 -1.2987
  182SOPE   O3120781   5.775   5.364   6.626  0.0366  0.6195 -0.4347
  182SOPE   C3120782   5.723   5.237   6.614  0.1886  0.1334  0.2152
  182SOPE   O3220783   5.717   5.168   6.513  0.3396 -0.4362 -0.2797
  182SOPE   C3220784   5.665   5.194   6.745 -0.1116 -0.2025  0.0406
  182SOPE   H2X20785   5.590   5.271   6.774 -0.9119 -0.5216 -1.1357
  182SOPE   H2Y20786   5.748   5.190   6.819  1.6795 -0.1543 -1.9243
  182SOPE   C2320787   6.061   5.536   6.834  0.4192 -0.3303  0.3841
  182SOPE   H3R20788   6.159   5.492   6.862  0.3373 -1.8814 -1.6562
  182SOPE   H3S20789   6.004   5.460   6.775 -0.7668  1.6794 -1.1421
  182SOPE   C2420790   5.993   5.575   6.965 -0.1435  0.2234 -0.0203
  182SOPE   H4R20791   6.040   5.661   7.017  1.8337 -1.0244  0.2842
  182SOPE   H4S20792   5.888   5.603   6.941 -0.3532 -2.0904 -2.0649
  182SOPE   C2520793   5.990   5.459   7.069  0.3693 -0.0782  0.0594
  182SOPE   H5R20794   5.944   5.372   7.017 -1.1696  1.3658 -1.0117
  182SOPE   H5S20795   6.093   5.427   7.099  0.4499 -0.2445 -0.3903
  182SOPE   C2620796   5.902   5.485   7.191 -0.7623  0.5625 -0.1002
  182SOPE   H6R20797   5.960   5.561   7.247  0.5881 -0.1661 -0.4890
  182SOPE   H6S20798   5.804   5.529   7.161 -0.3881  2.1781  0.9556
  182SOPE   C2720799   5.892   5.362   7.278  0.4350 -0.0926  0.3069
  182SOPE   H7R20800   5.798   5.302   7.273  0.3851  0.0967 -1.1226
  182SOPE   H7S20801   5.977   5.295   7.254 -0.5158 -1.4007  0.4480
  182SOPE   C2820802   5.896   5.400   7.430  0.5828  0.3093  0.3863
  182SOPE   H8R20803   5.812   5.472   7.440  0.5994  0.4891 -0.7700
  182SOPE   H8S20804   5.880   5.305   7.486 -1.0265  1.2741  1.6292
  182SOPE   C2920805   6.029   5.468   7.468  0.2676  0.6729 -0.4982
  182SOPE   H9120806   6.115   5.400   7.456 -1.7547 -2.1528  0.5144
  182SOPE  C21020807   6.054   5.595   7.506  1.2180 -0.4779 -0.3160
  182SOPE  H10120808   6.154   5.631   7.535  0.1706  1.0521  1.4718
  182SOPE  C21120809   5.963   5.715   7.517 -0.1629 -0.8911 -0.0364
  182SOPE  H11R20810   5.869   5.701   7.460 -0.2478 -0.4930  0.0064
  182SOPE  H11S20811   6.012   5.811   7.489 -1.2642  0.1878  1.6367
  182SOPE  C21220812   5.915   5.731   7.664 -0.5303 -0.0596  0.7924
  182SOPE  H12R20813   5.869   5.832   7.669  1.6820  0.8559  4.4154
  182SOPE  H12S20814   6.005   5.724   7.728 -0.1586 -1.3243  0.1471
  182SOPE  C21320815   5.812   5.628   7.697  0.6005 -0.1074  0.4418
  182SOPE  H13R20816   5.849   5.525   7.678 -0.3986  0.0222 -2.4247
  182SOPE  H13S20817   5.720   5.652   7.639 -0.9606 -2.6988  1.7916
  182SOPE  C21420818   5.786   5.630   7.842  0.0968  0.6659  0.1262
  182SOPE  H14R20819   5.746   5.732   7.859 -1.3101  0.1026  0.2222
  182SOPE  H14S20820   5.879   5.620   7.902  0.7560  1.1673 -0.8014
  182SOPE  C21520821   5.687   5.521   7.872  0.1649 -0.3170  0.1631
  182SOPE  H15R20822   5.739   5.425   7.891 -0.6493 -0.5826  1.1024
  182SOPE  H15S20823   5.611   5.490   7.796  0.4300 -3.1103  1.0006
  182SOPE  C21620824   5.613   5.548   8.009 -0.2092 -0.3782 -0.3166
  182SOPE  H16R20825   5.680   5.587   8.089 -0.3845 -0.0877 -0.3104
  182SOPE  H16S20826   5.576   5.457   8.061 -0.6168 -0.3040 -0.4791
  182SOPE  C21720827   5.497   5.645   7.989  0.0390  0.1591  0.1305
  182SOPE  H17R20828   5.441   5.638   7.894 -1.2162  1.1530  0.7829
  182SOPE  H17S20829   5.553   5.740   7.982  1.0300 -0.4114  0.1654
  182SOPE  C21820830   5.393   5.663   8.104  0.2394  0.2839 -0.2232
  182SOPE  H18R20831   5.442   5.676   8.203  1.1511 -0.8447 -0.5202
  182SOPE  H18S20832   5.333   5.570   8.116 -0.2154  0.8183  1.8686
  182SOPE  H18T20833   5.325   5.745   8.073  0.6721  1.3070  1.4822
  182SOPE   C3320834   5.605   5.054   6.736  0.4732  0.3605  0.0401
  182SOPE   H3X20835   5.678   4.976   6.706  0.0427 -0.1351  0.2539
  182SOPE   H3Y20836   5.527   5.069   6.659 -0.5504 -2.3955  0.4465
  182SOPE   C3420837   5.551   4.997   6.867  0.4397  0.0862  0.9349
  182SOPE   H4X20838   5.509   4.899   6.835  1.5379  0.6300 -2.3610
  182SOPE   H4Y20839   5.468   5.061   6.904 -0.9446 -0.5690 -0.9422
  182SOPE   C3520840   5.661   4.971   6.970 -0.1524  0.3747 -0.0973
  182SOPE   H5X20841   5.697   5.065   7.019 -0.3169 -0.3193  1.3967
  182SOPE   H5Y20842   5.753   4.931   6.924 -0.5570 -1.0438  0.2958
  182SOPE   C3620843   5.613   4.866   7.075  0.2790  0.1367 -0.4842
  182SOPE   H6X20844   5.688   4.787   7.099  1.7358  1.4654 -0.6198
  182SOPE   H6Y20845   5.523   4.812   7.040 -0.2688  0.7086  0.0405
  182SOPE   C3720846   5.584   4.931   7.214  0.6560 -0.1693  0.3165
  182SOPE   H7X20847   5.504   5.007   7.202 -0.5938 -1.4389  0.4488
  182SOPE   H7Y20848   5.669   4.993   7.252  1.4948 -0.9710 -0.2287
  182SOPE   C3820849   5.536   4.826   7.318  0.3493  0.1638 -0.3472
  182SOPE   H8X20850   5.625   4.780   7.368  0.4330 -0.0389 -0.6786
  182SOPE   H8Y20851   5.486   4.748   7.257 -0.1105 -0.0667  0.3226
  182SOPE   C3920852   5.435   4.887   7.410 -0.2334 -0.2558  0.3279
  182SOPE   H9X20853   5.379   4.809   7.467 -1.3740  1.1634  1.2036
  182SOPE   H9Y20854   5.366   4.937   7.339 -0.7447  0.0165  1.0063
  182SOPE  C31020855   5.490   4.994   7.511 -0.1719  0.2918 -0.0158
  182SOPE  H10X20856   5.560   5.068   7.466  1.8447 -0.1806  2.1907
  182SOPE  H10Y20857   5.546   4.937   7.589  0.2340  0.5101 -0.1464
  182SOPE  C31120858   5.382   5.064   7.591  0.5530 -0.2659  0.0784
  182SOPE  H11X20859   5.315   4.993   7.645  1.2427 -1.3465 -0.4840
  182SOPE  H11Y20860   5.316   5.115   7.518 -2.1553 -2.8805  0.6175
  182SOPE  C31220861   5.446   5.162   7.689  0.5047  0.0230  0.3163
  182SOPE  H12X20862   5.375   5.243   7.715  1.1827  1.0198 -0.8567
  182SOPE  H12Y20863   5.527   5.220   7.639 -0.8034 -0.0925 -2.0122
  182SOPE  C31320864   5.510   5.095   7.814 -0.0131  0.0565  0.3016
  182SOPE  H13X20865   5.553   4.994   7.797  0.6673  0.0436  2.0327
  182SOPE  H13Y20866   5.424   5.084   7.884  0.3119 -1.7819  0.4337
  182SOPE  C31420867   5.615   5.188   7.881 -0.7666 -1.2373 -0.0578
  182SOPE  H14X20868   5.564   5.284   7.902  2.0199 -0.4050  3.3019
  182SOPE  H14Y20869   5.691   5.207   7.802 -0.5560  1.8177  0.8200
  182SOPE  C31520870   5.687   5.140   8.007 -0.6287 -0.0959  0.1220
  182SOPE  H15X20871   5.739   5.228   8.052 -1.1439  0.1539  0.2344
  182SOPE  H15Y20872   5.749   5.052   7.981  0.2926  0.8689 -1.0168
  182SOPE  C31620873   5.579   5.096   8.115 -0.2012  0.3100  0.0538
  182SOPE  H16X20874   5.529   5.001   8.089  3.1894 -1.4267 -0.4489
  182SOPE  H16Y20875   5.504   5.177   8.127 -1.9644 -0.5406 -4.2103
  182SOPE  C31720876   5.652   5.088   8.254  0.1043  0.2460  0.0516
  182SOPE  H17X20877   5.583   5.074   8.339  0.8901  0.2443  0.6894
  182SOPE  H17Y20878   5.705   5.184   8.273  0.4721 -0.3806  2.2771
  182SOPE  C31820879   5.756   4.980   8.256 -0.2144  0.7928 -0.3861
  182SOPE  H18X20880   5.819   4.998   8.346  1.3592  2.2140 -1.7459
  182SOPE  H18Y20881   5.818   4.980   8.164 -0.3286 -1.2416 -0.4706
  182SOPE  H18Z20882   5.700   4.885   8.266  0.0916  0.4798 -1.5794
  183SOPE     N20883   1.356   3.827   6.360  0.1455 -0.0073  0.4077
  183SOPE   HN120884   1.292   3.753   6.397 -0.2822  0.6066  0.9044
  183SOPE   HN220885   1.432   3.827   6.431 -0.1605 -0.8542  0.7491
  183SOPE   HN320886   1.297   3.912   6.356  0.5457  0.2022 -1.0437
  183SOPE   C1220887   1.408   3.785   6.227  0.1914 -0.6498 -0.3516
  183SOPE  H12A20888   1.445   3.881   6.184 -2.4070 -0.4246 -2.2647
  183SOPE  H12B20889   1.325   3.744   6.166 -0.9352 -1.6051  1.7998
  183SOPE   C1120890   1.519   3.682   6.248  0.4698 -0.2356  0.6435
  183SOPE  H11A20891   1.557   3.656   6.147  0.0771 -0.3368  0.5203
  183SOPE  H11B20892   1.470   3.592   6.292 -0.6305 -0.3862 -0.8615
  183SOPE     P20893   1.768   3.752   6.290  0.1614  0.0150  0.3764
  183SOPE   O1320894   1.802   3.891   6.323  0.2455 -0.5295  0.1842
  183SOPE   O1420895   1.788   3.708   6.149 -0.0823 -0.3456  0.4783
  183SOPE   O1220896   1.614   3.737   6.335 -0.0349 -0.3156  0.5526
  183SOPE   O1120897   1.858   3.659   6.382 -0.5591 -0.3442  0.1995
  183SOPE    C120898   1.826   3.523   6.414  0.0890  0.6365  0.0042
  183SOPE    HA20899   1.918   3.461   6.420 -0.2146  0.1126 -0.7026
  183SOPE    HB20900   1.771   3.477   6.329  3.1863  0.1816 -1.8138
  183SOPE    C220901   1.741   3.525   6.544  0.5996  0.5936  0.2261
  183SOPE    HS20902   1.660   3.600   6.530 -0.3123 -0.2877  0.6714
  183SOPE   O2120903   1.822   3.557   6.654 -0.2424  0.2167  0.4128
  183SOPE   C2120904   1.763   3.630   6.746 -0.0173  0.4887  0.0837
  183SOPE   O2220905   1.650   3.673   6.747  0.4763  0.5771 -0.1372
  183SOPE   C2220906   1.856   3.630   6.866 -0.3877 -0.0240 -0.1345
  183SOPE   H2R20907   1.908   3.728   6.867 -1.8474  0.7567  0.4838
  183SOPE   H2S20908   1.935   3.552   6.854 -0.6386 -0.0542 -1.6055
  183SOPE    C320909   1.696   3.371   6.556  0.1553 -0.8446  0.7076
  183SOPE    HX20910   1.790   3.312   6.548  0.7599  0.1305  0.6048
  183SOPE    HY20911   1.638   3.346   6.465  0.0727  0.3528  0.4207
  183SOPE   O3120912   1.621   3.337   6.670  0.1037 -0.0009  0.5451
  183SOPE   C3120913   1.502   3.390   6.689 -0.3533 -0.8012  0.5135
  183SOPE   O3220914   1.452   3.477   6.616  0.4280 -0.0883 -0.0705
  183SOPE   C3220915   1.442   3.334   6.816 -0.1454 -0.6682 -0.1220
  183SOPE   H2X20916   1.518   3.341   6.896  1.2627  0.2769 -1.5107
  183SOPE   H2Y20917   1.415   3.227   6.802  0.9782 -0.7698 -1.5587
  183SOPE   C2320918   1.783   3.588   6.992 -0.7363 -0.0966 -0.1086
  183SOPE   H3R20919   1.851   3.529   7.057 -1.4744 -1.6971 -0.7841
  183SOPE   H3S20920   1.700   3.516   6.981 -1.0112  0.6404 -3.3060
  183SOPE   C2420921   1.724   3.714   7.059  0.8547 -0.1183  0.0174
  183SOPE   H4R20922   1.790   3.802   7.077 -2.3209  2.2357  0.6254
  183SOPE   H4S20923   1.642   3.747   6.992  0.1148 -0.8007  0.5797
  183SOPE   C2520924   1.657   3.669   7.188  0.3632 -0.4581 -0.2597
  183SOPE   H5R20925   1.564   3.731   7.196 -0.2677 -1.6046  1.6238
  183SOPE   H5S20926   1.628   3.563   7.171 -0.5229 -0.5495  1.7269
  183SOPE   C2620927   1.744   3.703   7.314 -0.2682  0.2572 -0.6284
  183SOPE   H6R20928   1.842   3.660   7.284 -0.6193  0.7735 -2.5501
  183SOPE   H6S20929   1.757   3.813   7.319  3.3267 -0.1379  0.2800
  183SOPE   C2720930   1.679   3.648   7.437 -1.0321  0.6737 -0.3361
  183SOPE   H7R20931   1.573   3.681   7.430 -1.1632  0.0655 -1.5083
  183SOPE   H7S20932   1.685   3.537   7.430  0.6237  0.6784  0.7965
  183SOPE   C2820933   1.757   3.684   7.563  0.2608  0.1451  0.3841
  183SOPE   H8R20934   1.846   3.618   7.560 -0.2264 -0.5023  0.0904
  183SOPE   H8S20935   1.779   3.791   7.542  0.1050  0.2293  0.6348
  183SOPE   C2920936   1.683   3.674   7.688  0.0724  0.1673 -0.7163
  183SOPE   H9120937   1.583   3.719   7.679  0.2012  0.2199 -1.8670
  183SOPE  C21020938   1.722   3.609   7.804 -0.4634  0.1408  0.0203
  183SOPE  H10120939   1.658   3.633   7.891  0.1007  1.8681 -0.0252
  183SOPE  C21120940   1.851   3.536   7.830 -0.5075 -0.7909  0.3609
  183SOPE  H11R20941   1.911   3.537   7.737 -0.5649  1.8899  0.2997
  183SOPE  H11S20942   1.831   3.431   7.858  2.8698 -2.1002 -1.8685
  183SOPE  C21220943   1.937   3.613   7.927 -0.2699  0.2729 -0.5207
  183SOPE  H12R20944   1.979   3.712   7.901 -2.2435  1.5663  1.0272
  183SOPE  H12S20945   2.014   3.534   7.940 -2.4064 -1.6408  0.9832
  183SOPE  C21320946   1.875   3.623   8.067  0.2606 -0.3101  0.4403
  183SOPE  H13R20947   1.836   3.522   8.095 -3.0248  1.1235  1.3015
  183SOPE  H13S20948   1.785   3.687   8.056  0.3883 -0.4467 -1.6145
  183SOPE  C21420949   1.973   3.656   8.173  0.2413 -0.1709  0.1742
  183SOPE  H14R20950   2.033   3.730   8.116 -0.3408  0.3161  0.1859
  183SOPE  H14S20951   2.036   3.567   8.195  0.7967  0.6831  2.2340
  183SOPE  C21520952   1.918   3.725   8.299 -0.3044  0.4765 -0.1690
  183SOPE  H15R20953   1.914   3.646   8.377 -1.4377  0.9150  0.2354
  183SOPE  H15S20954   1.817   3.769   8.286 -0.8143  0.3376  2.8145
  183SOPE  C21620955   2.024   3.815   8.361  0.1980 -0.0331  0.3723
  183SOPE  H16R20956   2.026   3.909   8.302 -2.3410 -0.7615 -0.9654
  183SOPE  H16S20957   2.122   3.764   8.372 -0.1365 -0.8845 -0.5906
  183SOPE  C21720958   1.970   3.862   8.500  0.2689  0.2435 -0.2363
  183SOPE  H17R20959   2.044   3.924   8.554 -0.5737 -0.7710  2.1729
  183SOPE  H17S20960   1.947   3.763   8.545  0.0359 -0.4290 -1.8041
  183SOPE  C21820961   1.836   3.942   8.496 -0.6381  0.2256 -0.2766
  183SOPE  H18R20962   1.849   4.035   8.437 -0.5371 -0.7258 -1.7796
  183SOPE  H18S20963   1.801   3.964   8.599  0.8124 -2.6117  0.8866
  183SOPE  H18T20964   1.759   3.877   8.448 -0.6377 -1.9062  2.4335
  183SOPE   C3320965   1.312   3.416   6.855 -0.2932  0.5702 -0.2249
  183SOPE   H3X20966   1.244   3.389   6.771 -0.6965 -1.3777  0.6880
  183SOPE   H3Y20967   1.327   3.526   6.858 -0.1348  0.5232  3.2773
  183SOPE   C3420968   1.261   3.390   6.990 -0.1159  0.0006 -0.2821
  183SOPE   H4X20969   1.241   3.282   7.009 -0.8571  0.4702  1.7957
  183SOPE   H4Y20970   1.166   3.447   7.004 -0.2985 -0.0932 -1.1387
  183SOPE   C3520971   1.351   3.437   7.116  0.4660  0.1803 -1.0198
  183SOPE   H5X20972   1.340   3.547   7.123 -2.0291 -0.0689 -0.4961
  183SOPE   H5Y20973   1.453   3.400   7.091  1.2493  0.9145  1.0504
  183SOPE   C3620974   1.293   3.378   7.243  0.0651 -0.0507 -0.5243
  183SOPE   H6X20975   1.311   3.269   7.240 -0.1062 -0.0655 -0.9275
  183SOPE   H6Y20976   1.189   3.415   7.256  0.4347  0.7037  0.3616
  183SOPE   C3720977   1.371   3.428   7.371 -0.5026 -0.7097 -0.8395
  183SOPE   H7X20978   1.340   3.534   7.379 -2.0707 -1.2483  0.2916
  183SOPE   H7Y20979   1.481   3.420   7.353 -0.2331 -1.0252  0.8244
  183SOPE   C3820980   1.327   3.359   7.504  0.4338  0.4429  0.0651
  183SOPE   H8X20981   1.345   3.250   7.492 -0.1664  0.3866 -0.3300
  183SOPE   H8Y20982   1.217   3.369   7.517  0.4180 -0.7530  0.9579
  183SOPE   C3920983   1.407   3.404   7.625  0.4168 -0.1138  0.2538
  183SOPE   H9X20984   1.402   3.514   7.644 -0.1186 -0.7667  4.1407
  183SOPE   H9Y20985   1.513   3.382   7.600  0.7711  3.6203 -1.9240
  183SOPE  C31020986   1.376   3.319   7.747  0.4658  0.2016 -0.0980
  183SOPE  H10X20987   1.395   3.211   7.729  1.3444  0.5773 -1.4860
  183SOPE  H10Y20988   1.269   3.333   7.774  0.5556  0.3211  0.1973
  183SOPE  C31120989   1.459   3.360   7.872  0.6573 -0.2806  1.1270
  183SOPE  H11X20990   1.450   3.469   7.888  3.2657  0.1729 -0.1348
  183SOPE  H11Y20991   1.567   3.346   7.851  0.6240  0.3236  0.5556
  183SOPE  C31220992   1.406   3.275   7.987 -0.0492 -0.4107  0.3273
  183SOPE  H12X20993   1.296   3.271   7.973  0.0232  1.7127 -1.0886
  183SOPE  H12Y20994   1.438   3.334   8.075 -0.2203 -1.5929  1.1958
  183SOPE  C31320995   1.474   3.136   7.999  0.2699  0.7945 -0.3715
  183SOPE  H13X20996   1.579   3.149   8.033 -0.7081  1.2026  2.6828
  183SOPE  H13Y20997   1.453   3.079   7.906 -1.1180  0.3496  0.2043
  183SOPE  C31420998   1.404   3.063   8.117  0.9827  0.0668  0.3997
  183SOPE  H14X20999   1.296   3.079   8.094  1.3448  0.7943 -0.8029
  183SOPE  H14Y21000   1.415   3.113   8.216 -0.2145 -0.9261  1.0609
  183SOPE  C31521001   1.445   2.917   8.146 -0.0791 -0.0965  0.4917
  183SOPE  H15X21002   1.549   2.905   8.183 -1.3085 -2.5257  3.4293
  183SOPE  H15Y21003   1.438   2.861   8.050  0.2777 -0.8088  0.8781
  183SOPE  C31621004   1.359   2.832   8.234 -0.1865 -0.0366  0.1280
  183SOPE  H16X21005   1.256   2.827   8.192  0.6337  1.9842 -2.2236
  183SOPE  H16Y21006   1.344   2.877   8.335  1.5920 -1.0300  0.8442
  183SOPE  C31721007   1.406   2.689   8.248  0.9077 -0.1270 -0.2234
  183SOPE  H17X21008   1.515   2.684   8.267  0.3992  0.3029  3.0739
  183SOPE  H17Y21009   1.395   2.642   8.148 -0.0660 -0.5438  0.0720
  183SOPE  C31821010   1.334   2.599   8.349  0.3957 -0.1547  0.0499
  183SOPE  H18X21011   1.254   2.531   8.312  0.6478 -2.0244  2.8157
  183SOPE  H18Y21012   1.287   2.665   8.425 -0.4304  0.2083 -0.7646
  183SOPE  H18Z21013   1.401   2.542   8.417 -2.0867 -0.0294  2.6792
  184SOPE     N21014   1.116   4.473   6.157  0.4478  0.3296 -0.2094
  184SOPE   HN121015   1.184   4.417   6.212 -1.9932 -1.5549  0.9848
  184SOPE   HN221016   1.167   4.544   6.100  1.5264 -0.7826 -0.6316
  184SOPE   HN321017   1.055   4.528   6.222  2.0402 -0.9293  2.4353
  184SOPE   C1221018   1.017   4.392   6.083  0.2396 -0.0680  0.0326
  184SOPE  H12A21019   1.070   4.338   6.002  2.8153  0.2024  1.4799
  184SOPE  H12B21020   0.941   4.458   6.036  0.1502 -0.0591  0.1913
  184SOPE   C1121021   0.957   4.286   6.178  0.5158  0.4361 -0.0929
  184SOPE  H11A21022   0.885   4.233   6.112  0.3553 -0.3379  0.7097
  184SOPE  H11B21023   0.896   4.325   6.262  1.2142 -2.6591  1.9146
  184SOPE     P21024   1.039   4.048   6.261  0.0133  0.0694  0.2523
  184SOPE   O1321025   1.164   3.994   6.321 -0.1177  0.3343  0.1286
  184SOPE   O1421026   0.978   3.978   6.143 -1.1186  0.2170 -0.4424
  184SOPE   O1221027   1.058   4.201   6.223  0.1181 -0.4873 -0.4359
  184SOPE   O1121028   0.921   4.054   6.365 -0.0229  0.2630  0.1377
  184SOPE    C121029   0.915   4.151   6.473  0.0094  0.5908 -0.3555
  184SOPE    HA21030   0.842   4.232   6.452 -1.2693 -0.2103  0.9062
  184SOPE    HB21031   1.012   4.205   6.489  0.2086 -0.0057  0.5081
  184SOPE    C221032   0.869   4.083   6.609 -0.0064  0.5061  0.2679
  184SOPE    HS21033   0.884   4.157   6.691  1.7071 -1.3509  1.6682
  184SOPE   O2121034   0.936   3.957   6.640  1.2733 -0.3622 -0.4741
  184SOPE   C2121035   1.066   3.963   6.649  0.5327  0.0531 -0.0112
  184SOPE   O2221036   1.131   4.061   6.652 -0.4949 -0.3438  0.4108
  184SOPE   C2221037   1.109   3.820   6.682  0.0216 -0.6618 -0.3599
  184SOPE   H2R21038   1.217   3.818   6.656 -0.1090  2.4821 -1.3455
  184SOPE   H2S21039   1.053   3.751   6.615 -0.3724  0.8369 -1.6153
  184SOPE    C321040   0.714   4.054   6.616 -0.0344  0.3812  0.6627
  184SOPE    HX21041   0.698   3.973   6.542  0.9624  1.1658 -0.4257
  184SOPE    HY21042   0.662   4.147   6.585 -2.2674 -1.3259 -0.8452
  184SOPE   O3121043   0.664   4.015   6.750  0.2258  0.0952  0.1631
  184SOPE   C3121044   0.672   3.880   6.781  0.3023 -0.1923 -0.0104
  184SOPE   O3221045   0.718   3.794   6.710 -0.0535  0.0328 -0.7339
  184SOPE   C3221046   0.624   3.865   6.926  0.0152  0.1981  0.9636
  184SOPE   H2X21047   0.657   3.760   6.944 -0.6567 -0.9512 -3.8136
  184SOPE   H2Y21048   0.513   3.865   6.935  0.0080  1.7116  1.0234
  184SOPE   C2321049   1.069   3.788   6.827  0.2064 -0.0791 -0.4774
  184SOPE   H3R21050   1.091   3.679   6.833 -2.5223 -0.7113 -1.2142
  184SOPE   H3S21051   0.962   3.804   6.854  0.3408  0.5017 -0.2882
  184SOPE   C2421052   1.158   3.865   6.927  0.1388 -1.0099  0.0936
  184SOPE   H4R21053   1.265   3.850   6.903  0.6324  0.0769  1.5635
  184SOPE   H4S21054   1.141   3.975   6.933  3.1329 -0.3483 -2.2933
  184SOPE   C2521055   1.126   3.824   7.071  0.7714  0.1234 -0.3536
  184SOPE   H5R21056   1.024   3.862   7.094  0.2581 -1.8154  0.6712
  184SOPE   H5S21057   1.110   3.715   7.079  2.6651 -0.1874 -0.4272
  184SOPE   C2621058   1.229   3.868   7.175  0.5330  1.0376  0.6467
  184SOPE   H6R21059   1.333   3.845   7.142  0.1403  1.0496 -0.6633
  184SOPE   H6S21060   1.208   3.974   7.197 -3.1559  0.2148  1.5446
  184SOPE   C2721061   1.205   3.785   7.303 -0.5419  0.1582  0.3061
  184SOPE   H7R21062   1.097   3.782   7.328 -1.3347  0.7688 -2.8373
  184SOPE   H7S21063   1.240   3.683   7.275  2.0260  1.3137 -0.9003
  184SOPE   C2821064   1.299   3.837   7.418  0.9406 -0.1002  0.8336
  184SOPE   H8R21065   1.406   3.836   7.388  0.9067  1.0799  0.6497
  184SOPE   H8S21066   1.274   3.946   7.426  0.2007 -0.0975 -1.3330
  184SOPE   C2921067   1.270   3.765   7.548 -0.2959  0.9689  0.2946
  184SOPE   H9121068   1.253   3.656   7.542 -3.0898  1.4804 -2.3674
  184SOPE  C21021069   1.277   3.820   7.672 -0.4479  1.0723  0.3574
  184SOPE  H10121070   1.259   3.757   7.760  2.1396 -2.4992 -1.5188
  184SOPE  C21121071   1.301   3.967   7.693  0.8265  0.3762  0.5338
  184SOPE  H11R21072   1.214   4.031   7.670  1.0671  1.1599  1.7418
  184SOPE  H11S21073   1.393   4.004   7.643 -0.1994 -0.5170 -2.0797
  184SOPE  C21221074   1.308   3.984   7.854 -0.2634 -0.4079 -0.2993
  184SOPE  H12R21075   1.212   3.961   7.904 -0.6321 -0.2127 -0.9055
  184SOPE  H12S21076   1.327   4.092   7.869  0.2613 -0.7404  1.4629
  184SOPE  C21321077   1.428   3.919   7.928  0.0981  0.0454  0.1798
  184SOPE  H13R21078   1.517   3.947   7.869 -0.5810  0.5003 -0.6396
  184SOPE  H13S21079   1.404   3.812   7.948 -1.9501  0.3690 -0.4607
  184SOPE  C21421080   1.443   3.976   8.074  0.1106 -0.6355  0.0904
  184SOPE  H14R21081   1.440   4.087   8.076  0.1656 -0.6530  1.3753
  184SOPE  H14S21082   1.542   3.936   8.103  0.3585 -1.2740 -1.5940
  184SOPE  C21521083   1.341   3.919   8.178 -0.1264 -0.3545 -0.0603
  184SOPE  H15R21084   1.248   3.896   8.122 -0.2769 -1.3307  0.5784
  184SOPE  H15S21085   1.329   3.995   8.258 -0.7501 -0.2999 -0.2066
  184SOPE  C21621086   1.408   3.804   8.253  0.4829 -0.5852 -0.1622
  184SOPE  H16R21087   1.475   3.743   8.188  1.2713  0.5100 -0.3909
  184SOPE  H16S21088   1.341   3.736   8.309  0.8991 -1.0908 -0.2731
  184SOPE  C21721089   1.505   3.858   8.363  0.4161 -0.4005  0.3101
  184SOPE  H17R21090   1.582   3.920   8.313  0.5568 -1.1337 -0.3898
  184SOPE  H17S21091   1.566   3.772   8.399 -1.6321 -1.1449  2.1104
  184SOPE  C21821092   1.444   3.926   8.490  0.2659  0.8859  0.1408
  184SOPE  H18R21093   1.374   3.856   8.539  1.0166  0.9417  1.3003
  184SOPE  H18S21094   1.397   4.024   8.468 -0.4106 -0.3326 -4.5482
  184SOPE  H18T21095   1.519   3.948   8.569 -0.5588 -2.5637  1.9620
  184SOPE   C3321096   0.697   3.971   7.024 -0.6060  0.3047 -0.0832
  184SOPE   H3X21097   0.626   4.053   7.046  1.2481  2.4393 -1.8122
  184SOPE   H3Y21098   0.793   4.012   6.986 -2.2341  1.0492 -3.5260
  184SOPE   C3421099   0.734   3.910   7.161  0.5279  1.1690  0.2206
  184SOPE   H4X21100   0.812   3.833   7.142 -1.3332 -1.6043  3.2791
  184SOPE   H4Y21101   0.650   3.856   7.209  2.5343 -0.0296  2.4965
  184SOPE   C3521102   0.781   4.025   7.257 -0.0921  0.2795 -0.3728
  184SOPE   H5X21103   0.690   4.084   7.279  0.3534  1.2588 -1.1190
  184SOPE   H5Y21104   0.869   4.082   7.221  1.1304 -0.2481  1.6960
  184SOPE   C3621105   0.816   3.976   7.401 -0.1031 -0.0471 -0.7175
  184SOPE   H6X21106   0.901   3.904   7.400 -0.8716 -0.9605 -1.9221
  184SOPE   H6Y21107   0.731   3.918   7.445 -0.3614 -0.1917 -1.3990
  184SOPE   C3721108   0.856   4.087   7.493  0.7649 -0.6496 -0.3100
  184SOPE   H7X21109   0.773   4.160   7.495  2.5882  1.4621 -0.1149
  184SOPE   H7Y21110   0.937   4.138   7.437 -0.0469  1.2715  0.2302
  184SOPE   C3821111   0.881   4.036   7.638 -0.2815 -0.4543  0.6612
  184SOPE   H8X21112   0.953   3.951   7.629  0.3672  0.2707 -1.1966
  184SOPE   H8Y21113   0.789   3.988   7.677  0.9667 -2.9758  0.6503
  184SOPE   C3921114   0.922   4.141   7.744  0.0893 -0.1437 -0.3656
  184SOPE   H9X21115   0.862   4.232   7.726  0.6920  0.5946  1.2806
  184SOPE   H9Y21116   1.028   4.164   7.720  0.3218  0.8975  1.5525
  184SOPE  C31021117   0.898   4.080   7.884  0.5029  0.3749  0.2387
  184SOPE  H10X21118   0.958   3.992   7.913 -1.6917 -0.7624  1.5083
  184SOPE  H10Y21119   0.795   4.038   7.878 -0.1142  1.9961 -1.1008
  184SOPE  C31121120   0.911   4.187   7.997  0.3418 -0.6882  0.4199
  184SOPE  H11X21121   0.845   4.274   7.976  1.4405  0.0602 -0.0442
  184SOPE  H11Y21122   1.014   4.229   7.984 -0.0265  0.1839  0.2968
  184SOPE  C31221123   0.896   4.137   8.141 -0.1811 -0.6089  0.4464
  184SOPE  H12X21124   0.788   4.112   8.152 -0.3975  1.3363  3.4985
  184SOPE  H12Y21125   0.919   4.225   8.205 -0.9435 -0.0752 -0.0088
  184SOPE  C31321126   0.992   4.021   8.179  0.4258 -0.2724 -0.1440
  184SOPE  H13X21127   1.095   4.054   8.156  0.4316 -1.3075 -1.6907
  184SOPE  H13Y21128   0.966   3.933   8.116 -1.2775 -0.4296  0.7388
  184SOPE  C31421129   0.965   3.983   8.328 -0.3123 -0.3059 -0.4809
  184SOPE  H14X21130   1.024   3.890   8.347 -0.8087 -0.1771  1.8576
  184SOPE  H14Y21131   0.858   3.964   8.347 -0.2313 -0.1994  0.0905
  184SOPE  C31521132   1.011   4.084   8.441  0.4409 -0.1283 -0.0872
  184SOPE  H15X21133   0.938   4.167   8.455 -0.4173 -0.9899  0.5674
  184SOPE  H15Y21134   1.101   4.137   8.401  0.9574 -0.4593  0.6218
  184SOPE  C31621135   1.045   4.018   8.579  0.4389 -0.4233 -0.7668
  184SOPE  H16X21136   1.089   3.921   8.546 -0.9600 -1.8336  1.4197
  184SOPE  H16Y21137   0.950   3.996   8.632 -0.8597  0.5380 -2.6295
  184SOPE  C31721138   1.138   4.094   8.675  0.4484  0.1649  0.4864
  184SOPE  H17X21139   1.073   4.168   8.726  0.4612 -0.0933  0.8844
  184SOPE  H17Y21140   1.229   4.136   8.627  0.2825 -1.3969 -1.2761
  184SOPE  C31821141   1.178   4.009   8.798 -0.3781 -0.1779 -0.0951
  184SOPE  H18X21142   1.250   4.066   8.861 -0.3202  0.3830 -0.6565
  184SOPE  H18Y21143   1.225   3.918   8.755  0.4347  0.6118 -0.9112
  184SOPE  H18Z21144   1.103   3.968   8.869  0.2646  0.3110  0.8831
  185SAPI   C1221145   3.789   0.796  10.876 -0.5314 -0.2706 -0.4634
  185SAPI    H221146   3.802   0.890  10.819 -1.9095  1.0858  1.3981
  185SAPI    O221147   3.737   0.822  11.001 -0.6436 -0.2645 -0.1241
  185SAPI   HO221148   3.666   0.887  10.992 -0.3155  0.2750  1.0007
  185SAPI   C1321149   3.709   0.694  10.802  0.5888  0.0818  0.0939
  185SAPI    H321150   3.764   0.669  10.708 -1.6797  0.3147 -1.3433
  185SAPI    O321151   3.582   0.750  10.763 -0.1317 -0.4764 -0.0707
  185SAPI   HO321152   3.518   0.685  10.795  1.4952 -1.3317  1.5202
  185SAPI   C1421153   3.695   0.562  10.881  0.0008 -0.1976 -0.0824
  185SAPI    H421154   3.654   0.587  10.981 -2.4707  1.3053 -1.4325
  185SAPI    O421155   3.608   0.467  10.814 -0.2599  0.5956 -0.4482
  185SAPI   HO421156   3.520   0.457  10.850  0.7999 -0.0272  2.0580
  185SAPI   C1521157   3.837   0.503  10.910  0.0589  0.0937 -0.3837
  185SAPI    H521158   3.891   0.471  10.818  1.8146  0.7059  0.4053
  185SAPI    O521159   3.818   0.388  10.990  0.0242  0.7866 -0.0264
  185SAPI   HO521160   3.822   0.306  10.941  2.4744 -1.2764  3.4678
  185SAPI   C1621161   3.919   0.609  10.980  0.5044  0.0189  0.1540
  185SAPI    H621162   3.870   0.627  11.078 -1.2412 -1.0400 -0.4939
  185SAPI    O621163   4.047   0.546  11.004  0.4722 -0.0768 -0.5101
  185SAPI   HO621164   4.109   0.592  10.947  0.3611  0.3392 -0.3032
  185SAPI   C1121165   3.931   0.735  10.896  0.1000  0.5647  0.0554
  185SAPI    H121166   3.978   0.704  10.800 -1.7292 -1.8225 -0.1220
  185SAPI     P21167   4.169   0.841  10.904 -0.1263 -0.2072  0.1272
  185SAPI   O1321168   4.224   0.706  10.895  0.0223 -0.4778  0.1373
  185SAPI   O1421169   4.255   0.940  10.974 -0.8693 -0.1676  1.0275
  185SAPI   O1221170   4.009   0.833  10.967 -0.3509 -0.3951  0.5157
  185SAPI   O1121171   4.127   0.888  10.763 -0.6172  0.7461 -0.5578
  185SAPI    C121172   4.153   1.012  10.706  0.3891  0.1396  0.1241
  185SAPI    HA21173   4.121   1.096  10.770  1.3242  0.5006  0.1259
  185SAPI    HB21174   4.262   1.011  10.680  0.7797  3.1453  1.5152
  185SAPI    C221175   4.062   1.025  10.584  0.0003  0.0544  0.1416
  185SAPI    HS21176   3.956   1.022  10.615  0.1126 -1.1239  0.4540
  185SAPI   O2121177   4.107   0.918  10.510  0.1715 -0.0703  0.0988
  185SAPI   C2121178   4.032   0.805  10.498 -0.0151 -0.0609  0.0746
  185SAPI   O2221179   3.928   0.790  10.554 -0.3219  0.4788 -0.3725
  185SAPI   C2221180   4.102   0.703  10.412  0.3494 -0.4637 -0.6970
  185SAPI   H2R21181   4.204   0.688  10.453 -0.2931  0.1515  1.1854
  185SAPI   H2S21182   4.044   0.610  10.432 -0.2175  0.4009  1.9131
  185SAPI    C321183   4.068   1.166  10.510 -0.4867 -0.3594  0.1393
  185SAPI    HX21184   4.164   1.171  10.454 -1.2787 -2.0319 -1.4253
  185SAPI    HY21185   4.067   1.244  10.588  3.1722  0.6584 -0.7047
  185SAPI   O3121186   3.969   1.166  10.404  0.0428  0.3103 -0.4202
  185SAPI   C3121187   3.956   1.282  10.334 -0.5475  0.1450  0.4268
  185SAPI   O3221188   4.018   1.380  10.359 -0.5456  0.2351 -0.6652
  185SAPI   C3221189   3.870   1.266  10.207  0.2544  0.1218 -0.0346
  185SAPI   H2X21190   3.817   1.363  10.197  1.7320  0.7779 -1.7983
  185SAPI   H2Y21191   3.804   1.176  10.212 -1.3505  1.3512  1.6321
  185SAPI   C2321192   4.117   0.741  10.262 -0.9371  0.4925  0.1718
  185SAPI   H3R21193   4.222   0.718  10.233 -0.6782 -0.8137  2.0978
  185SAPI   H3S21194   4.105   0.850  10.244 -1.0605 -0.0176 -3.2133
  185SAPI   C2421195   4.029   0.661  10.166 -0.0246  0.0047  0.2735
  185SAPI   H4R21196   4.021   0.557  10.205  1.1648  0.1490  0.9083
  185SAPI   H4S21197   4.060   0.667  10.059  1.7209  0.5011  0.7851
  185SAPI   C2521198   3.882   0.718  10.175  0.6442 -0.3632  0.1869
  185SAPI   H5R21199   3.834   0.711  10.273 -2.2953 -0.4578 -1.1938
  185SAPI   C2621200   3.815   0.778  10.077  0.6298 -0.2042  0.2655
  185SAPI   H6R21201   3.716   0.825  10.094  0.9331  1.5091 -2.3937
  185SAPI   C2721202   3.873   0.806   9.937  0.3452  0.0139  0.4459
  185SAPI   H7R21203   3.971   0.857   9.946  0.8228 -0.2626 -2.7066
  185SAPI   H7S21204   3.806   0.878   9.885 -2.0890 -0.4342  2.8126
  185SAPI   C2821205   3.887   0.687   9.846  0.3271  0.2375  0.4479
  185SAPI   H8R21206   3.877   0.592   9.902 -2.3061 -0.7157 -1.5302
  185SAPI   C2921207   3.919   0.687   9.716  0.1847  0.0668  0.2245
  185SAPI   H9R21208   3.916   0.588   9.669  1.9390 -0.0467  0.3348
  185SAPI  C21021209   3.947   0.806   9.622 -0.3212  0.2066 -0.3536
  185SAPI  H10R21210   4.039   0.795   9.562  0.2924 -0.8394  0.7563
  185SAPI  H10S21211   3.964   0.894   9.688  0.2629 -0.8952  0.9937
  185SAPI  C21121212   3.838   0.841   9.529  0.1060  0.4710 -0.3214
  185SAPI  H11R21213   3.738   0.867   9.568  1.1832 -0.1953  3.0793
  185SAPI  C21221214   3.837   0.818   9.395 -0.1032  0.8157  0.1607
  185SAPI  H12R21215   3.748   0.833   9.332  0.5900  1.5853 -0.6478
  185SAPI  C21321216   3.941   0.756   9.311 -0.2263  0.0925 -0.0291
  185SAPI  H13R21217   4.043   0.790   9.339 -0.3478  1.3949 -1.1170
  185SAPI  H13S21218   3.929   0.798   9.209 -1.2631 -1.1808 -0.4475
  185SAPI  C21421219   3.931   0.605   9.308 -1.8032  0.5527  0.6870
  185SAPI  H14R21220   3.973   0.559   9.399 -1.3740 -1.1541 -0.3559
  185SAPI  C21521221   3.890   0.527   9.206  0.2343  0.3353  0.0920
  185SAPI  H15R21222   3.902   0.418   9.210  1.8131  0.4854 -0.3072
  185SAPI  C21621223   3.839   0.576   9.069  0.3801  0.2191 -1.1873
  185SAPI  H16R21224   3.831   0.686   9.061  0.2816  0.2470 -0.6981
  185SAPI  H16S21225   3.737   0.538   9.048  0.5853 -1.4370  0.6560
  185SAPI  C21721226   3.931   0.520   8.961 -0.3907 -0.1053 -0.1765
  185SAPI  H17R21227   3.936   0.411   8.984 -0.2079 -0.2704 -0.9901
  185SAPI  H17S21228   4.035   0.557   8.950 -0.5634  0.0983 -1.1643
  185SAPI  C21821229   3.870   0.559   8.827 -0.3022 -0.2099 -0.8447
  185SAPI  H18R21230   3.860   0.669   8.840 -0.3498 -0.6057  3.1081
  185SAPI  H18S21231   3.764   0.526   8.827 -0.0464 -1.2057  2.5608
  185SAPI  C21921232   3.944   0.505   8.704  0.5358  0.5559  0.0271
  185SAPI  H19R21233   3.952   0.395   8.715 -0.4454  0.5043  0.2551
  185SAPI  H19S21234   4.046   0.551   8.706 -0.5249  2.9345  0.9710
  185SAPI  C22021235   3.874   0.514   8.567 -0.0054  0.5669 -0.0662
  185SAPI  H20R21236   3.872   0.621   8.539 -0.3678  0.8701  1.0612
  185SAPI  H20S21237   3.772   0.469   8.575  0.2576 -0.2017 -0.9169
  185SAPI  H20T21238   3.924   0.456   8.487 -1.3613 -1.5189  0.5544
  185SAPI   C3321239   3.978   1.267  10.088 -0.5129 -0.1241 -0.4660
  185SAPI   H3X21240   4.062   1.194  10.086 -1.4922 -1.2803  0.0355
  185SAPI   H3Y21241   4.020   1.370  10.082 -0.2677 -0.0211  2.4573
  185SAPI   C3421242   3.921   1.236   9.948 -0.1068  0.5465  0.0352
  185SAPI   H4X21243   3.824   1.290   9.939  0.3179  1.4461  0.8172
  185SAPI   H4Y21244   3.912   1.127   9.931 -2.5864  0.8948 -1.1551
  185SAPI   C3521245   3.996   1.304   9.837  0.0106  0.0466  0.1884
  185SAPI   H5X21246   4.104   1.280   9.845  0.1098  0.1622 -0.6581
  185SAPI   H5Y21247   3.986   1.415   9.831  3.3704  0.3077 -1.2863
  185SAPI   C3621248   3.951   1.245   9.704 -0.1522 -0.4296 -0.4200
  185SAPI   H6X21249   3.841   1.263   9.698  0.0595  0.4233 -2.0810
  185SAPI   H6Y21250   3.973   1.136   9.708 -0.1275 -0.4515 -1.1274
  185SAPI   C3721251   4.007   1.317   9.581  0.4581 -0.3690 -0.3101
  185SAPI   H7X21252   4.106   1.274   9.557  1.4915  1.6978  0.1612
  185SAPI   H7Y21253   4.010   1.427   9.593  0.9386 -0.2607 -1.3449
  185SAPI   C3821254   3.918   1.291   9.460 -0.3963 -0.2677 -0.3799
  185SAPI   H8X21255   3.814   1.326   9.476 -1.0346 -2.5801  0.5846
  185SAPI   H8Y21256   3.902   1.183   9.443  0.6643 -0.2362 -1.6966
  185SAPI   C3921257   3.975   1.339   9.326 -0.2686 -0.1376 -0.5680
  185SAPI   H9X21258   4.069   1.290   9.292 -1.6555 -1.5345 -2.5544
  185SAPI   H9Y21259   3.996   1.447   9.344 -1.6503 -0.1664  1.3540
  185SAPI  C31021260   3.880   1.346   9.208  0.0066  0.6570  0.3273
  185SAPI  H10X21261   3.794   1.415   9.224 -0.7879 -0.5327  1.2122
  185SAPI  H10Y21262   3.837   1.248   9.179 -0.5954  1.1926 -0.6364
  185SAPI  C31121263   3.935   1.402   9.077  0.6587  0.5693  0.0068
  185SAPI  H11X21264   3.988   1.329   9.013  0.6345  2.7566 -2.6063
  185SAPI  H11Y21265   4.022   1.469   9.095  1.1295 -0.2720  0.9053
  185SAPI  C31221266   3.834   1.480   8.989 -0.2559 -0.0626 -0.4435
  185SAPI  H12X21267   3.809   1.578   9.035  0.4750 -0.1740  0.1926
  185SAPI  H12Y21268   3.744   1.416   8.984  1.3447 -2.4529  0.4982
  185SAPI  C31321269   3.887   1.517   8.850  0.0148  0.3534 -0.2214
  185SAPI  H13X21270   3.986   1.566   8.846  1.3301 -2.2200 -0.7313
  185SAPI  H13Y21271   3.822   1.594   8.805 -0.5551 -1.0687 -1.8964
  185SAPI  C31421272   3.895   1.403   8.751 -0.6729  0.6604  0.0400
  185SAPI  H14X21273   3.803   1.342   8.761 -0.0490 -0.3527 -0.3109
  185SAPI  H14Y21274   3.984   1.346   8.784  1.6638  2.9777 -2.0327
  185SAPI  C31521275   3.913   1.458   8.612 -0.4435 -0.4769  0.1415
  185SAPI  H15X21276   3.997   1.529   8.601 -2.4166  1.6167 -1.9921
  185SAPI  H15Y21277   3.820   1.515   8.591  0.0861  0.6737  0.8706
  185SAPI  C31621278   3.926   1.346   8.507  0.1022  0.7115  0.0445
  185SAPI  H16X21279   3.856   1.262   8.528  0.2897 -0.5787 -4.1122
  185SAPI  H16Y21280   4.021   1.293   8.530 -0.0786  0.9320  1.3539
  185SAPI  C31721281   3.929   1.383   8.361  0.7392 -0.5812 -0.3545
  185SAPI  H17X21282   3.958   1.311   8.282  0.4568  0.1397 -1.1258
  185SAPI  H17Y21283   3.989   1.474   8.337 -0.5259 -0.0635 -1.6817
  185SAPI  C31821284   3.786   1.417   8.314 -0.6550  0.6693  0.4239
  185SAPI  H18X21285   3.714   1.335   8.333  0.3066 -0.4337 -0.5869
  185SAPI  H18Y21286   3.784   1.434   8.204 -0.7473 -2.0041 -0.0085
  185SAPI  H18Z21287   3.755   1.510   8.367 -0.2397  1.0700 -0.0230
  186SAPI   C1221288   3.839   5.893  10.722 -0.1223 -1.1277 -0.1690
  186SAPI    H221289   3.807   5.853  10.820  1.8346  1.8142  1.7519
  186SAPI    O221290   3.758   5.821  10.629  0.1194  0.0066  0.2332
  186SAPI   HO221291   3.781   5.728  10.624  0.5450  0.2339 -2.5435
  186SAPI   C1321292   3.799   6.035  10.734 -0.7632  0.3983  0.4296
  186SAPI    H321293   3.865   6.080  10.811 -0.7402  0.6901  0.2389
  186SAPI    O321294   3.673   6.055  10.791  0.3601  0.8351  0.2257
  186SAPI   HO321295   3.606   5.996  10.755 -1.0913  0.9360  2.6167
  186SAPI   C1421296   3.811   6.116  10.608 -0.1316 -0.1841  0.0518
  186SAPI    H421297   3.741   6.076  10.531 -1.4833  3.6864 -0.8419
  186SAPI    O421298   3.781   6.256  10.621  0.5963 -0.6320  0.5628
  186SAPI   HO421299   3.801   6.294  10.536 -0.6668  0.9029  0.9381
  186SAPI   C1521300   3.949   6.100  10.554  0.4840 -1.0171 -0.6207
  186SAPI    H521301   4.007   6.138  10.641  1.8691 -2.4817 -0.8743
  186SAPI    O521302   3.974   6.170  10.434 -0.2440  0.7025  0.3492
  186SAPI   HO521303   4.068   6.159  10.415 -1.2044 -2.1597 -3.2663
  186SAPI   C1621304   3.997   5.952  10.543  0.2136 -0.0216  0.8688
  186SAPI    H621305   3.947   5.892  10.464  0.2841 -0.9795  1.5338
  186SAPI    O621306   4.134   5.954  10.506  0.9191 -0.2190 -0.0766
  186SAPI   HO621307   4.164   5.865  10.524  0.6327 -0.2131  0.4332
  186SAPI   C1121308   3.984   5.888  10.683  0.1961 -0.3123 -0.2496
  186SAPI    H121309   4.047   5.944  10.756  0.4286  2.2216 -2.3465
  186SAPI     P21310   4.175   5.703  10.739  0.3027  0.1085  0.2712
  186SAPI   O1321311   4.200   5.557  10.750 -0.1828 -0.3484  0.1693
  186SAPI   O1421312   4.204   5.786  10.857  0.3756  0.1132 -0.1532
  186SAPI   O1221313   4.019   5.746  10.682  0.3583 -0.2491  0.0374
  186SAPI   O1121314   4.259   5.753  10.616  0.3500  0.0846  0.0297
  186SAPI    C121315   4.383   5.694  10.584  0.5456 -0.1964  0.4656
  186SAPI    HA21316   4.463   5.694  10.661  0.1768 -1.3278  0.8623
  186SAPI    HB21317   4.379   5.595  10.533 -1.0363 -0.6403  1.4322
  186SAPI    C221318   4.459   5.781  10.473  0.6319 -0.3430 -0.1256
  186SAPI    HS21319   4.480   5.880  10.521  2.4617 -0.8145  0.0892
  186SAPI   O2121320   4.368   5.786  10.365 -0.1923 -0.1895 -0.0767
  186SAPI   C2121321   4.371   5.891  10.283 -0.3618 -0.3379 -0.5530
  186SAPI   O2221322   4.432   5.993  10.301 -0.4692 -0.9282  0.4144
  186SAPI   C2221323   4.260   5.860  10.179 -0.6499 -0.1040  0.4960
  186SAPI   H2R21324   4.265   5.756  10.141  0.7984  0.8683 -2.0700
  186SAPI   H2S21325   4.161   5.872  10.227 -0.0783 -1.4802  2.0964
  186SAPI    C321326   4.589   5.717  10.422  0.4734 -0.6012  0.0866
  186SAPI    HX21327   4.655   5.695  10.509 -0.8317  1.3493  1.5995
  186SAPI    HY21328   4.656   5.781  10.362 -1.2874 -1.2055 -2.6090
  186SAPI   O3121329   4.563   5.596  10.352  0.2019 -0.2305 -0.4575
  186SAPI   C3121330   4.565   5.608  10.223  0.6608  0.4743 -0.6631
  186SAPI   O3221331   4.595   5.709  10.156 -0.3164  0.8482  0.4374
  186SAPI   C3221332   4.517   5.482  10.162  0.1375 -0.2586 -0.5975
  186SAPI   H2X21333   4.468   5.502  10.064 -0.6310 -0.0252 -0.1722
  186SAPI   H2Y21334   4.447   5.427  10.229  0.0628  1.3088  0.6396
  186SAPI   C2321335   4.252   5.951  10.053 -0.1300 -0.4538  0.3907
  186SAPI   H3R21336   4.232   6.055  10.086  0.4359  0.0414 -0.7779
  186SAPI   H3S21337   4.158   5.925  10.000  0.4460 -1.8866  0.0652
  186SAPI   C2421338   4.377   5.953   9.962  0.7163  0.2721  0.1526
  186SAPI   H4R21339   4.462   5.989  10.024  1.0552 -0.2872  0.0065
  186SAPI   H4S21340   4.357   6.033   9.888  1.3286  0.4305  0.1568
  186SAPI   C2521341   4.390   5.824   9.890 -0.5149  0.1087  0.1364
  186SAPI   H5R21342   4.419   5.744   9.960  1.5222  1.0005  0.3344
  186SAPI   C2621343   4.368   5.800   9.760 -0.3930 -0.2676 -0.1457
  186SAPI   H6R21344   4.385   5.695   9.732 -0.1872 -0.7699  1.7721
  186SAPI   C2721345   4.337   5.897   9.645 -0.1443 -0.1475 -0.0565
  186SAPI   H7R21346   4.230   5.925   9.660 -0.5095 -2.2865  1.6049
  186SAPI   H7S21347   4.349   5.850   9.545  1.8521  2.6414 -1.1637
  186SAPI   C2821348   4.428   6.010   9.634  0.1281 -0.8264 -0.2957
  186SAPI   H8R21349   4.491   6.026   9.723 -1.1660 -1.1903  0.6958
  186SAPI   C2921350   4.431   6.094   9.530  0.5413  0.3681 -0.2167
  186SAPI   H9R21351   4.517   6.162   9.531  0.4707  0.5350 -2.9400
  186SAPI  C21021352   4.345   6.089   9.407 -0.5823  0.3765 -0.6754
  186SAPI  H10R21353   4.314   6.189   9.370 -1.5289  1.2926  2.5104
  186SAPI  H10S21354   4.255   6.033   9.439  0.0027  1.2408  2.5980
  186SAPI  C21121355   4.416   6.007   9.297  0.4598  0.9581  0.9838
  186SAPI  H11R21356   4.446   5.910   9.340  0.1242  1.3727  2.1814
  186SAPI  C21221357   4.418   6.028   9.162  0.3426  1.2345  0.5010
  186SAPI  H12R21358   4.462   5.945   9.104 -0.6662 -0.1522  1.6876
  186SAPI  C21321359   4.361   6.137   9.077  0.1953  0.0312  0.3526
  186SAPI  H13R21360   4.252   6.149   9.096  0.1159  1.2376 -0.8050
  186SAPI  H13S21361   4.359   6.114   8.969  2.4025 -1.1789  0.5493
  186SAPI  C21421362   4.418   6.272   9.106 -0.0463  0.7164  0.7690
  186SAPI  H14R21363   4.367   6.335   9.180 -2.1234  0.6351 -0.5672
  186SAPI  C21521364   4.524   6.327   9.047  0.2715  0.6104 -0.4579
  186SAPI  H15R21365   4.559   6.427   9.078  1.4359 -0.7863  3.1084
  186SAPI  C21621366   4.612   6.252   8.954  0.3058  1.0634 -0.4484
  186SAPI  H16R21367   4.610   6.143   8.975 -0.4603  1.4695  1.6712
  186SAPI  H16S21368   4.718   6.285   8.956  1.5137 -2.4719 -1.5377
  186SAPI  C21721369   4.566   6.271   8.810  0.2084  0.3444  0.2429
  186SAPI  H17R21370   4.590   6.376   8.783 -1.5346  1.2153  1.9767
  186SAPI  H17S21371   4.460   6.239   8.806  0.2463  0.0700  1.3438
  186SAPI  C21821372   4.654   6.185   8.715  0.1331  0.3701  0.2793
  186SAPI  H18R21373   4.633   6.076   8.721 -1.0295  0.4820 -1.2517
  186SAPI  H18S21374   4.760   6.202   8.743  0.7833  0.0568 -1.8962
  186SAPI  C21921375   4.623   6.209   8.565  0.0232  0.8672  0.3507
  186SAPI  H19R21376   4.621   6.314   8.529 -1.9308  0.9232  0.5375
  186SAPI  H19S21377   4.515   6.189   8.545  0.1116  1.2850 -0.5684
  186SAPI  C22021378   4.712   6.131   8.465 -0.2102 -0.0755  0.3224
  186SAPI  H20R21379   4.720   6.024   8.493 -0.2380  0.0085  0.6586
  186SAPI  H20S21380   4.819   6.162   8.465 -0.0873 -0.3621  3.5430
  186SAPI  H20T21381   4.687   6.141   8.357 -0.1858  1.8319  0.4793
  186SAPI   C3321382   4.629   5.382  10.121 -0.2876 -0.4080  0.3731
  186SAPI   H3X21383   4.603   5.294  10.185  1.0078 -2.1904 -1.4836
  186SAPI   H3Y21384   4.730   5.409  10.156 -0.7155  0.6193  0.8304
  186SAPI   C3421385   4.617   5.336   9.975 -0.2940  0.2338 -0.2248
  186SAPI   H4X21386   4.516   5.296   9.952 -0.5692  0.3332  0.8011
  186SAPI   H4Y21387   4.686   5.248   9.976  0.7864  1.0798  0.8129
  186SAPI   C3521388   4.659   5.433   9.864 -0.4739  0.3092 -0.0458
  186SAPI   H5X21389   4.757   5.478   9.890  1.2816 -3.0574 -0.5621
  186SAPI   H5Y21390   4.568   5.497   9.864  0.5403  1.8160 -1.2905
  186SAPI   C3621391   4.668   5.353   9.735  0.0751  0.1130  0.7630
  186SAPI   H6X21392   4.569   5.309   9.711 -0.4433  1.5499  0.1768
  186SAPI   H6Y21393   4.736   5.266   9.745  0.6536  0.2946 -1.3709
  186SAPI   C3721394   4.696   5.435   9.610  1.1527  0.2812  0.0224
  186SAPI   H7X21395   4.790   5.493   9.614  1.0213  0.4725  0.3765
  186SAPI   H7Y21396   4.614   5.509   9.598 -2.5298 -3.1432  2.5177
  186SAPI   C3821397   4.710   5.340   9.489 -0.1287 -0.4368  0.0601
  186SAPI   H8X21398   4.621   5.276   9.471 -0.8806  0.8040 -0.7031
  186SAPI   H8Y21399   4.796   5.272   9.509  0.5992  0.5546  0.3470
  186SAPI   C3921400   4.726   5.421   9.357  0.0022  0.0874  0.7745
  186SAPI   H9X21401   4.776   5.515   9.391  0.8422  0.1566 -0.6449
  186SAPI   H9Y21402   4.633   5.451   9.304  2.4809  2.8433 -2.2022
  186SAPI  C31021403   4.808   5.357   9.247  0.2005 -0.7360  0.3985
  186SAPI  H10X21404   4.762   5.260   9.218 -0.4293 -0.4715  0.5065
  186SAPI  H10Y21405   4.909   5.331   9.285  0.9422  0.1036 -0.9413
  186SAPI  C31121406   4.824   5.447   9.120 -0.2308  0.2443  0.0955
  186SAPI  H11X21407   4.828   5.550   9.160 -0.1686  1.0249 -1.8327
  186SAPI  H11Y21408   4.734   5.434   9.056  1.0582 -1.6579 -1.4279
  186SAPI  C31221409   4.947   5.415   9.035  0.4056  0.1796  0.7079
  186SAPI  H12X21410   4.986   5.312   9.048  0.9518  0.2986  0.0938
  186SAPI  H12Y21411   5.026   5.487   9.068  0.4311  0.5581 -0.1597
  186SAPI  C31321412   4.923   5.442   8.876  0.3664  0.5688 -0.6503
  186SAPI  H13X21413   4.836   5.378   8.848  0.9004 -0.6820  0.4446
  186SAPI  H13Y21414   5.011   5.407   8.817  0.3455  0.8402 -0.8403
  186SAPI  C31421415   4.884   5.588   8.850  0.0980  0.4276 -0.0747
  186SAPI  H14X21416   4.968   5.646   8.894 -0.9352  1.3112  0.7723
  186SAPI  H14Y21417   4.796   5.613   8.914  0.7090 -1.9931  1.8030
  186SAPI  C31521418   4.869   5.610   8.696  0.5365 -0.0443 -1.1549
  186SAPI  H15X21419   4.966   5.577   8.653  0.1959 -4.7072  1.2957
  186SAPI  H15Y21420   4.845   5.718   8.684 -2.3559 -0.5212 -0.1274
  186SAPI  C31621421   4.767   5.521   8.622  0.3599 -0.3071 -0.6142
  186SAPI  H16X21422   4.766   5.417   8.661  1.8773  0.3994  1.3676
  186SAPI  H16Y21423   4.786   5.522   8.513 -1.4027  4.6568 -1.0225
  186SAPI  C31721424   4.620   5.565   8.643  0.5320  0.6969 -0.0132
  186SAPI  H17X21425   4.580   5.559   8.747 -1.1456 -0.5106 -0.7118
  186SAPI  H17Y21426   4.550   5.494   8.594  0.5665  0.4339  0.3134
  186SAPI  C31821427   4.589   5.708   8.584  0.4919  0.5957 -0.4880
  186SAPI  H18X21428   4.484   5.736   8.602  1.3461  4.0846 -0.6251
  186SAPI  H18Y21429   4.602   5.708   8.474  1.9520 -1.1821 -0.3462
  186SAPI  H18Z21430   4.656   5.786   8.626  1.2061 -1.5200  2.4489
  187SAPI   C1221431   1.278   6.168   6.544 -0.2544 -0.2098 -0.5581
  187SAPI    H221432   1.238   6.248   6.609 -0.2156  0.1337 -0.9579
  187SAPI    O221433   1.419   6.151   6.565 -0.3305  0.2256  0.4623
  187SAPI   HO221434   1.467   6.201   6.499  0.9473  0.5371  1.6128
  187SAPI   C1321435   1.197   6.045   6.578  0.1420 -0.2534  0.2214
  187SAPI    H321436   1.091   6.066   6.551 -0.5905  1.5728  4.1556
  187SAPI    O321437   1.199   6.018   6.720  0.2083 -0.1263 -0.4610
  187SAPI   HO321438   1.288   5.991   6.742 -0.1537 -2.3849 -1.6447
  187SAPI   C1421439   1.234   5.931   6.487  0.2708  0.1416 -0.1511
  187SAPI    H421440   1.344   5.922   6.502  0.6216  0.8826 -2.0952
  187SAPI    O421441   1.173   5.807   6.526 -0.3436  0.1760  0.3799
  187SAPI   HO421442   1.102   5.827   6.588 -2.6285 -0.2296 -2.0011
  187SAPI   C1521443   1.211   5.963   6.339  0.4302  0.1404 -0.4110
  187SAPI    H521444   1.101   5.980   6.331  0.4986 -0.4002 -2.9062
  187SAPI    O521445   1.240   5.854   6.247  0.0329 -0.3253  0.1026
  187SAPI   HO521446   1.321   5.812   6.277 -0.2850  0.3466  1.9737
  187SAPI   C1621447   1.290   6.086   6.307 -0.0231  0.1288 -0.1543
  187SAPI    H621448   1.397   6.056   6.315 -0.0838  0.1859  0.9805
  187SAPI    O621449   1.266   6.134   6.172  0.2149  0.1151  0.5364
  187SAPI   HO621450   1.177   6.170   6.169 -0.1433 -0.8137 -0.1312
  187SAPI   C1121451   1.259   6.205   6.399  0.4692 -0.3674 -0.5467
  187SAPI    H121452   1.152   6.225   6.379 -0.1276  0.1497  2.9898
  187SAPI     P21453   1.272   6.468   6.375  0.3838 -0.2585 -0.1144
  187SAPI   O1321454   1.144   6.476   6.299  0.0542 -0.5993  0.1211
  187SAPI   O1421455   1.376   6.562   6.336  0.6432 -0.1424  0.0725
  187SAPI   O1221456   1.338   6.321   6.364 -0.0870 -0.2443  0.2875
  187SAPI   O1121457   1.244   6.485   6.535  0.3431 -0.0150 -0.7528
  187SAPI    C121458   1.122   6.551   6.563 -0.6872 -0.5822  0.1298
  187SAPI    HA21459   1.119   6.653   6.521  0.5360 -1.4496 -2.1544
  187SAPI    HB21460   1.033   6.494   6.529 -1.0511 -0.1895  0.4335
  187SAPI    C221461   1.109   6.578   6.717  0.1246  0.0423  0.3862
  187SAPI    HS21462   1.015   6.637   6.728  0.7684  1.5417 -1.8333
  187SAPI   O2121463   1.222   6.644   6.764  0.2813  0.8202  0.3414
  187SAPI   C2121464   1.222   6.780   6.747  0.2696 -0.4766 -0.2944
  187SAPI   O2221465   1.125   6.841   6.701  0.0540  0.1607 -0.1145
  187SAPI   C2221466   1.355   6.849   6.780  0.1362  0.6788  0.3397
  187SAPI   H2R21467   1.421   6.760   6.793 -1.8761 -1.2495 -2.0536
  187SAPI   H2S21468   1.394   6.896   6.688 -0.4451  0.9733  0.2384
  187SAPI    C321469   1.098   6.446   6.794 -0.3662 -0.0761 -0.5171
  187SAPI    HX21470   1.182   6.379   6.765 -1.9275 -1.7015 -1.4621
  187SAPI    HY21471   1.008   6.391   6.758 -2.0146  1.6999  0.8310
  187SAPI   O3121472   1.079   6.461   6.939 -0.1511  0.3377 -0.7903
  187SAPI   C3121473   1.180   6.439   7.015 -0.1302  0.2263 -0.2888
  187SAPI   O3221474   1.293   6.419   6.982  0.0788  0.2985  0.3312
  187SAPI   C3221475   1.132   6.448   7.163  0.0800  0.6942 -0.9083
  187SAPI   H2X21476   1.060   6.363   7.167 -0.0779  0.9009  1.0450
  187SAPI   H2Y21477   1.091   6.550   7.175  0.7214  0.5183  3.3719
  187SAPI   C2321478   1.343   6.936   6.902  0.3843 -0.5807  0.0728
  187SAPI   H3R21479   1.257   7.007   6.901  1.4032  0.6795  0.4337
  187SAPI   H3S21480   1.436   6.997   6.901 -0.9152  1.4463 -2.1335
  187SAPI   C2421481   1.348   6.870   7.042 -0.8383  0.4997  0.7452
  187SAPI   H4R21482   1.277   6.785   7.035 -1.2667  0.7981  1.3514
  187SAPI   H4S21483   1.293   6.938   7.111 -1.0690 -0.6677  1.7362
  187SAPI   C2521484   1.482   6.836   7.107 -0.1327  0.6480  0.3299
  187SAPI   H5R21485   1.554   6.814   7.027 -1.3173  0.3776 -0.6801
  187SAPI   C2621486   1.524   6.851   7.238 -0.1337 -0.0613 -0.8841
  187SAPI   H6R21487   1.622   6.818   7.273 -0.8377  0.6666  1.8743
  187SAPI   C2721488   1.448   6.902   7.355  0.0501  0.0665  0.6642
  187SAPI   H7R21489   1.349   6.932   7.316 -0.0509 -3.3319 -1.9720
  187SAPI   H7S21490   1.488   6.995   7.400  1.8781 -0.8787  1.0899
  187SAPI   C2821491   1.425   6.795   7.460 -0.2411 -0.1207 -0.1730
  187SAPI   H8R21492   1.433   6.690   7.428 -0.6229 -0.1937 -0.0284
  187SAPI   C2921493   1.389   6.813   7.594  0.2047  0.6609  0.6093
  187SAPI   H9R21494   1.354   6.723   7.648 -0.9127  1.4617  1.2315
  187SAPI  C21021495   1.368   6.937   7.676  0.6288  0.2283 -0.2683
  187SAPI  H10R21496   1.412   7.030   7.634  1.0345  0.5468  0.8388
  187SAPI  H10S21497   1.417   6.923   7.775  2.0298  0.5149 -0.9039
  187SAPI  C21121498   1.221   6.969   7.699  0.2462  0.1622 -0.4579
  187SAPI  H11R21499   1.169   6.990   7.604  0.1909 -0.6946 -0.6265
  187SAPI  C21221500   1.146   6.965   7.810 -0.4409 -0.5482 -0.3737
  187SAPI  H12R21501   1.041   6.998   7.809 -0.3545 -0.0457  2.9082
  187SAPI  C21321502   1.205   6.935   7.945 -0.6602  1.1397  0.6147
  187SAPI  H13R21503   1.270   7.019   7.978  2.1883 -1.7519  2.5489
  187SAPI  H13S21504   1.282   6.857   7.932  0.3221  1.8983  1.7755
  187SAPI  C21421505   1.087   6.902   8.039 -0.3608 -0.0395  0.0809
  187SAPI  H14R21506   1.036   6.814   7.998  0.3363  0.1617 -1.2558
  187SAPI  C21521507   1.040   6.954   8.149 -0.0685 -0.2213  0.3524
  187SAPI  H15R21508   0.967   6.893   8.204  0.5227 -0.5710  0.7587
  187SAPI  C21621509   1.092   7.081   8.218  0.3324  0.3260  0.7792
  187SAPI  H16R21510   1.010   7.155   8.231  3.5436  3.7633  2.8241
  187SAPI  H16S21511   1.157   7.151   8.160 -0.8131  1.0680  0.3736
  187SAPI  C21721512   1.142   7.044   8.359  0.7603  0.1240  0.1695
  187SAPI  H17R21513   1.222   6.967   8.361  0.1307 -0.6324 -2.5742
  187SAPI  H17S21514   1.061   6.992   8.415  1.1116  0.4752  1.0092
  187SAPI  C21821515   1.192   7.165   8.431 -0.0552  0.0456  0.2348
  187SAPI  H18R21516   1.121   7.247   8.454 -1.0969 -0.7690 -0.0535
  187SAPI  H18S21517   1.262   7.211   8.357 -0.4919 -1.5026 -1.1531
  187SAPI  C21921518   1.271   7.132   8.560 -0.1448 -0.2913 -0.3159
  187SAPI  H19R21519   1.326   7.224   8.586 -0.8683  0.4908 -1.4718
  187SAPI  H19S21520   1.339   7.050   8.527 -1.7198 -1.4344 -0.7969
  187SAPI  C22021521   1.197   7.086   8.689 -0.2149 -0.3474 -0.4043
  187SAPI  H20R21522   1.273   7.050   8.761 -0.3317  0.5533  0.1762
  187SAPI  H20S21523   1.137   6.995   8.666 -2.4744  1.3161 -1.3232
  187SAPI  H20T21524   1.121   7.161   8.721 -1.8555 -2.4691  0.8411
  187SAPI   C3321525   1.256   6.427   7.244 -0.2809 -0.1110 -0.2572
  187SAPI   H3X21526   1.348   6.488   7.228 -0.1998  0.3145  1.7494
  187SAPI   H3Y21527   1.287   6.320   7.247 -2.7349 -0.8352 -0.0887
  187SAPI   C3421528   1.215   6.470   7.393 -0.3912 -0.7028  0.1594
  187SAPI   H4X21529   1.114   6.428   7.413  0.1030 -2.8916 -1.7569
  187SAPI   H4Y21530   1.199   6.580   7.384 -1.4089 -0.8230  0.3748
  187SAPI   C3521531   1.313   6.434   7.506  0.3114 -0.1616  0.7007
  187SAPI   H5X21532   1.399   6.500   7.485  0.9021 -0.1468  3.0384
  187SAPI   H5Y21533   1.343   6.329   7.483  0.6942 -0.4795  2.5197
  187SAPI   C3621534   1.260   6.456   7.651  0.6940  0.2480  0.0493
  187SAPI   H6X21535   1.170   6.392   7.662 -0.5310  1.7522 -1.0265
  187SAPI   H6Y21536   1.219   6.558   7.662 -1.1281 -0.5440  0.7924
  187SAPI   C3721537   1.362   6.427   7.760  0.3696 -0.0951 -0.0923
  187SAPI   H7X21538   1.452   6.492   7.749  1.4936 -1.6158 -0.0982
  187SAPI   H7Y21539   1.406   6.326   7.747  2.9005  0.9684 -0.2418
  187SAPI   C3821540   1.298   6.450   7.904  0.1801 -0.7756  0.7754
  187SAPI   H8X21541   1.208   6.386   7.917  1.3932 -3.0621 -1.5697
  187SAPI   H8Y21542   1.281   6.560   7.911  0.2631 -0.7822  1.0580
  187SAPI   C3921543   1.403   6.415   8.012  0.1537  0.3405  0.8580
  187SAPI   H9X21544   1.484   6.488   7.990  0.0295  0.2686  0.1346
  187SAPI   H9Y21545   1.439   6.311   8.004 -1.6054 -0.2081 -0.1614
  187SAPI  C31021546   1.344   6.443   8.151  0.1527 -0.1575  0.0885
  187SAPI  H10X21547   1.329   6.553   8.157 -1.9223 -0.3571 -1.1414
  187SAPI  H10Y21548   1.418   6.412   8.228  2.7305  0.4028 -2.0625
  187SAPI  C31121549   1.208   6.372   8.178  0.0385  0.1935 -0.0440
  187SAPI  H11X21550   1.220   6.262   8.172  1.8558  0.2543  1.7542
  187SAPI  H11Y21551   1.126   6.401   8.108 -1.0798  0.3324  1.3079
  187SAPI  C31221552   1.149   6.402   8.318 -0.1853 -0.0159 -0.6860
  187SAPI  H12X21553   1.217   6.368   8.399 -0.7981 -2.3887 -1.1390
  187SAPI  H12Y21554   1.066   6.337   8.353  1.0339 -1.5598 -0.6170
  187SAPI  C31321555   1.109   6.548   8.340  0.5624 -0.0734  0.3698
  187SAPI  H13X21556   1.029   6.568   8.266  1.3151 -3.4052 -1.4532
  187SAPI  H13Y21557   1.190   6.615   8.304  0.5555 -1.2536 -1.9133
  187SAPI  C31421558   1.055   6.588   8.475  0.6306 -0.3078  0.3891
  187SAPI  H14X21559   1.034   6.501   8.540  0.3156  0.6631  1.6028
  187SAPI  H14Y21560   0.959   6.642   8.460  1.5095  0.9555 -0.8710
  187SAPI  C31521561   1.161   6.675   8.549 -1.0303  0.4541 -0.2479
  187SAPI  H15X21562   1.104   6.699   8.641  0.0293  0.2134  0.4754
  187SAPI  H15Y21563   1.177   6.774   8.501 -1.4429  0.9538  0.6479
  187SAPI  C31621564   1.292   6.607   8.574 -0.2513 -0.0181 -0.2228
  187SAPI  H16X21565   1.361   6.619   8.488 -0.8391 -0.1158 -0.7106
  187SAPI  H16Y21566   1.270   6.499   8.591 -0.4817  0.0726  0.0491
  187SAPI  C31721567   1.366   6.660   8.696 -0.0870  0.8163 -0.3587
  187SAPI  H17X21568   1.370   6.771   8.703  2.0018  0.6435  1.6141
  187SAPI  H17Y21569   1.475   6.635   8.696 -0.0398  1.0239 -0.8858
  187SAPI  C31821570   1.307   6.622   8.834  0.0901  0.3729 -0.4247
  187SAPI  H18X21571   1.368   6.679   8.908 -0.9894  1.3518 -0.2680
  187SAPI  H18Y21572   1.314   6.512   8.848 -0.4182  0.0946 -2.2858
  187SAPI  H18Z21573   1.202   6.650   8.858 -0.0491 -0.8902  0.4833
  188SAPI   C1221574   2.499   3.316   6.394  0.0162  0.4491  0.6220
  188SAPI    H221575   2.430   3.315   6.481 -0.6775 -0.7921  0.0857
  188SAPI    O221576   2.412   3.329   6.285 -0.8558  0.2645  0.1899
  188SAPI   HO221577   2.370   3.245   6.264  2.0186 -1.3401  0.6704
  188SAPI   C1321578   2.591   3.436   6.392  0.4072 -0.2808 -0.3161
  188SAPI    H321579   2.657   3.425   6.480 -0.6970 -0.4001  0.5102
  188SAPI    O321580   2.524   3.558   6.413  0.2198 -0.2392 -0.6405
  188SAPI   HO321581   2.550   3.620   6.345  1.0174 -0.0635 -0.1725
  188SAPI   C1421582   2.668   3.449   6.262 -0.1544  0.0805 -0.4724
  188SAPI    H421583   2.593   3.462   6.181 -0.4964 -1.8107 -0.4834
  188SAPI    O421584   2.755   3.569   6.259  0.2338  0.3985  0.0053
  188SAPI   HO421585   2.705   3.647   6.233  1.1727  1.1856  0.5105
  188SAPI   C1521586   2.743   3.317   6.236 -0.8185  0.2266  0.6255
  188SAPI    H521587   2.820   3.310   6.317 -0.1303 -1.4886 -0.1565
  188SAPI    O521588   2.820   3.312   6.115  0.5932  0.3741  0.1719
  188SAPI   HO521589   2.905   3.354   6.130  0.1141  0.8948  1.4874
  188SAPI   C1621590   2.656   3.196   6.247 -0.2790 -1.1748  0.5310
  188SAPI    H621591   2.582   3.211   6.165  2.2554  2.6252 -1.1811
  188SAPI    O621592   2.732   3.077   6.224  0.4892 -0.4750 -0.7751
  188SAPI   HO621593   2.727   3.024   6.304 -0.8260  0.0696 -0.4695
  188SAPI   C1121594   2.584   3.192   6.384  0.2478  0.1058 -0.5011
  188SAPI    H121595   2.663   3.187   6.462  0.8827 -2.1775 -1.2443
  188SAPI     P21596   2.514   2.938   6.445  0.1061 -0.3267 -0.3692
  188SAPI   O1321597   2.652   2.908   6.418 -0.1635  0.6804 -0.3706
  188SAPI   O1421598   2.403   2.852   6.397 -0.1742 -0.3572  0.3483
  188SAPI   O1221599   2.490   3.089   6.387  0.1386  0.7951 -0.9457
  188SAPI   O1121600   2.510   2.966   6.607  0.7233 -0.0087  0.4344
  188SAPI    C121601   2.389   3.020   6.667 -0.3840  0.1269  0.0617
  188SAPI    HA21602   2.380   3.130   6.653 -1.1841  0.0819  0.2108
  188SAPI    HB21603   2.299   2.975   6.619 -1.4583  1.7202  0.5321
  188SAPI    C221604   2.388   2.995   6.818  0.4970  0.2982  0.2003
  188SAPI    HS21605   2.298   3.032   6.872 -0.5187 -0.2159 -1.1174
  188SAPI   O2121606   2.500   3.071   6.874  0.5904  0.5933 -0.1051
  188SAPI   C2121607   2.466   3.201   6.890  0.1108  0.8365 -0.8275
  188SAPI   O2221608   2.363   3.253   6.856  0.0064 -0.0246 -0.0657
  188SAPI   C2221609   2.575   3.270   6.962 -0.1259  0.4827  0.3355
  188SAPI   H2R21610   2.666   3.208   6.945 -1.8088 -1.6040 -1.3621
  188SAPI   H2S21611   2.590   3.366   6.906 -0.1247  0.5660  0.4793
  188SAPI    C321612   2.408   2.843   6.843 -0.3084 -0.1551  0.0433
  188SAPI    HX21613   2.485   2.797   6.777 -0.9390  1.3058 -1.7432
  188SAPI    HY21614   2.312   2.802   6.806 -0.0113 -0.4563 -0.3984
  188SAPI   O3121615   2.425   2.807   6.983 -0.4626  0.5495 -0.1604
  188SAPI   C3121616   2.551   2.796   7.027  0.7289  0.0967 -0.2485
  188SAPI   O3221617   2.644   2.844   6.965 -0.2129  0.2397  0.0810
  188SAPI   C3221618   2.554   2.709   7.146  0.2137  0.7273 -0.2703
  188SAPI   H2X21619   2.482   2.626   7.130 -0.1653  0.9505  0.2696
  188SAPI   H2Y21620   2.526   2.772   7.233 -1.2713 -0.4008  0.0851
  188SAPI   C2321621   2.541   3.302   7.108 -0.3662 -0.7067 -0.4287
  188SAPI   H3R21622   2.443   3.352   7.119  0.0097 -0.1660  0.4671
  188SAPI   H3S21623   2.618   3.377   7.135  0.7833 -0.4546 -4.0673
  188SAPI   C2421624   2.537   3.179   7.210  0.7418  0.3963 -0.4223
  188SAPI   H4R21625   2.447   3.120   7.183  0.7185  0.1988  0.0945
  188SAPI   H4S21626   2.521   3.226   7.309  0.3781  1.6447 -1.0753
  188SAPI   C2521627   2.656   3.085   7.204  0.0854  0.3938 -0.5864
  188SAPI   H5R21628   2.678   3.034   7.109  0.2522 -1.0107  0.1887
  188SAPI   C2621629   2.731   3.046   7.313  0.8189  0.4309 -0.7992
  188SAPI   H6R21630   2.795   2.958   7.297  1.4124  0.6513  0.3807
  188SAPI   C2721631   2.716   3.085   7.459  0.0363  0.9700 -0.1385
  188SAPI   H7R21632   2.704   3.004   7.535 -0.2497  0.9908 -0.1619
  188SAPI   H7S21633   2.628   3.151   7.468 -0.3793  0.3206  0.6362
  188SAPI   C2821634   2.837   3.168   7.486  0.8170  0.2411 -0.3995
  188SAPI   H8R21635   2.881   3.231   7.407  0.4230 -2.7106 -3.0372
  188SAPI   C2921636   2.903   3.184   7.602 -0.2380  0.5397 -0.5574
  188SAPI   H9R21637   2.992   3.249   7.604 -0.2065  0.5561 -1.9390
  188SAPI  C21021638   2.866   3.114   7.730  0.3882 -0.4377 -0.5182
  188SAPI  H10R21639   2.900   3.009   7.718 -1.1793 -1.1166  0.7809
  188SAPI  H10S21640   2.756   3.126   7.733  0.2242 -1.7357 -1.2483
  188SAPI  C21121641   2.920   3.189   7.852 -0.9729  0.1044 -0.0444
  188SAPI  H11R21642   2.959   3.289   7.825 -1.5143  0.3820  0.1911
  188SAPI  C21221643   2.927   3.144   7.980  0.4803 -0.2386 -0.3194
  188SAPI  H12R21644   2.977   3.200   8.060 -0.5324 -0.2394  0.3331
  188SAPI  C21321645   2.893   3.007   8.024 -0.3572  0.1627  0.2942
  188SAPI  H13R21646   2.835   2.953   7.946  0.3781 -2.4081  1.4399
  188SAPI  H13S21647   2.816   3.004   8.104  0.8206 -1.5890  1.3924
  188SAPI  C21421648   3.008   2.918   8.049  0.4481  0.3456 -0.0765
  188SAPI  H14R21649   3.048   2.864   7.962 -0.4783 -0.5113  0.0252
  188SAPI  C21521650   3.057   2.888   8.167 -0.2036  0.5383 -0.3430
  188SAPI  H15R21651   3.156   2.840   8.170  0.2586  1.5588  1.7411
  188SAPI  C21621652   3.002   2.927   8.304  0.7216 -0.2492  0.2304
  188SAPI  H16R21653   3.003   2.841   8.375 -0.2584  0.5565  1.2234
  188SAPI  H16S21654   2.896   2.954   8.286  0.5489 -1.3650 -0.5035
  188SAPI  C21721655   3.098   3.032   8.350  0.1265 -0.2832 -0.1022
  188SAPI  H17R21656   3.097   3.118   8.280  1.0756 -0.8778 -0.8659
  188SAPI  H17S21657   3.202   2.992   8.351  0.3688  0.3445  0.5401
  188SAPI  C21821658   3.084   3.079   8.498 -0.2069 -0.6646 -0.1282
  188SAPI  H18R21659   3.167   3.144   8.533  0.0197 -0.7097 -0.5703
  188SAPI  H18S21660   3.068   2.995   8.569 -0.1618  0.5277  1.3239
  188SAPI  C21921661   2.961   3.164   8.500 -0.5833  0.3018 -0.6551
  188SAPI  H19R21662   2.872   3.098   8.484 -0.5161 -0.1311  0.6787
  188SAPI  H19S21663   2.967   3.242   8.422 -0.7993  1.8717  0.8767
  188SAPI  C22021664   2.936   3.216   8.642  0.1691 -0.1671  0.3697
  188SAPI  H20R21665   2.837   3.266   8.655  0.5037  0.6905 -0.3047
  188SAPI  H20S21666   3.019   3.283   8.673  0.0984  0.0306  0.1362
  188SAPI  H20T21667   2.935   3.131   8.713  0.5600 -1.5716 -1.2830
  188SAPI   C3321668   2.695   2.641   7.159  0.2946 -0.3606  0.5926
  188SAPI   H3X21669   2.775   2.718   7.150  0.1502 -0.3479 -0.7336
  188SAPI   H3Y21670   2.702   2.572   7.072 -0.2350  2.6608 -1.9397
  188SAPI   C3421671   2.702   2.581   7.299  0.0840 -0.6429  0.3308
  188SAPI   H4X21672   2.780   2.501   7.303 -0.1314 -0.7870  2.1530
  188SAPI   H4Y21673   2.606   2.531   7.321 -0.4505  0.2472  0.0454
  188SAPI   C3521674   2.725   2.679   7.411 -0.7232 -0.0284  0.1097
  188SAPI   H5X21675   2.649   2.760   7.409 -0.6002  0.1046  0.6056
  188SAPI   H5Y21676   2.828   2.722   7.412 -0.2697 -1.0314  3.4373
  188SAPI   C3621677   2.717   2.585   7.542  0.5977 -0.6349  1.2657
  188SAPI   H6X21678   2.757   2.482   7.535 -3.3712 -2.3384  2.7323
  188SAPI   H6Y21679   2.611   2.561   7.564  0.5368 -0.7170  0.8853
  188SAPI   C3721680   2.762   2.653   7.671  0.0457  0.0433 -0.2733
  188SAPI   H7X21681   2.712   2.752   7.682 -1.0453 -0.6364  1.1054
  188SAPI   H7Y21682   2.869   2.677   7.653  0.5585  0.0957  2.5990
  188SAPI   C3821683   2.761   2.568   7.801  0.5328  0.0262  0.2309
  188SAPI   H8X21684   2.826   2.481   7.778  1.2518  0.4902  0.5117
  188SAPI   H8Y21685   2.660   2.523   7.813  1.4315 -2.7544 -2.0560
  188SAPI   C3921686   2.813   2.648   7.917  0.1285 -0.4081  0.2729
  188SAPI   H9X21687   2.770   2.751   7.921  2.3849  0.5570  0.7198
  188SAPI   H9Y21688   2.921   2.672   7.909 -0.2245  0.9408 -0.7537
  188SAPI  C31021689   2.766   2.582   8.051 -0.6755  0.0085  0.3379
  188SAPI  H10X21690   2.807   2.479   8.050  1.8736  0.9568  1.2103
  188SAPI  H10Y21691   2.658   2.560   8.064 -0.0031 -2.6822  1.6532
  188SAPI  C31121692   2.810   2.653   8.176 -0.2003 -1.0460 -0.4021
  188SAPI  H11X21693   2.787   2.761   8.170  0.1261 -1.0848 -2.5495
  188SAPI  H11Y21694   2.917   2.652   8.208 -0.3583  0.1269  0.1703
  188SAPI  C31221695   2.729   2.603   8.300  1.0904 -0.2770  0.2428
  188SAPI  H12X21696   2.760   2.500   8.327  2.5781 -0.0739 -0.5957
  188SAPI  H12Y21697   2.621   2.597   8.275  0.6422  0.1144  2.0647
  188SAPI  C31321698   2.758   2.698   8.416  0.0511 -0.0098  0.7906
  188SAPI  H13X21699   2.731   2.800   8.382  0.9137  0.3769  1.2675
  188SAPI  H13Y21700   2.864   2.701   8.446  0.4980  0.6422 -0.7813
  188SAPI  C31421701   2.692   2.654   8.544  0.0516 -0.3184 -0.2583
  188SAPI  H14X21702   2.716   2.549   8.573 -0.6747  0.0969  2.0010
  188SAPI  H14Y21703   2.582   2.659   8.530 -0.1053 -1.2361  0.5446
  188SAPI  C31521704   2.726   2.744   8.675 -0.1997  0.4675  0.0497
  188SAPI  H15X21705   2.636   2.727   8.738  0.4874  1.3146  1.2909
  188SAPI  H15Y21706   2.732   2.848   8.638 -0.1461 -0.0993 -1.5866
  188SAPI  C31621707   2.857   2.708   8.740  0.0302  0.7202 -0.3967
  188SAPI  H16X21708   2.945   2.723   8.674 -0.6208 -0.0384 -1.4457
  188SAPI  H16Y21709   2.863   2.603   8.776 -2.1547  0.9602  0.7967
  188SAPI  C31721710   2.879   2.797   8.866  0.0434  0.1406 -0.6354
  188SAPI  H17X21711   2.803   2.764   8.940  0.7534  0.6692  0.3455
  188SAPI  H17Y21712   2.834   2.895   8.843 -2.3077 -0.7931 -0.1736
  188SAPI  C31821713   3.012   2.795   8.926  0.0232  0.0108  0.3239
  188SAPI  H18X21714   3.088   2.847   8.864 -0.8340 -1.1362 -1.7556
  188SAPI  H18Y21715   3.043   2.689   8.937  1.1825  0.4218  1.1127
  188SAPI  H18Z21716   3.008   2.829   9.032  1.1235  1.2263 -0.0203
  189POPC     N21717   2.575   4.897  10.788 -0.1282  0.0038  0.4430
  189POPC   C1221718   2.486   4.775  10.766  0.8135 -0.1892  0.4315
  189POPC  H12A21719   2.534   4.716  10.689 -0.4940 -2.2780  1.1553
  189POPC  H12B21720   2.396   4.807  10.716 -0.7215 -1.0418  2.5314
  189POPC   C1321721   2.613   4.959  10.652  0.6344 -1.4614 -0.4178
  189POPC  H13A21722   2.650   4.881  10.587 -0.4288 -2.3783  0.0602
  189POPC  H13B21723   2.528   5.001  10.601 -0.4845 -0.6748  2.0262
  189POPC  H13C21724   2.688   5.034  10.671 -0.1677 -0.4293 -1.3507
  189POPC   C1421725   2.514   5.005  10.873  0.2631 -0.6402 -0.3122
  189POPC  H14A21726   2.578   5.090  10.893 -2.0403  0.9895  0.3631
  189POPC  H14B21727   2.415   5.034  10.841 -0.0820 -1.5392 -0.0640
  189POPC  H14C21728   2.492   4.961  10.969 -0.3463  0.5053  0.0849
  189POPC   C1521729   2.696   4.860  10.862  0.1636  0.6287 -0.4890
  189POPC  H15A21730   2.760   4.945  10.882 -0.2136  0.1333  3.1726
  189POPC  H15B21731   2.743   4.776  10.813  1.1288  1.0652 -0.3080
  189POPC  H15C21732   2.662   4.814  10.954  0.0490  0.7542 -0.4672
  189POPC   C1121733   2.430   4.704  10.889  0.5032 -0.5110  0.1134
  189POPC  H11A21734   2.356   4.628  10.855 -0.3800  0.2574  0.2892
  189POPC  H11B21735   2.372   4.780  10.945  2.4508  1.4389 -0.4314
  189POPC     P21736   2.633   4.534  10.939  0.1871 -0.1105 -0.1972
  189POPC   O1321737   2.571   4.400  10.963 -0.4848  0.1060  0.1973
  189POPC   O1421738   2.761   4.563  11.008 -0.4235 -0.0257 -0.8545
  189POPC   O1221739   2.533   4.651  10.972 -0.2360 -0.4954  0.3471
  189POPC   O1121740   2.653   4.537  10.787  0.0930  0.4459 -0.6544
  189POPC    C121741   2.763   4.490  10.709  0.1559  0.4598  0.3798
  189POPC    HA21742   2.796   4.389  10.739  0.3258  0.3376 -0.2145
  189POPC    HB21743   2.843   4.566  10.724 -1.1343  1.5555  1.9800
  189POPC    C221744   2.733   4.485  10.554 -0.3377 -0.2522  0.0234
  189POPC    HS21745   2.712   4.584  10.510 -1.6727 -0.6094 -0.1543
  189POPC   O2121746   2.627   4.396  10.518 -0.0198 -0.2411  0.2635
  189POPC   C2121747   2.509   4.462  10.497  0.5003 -0.2623  0.5783
  189POPC   O2221748   2.497   4.582  10.487  0.1370 -0.6011  0.1275
  189POPC   C2221749   2.393   4.363  10.462  0.0428  0.3163 -0.6699
  189POPC   H2R21750   2.362   4.320  10.560 -0.6604 -1.8810 -1.8040
  189POPC   H2S21751   2.427   4.272  10.408 -3.2768 -1.5815  0.2410
  189POPC    C321752   2.863   4.450  10.471 -0.0401 -0.4218 -0.0833
  189POPC    HX21753   2.897   4.347  10.496 -0.3031 -0.4299  0.2471
  189POPC    HY21754   2.950   4.515  10.496  2.6632 -3.5088 -1.1683
  189POPC   O3121755   2.818   4.452  10.333 -0.3495 -0.2678  0.0006
  189POPC   C3121756   2.884   4.530  10.258  0.3321  0.2295  0.0193
  189POPC   O3221757   2.981   4.595  10.291 -0.8234 -0.3515 -0.6778
  189POPC   C3221758   2.820   4.532  10.124  0.5860 -0.9804  0.2470
  189POPC   H2X21759   2.793   4.429  10.094  1.0240 -2.3252  4.1845
  189POPC   H2Y21760   2.898   4.553  10.047 -0.9236  2.9922 -0.3370
  189POPC   C2321761   2.273   4.437  10.397  0.1903 -1.0220  0.0367
  189POPC   H3R21762   2.236   4.525  10.453 -0.8850 -0.4197 -1.5827
  189POPC   H3S21763   2.184   4.370  10.395 -0.6477  0.0879 -0.8502
  189POPC   C2421764   2.312   4.481  10.253 -0.1453  0.2430  0.2857
  189POPC   H4R21765   2.389   4.405  10.227  0.3107  0.5710  0.7040
  189POPC   H4S21766   2.367   4.577  10.257  2.5681 -1.1649 -1.5640
  189POPC   C2521767   2.196   4.485  10.146 -0.3674 -0.2472  0.0862
  189POPC   H5R21768   2.111   4.547  10.180  0.4074  0.5558  0.5630
  189POPC   H5S21769   2.158   4.382  10.125  2.3666 -1.8283  2.5370
  189POPC   C2621770   2.234   4.546  10.014  0.1776  0.3420  0.8928
  189POPC   H6R21771   2.334   4.511   9.981  0.0116  0.3882  0.3241
  189POPC   H6S21772   2.244   4.656  10.030  2.4653  0.4443 -0.9908
  189POPC   C2721773   2.120   4.548   9.910  0.0430  0.4685  0.1319
  189POPC   H7R21774   2.031   4.602   9.948 -0.6599  0.7814 -1.9118
  189POPC   H7S21775   2.096   4.440   9.903  1.0922  0.2237  0.2158
  189POPC   C2821776   2.159   4.605   9.778  0.0847 -0.0415  0.7726
  189POPC   H8R21777   2.254   4.560   9.742  0.2246  0.1559  0.8962
  189POPC   H8S21778   2.179   4.712   9.798  1.3716  0.2350 -1.7927
  189POPC   C2921779   2.057   4.579   9.667 -1.0732  0.8847 -0.0558
  189POPC   H9121780   1.953   4.573   9.704 -1.3087 -0.0072 -0.8364
  189POPC  C21021781   2.074   4.555   9.535  0.6984  0.3762 -0.8551
  189POPC  H10121782   1.984   4.563   9.472 -1.5156  0.4280  2.1916
  189POPC  C21121783   2.200   4.556   9.454  0.9794  1.0574  0.2936
  189POPC  H11R21784   2.198   4.479   9.375  0.4198  2.3058 -0.9187
  189POPC  H11S21785   2.287   4.524   9.516  0.5118 -0.5509  0.1438
  189POPC  C21221786   2.215   4.688   9.377  0.0584 -1.2646 -0.1024
  189POPC  H12R21787   2.311   4.687   9.321  0.2298 -0.8855  0.1782
  189POPC  H12S21788   2.224   4.771   9.450 -0.1078 -0.9751 -0.4067
  189POPC  C21321789   2.109   4.708   9.273  0.0678  0.7251 -0.5512
  189POPC  H13R21790   2.006   4.726   9.312  0.2077  1.4718 -0.5110
  189POPC  H13S21791   2.103   4.620   9.206  0.1846 -1.8566  2.7236
  189POPC  C21421792   2.141   4.827   9.176 -0.1040 -0.5392 -0.4964
  189POPC  H14R21793   2.237   4.801   9.128  0.4252 -1.7301  1.1185
  189POPC  H14S21794   2.147   4.921   9.234 -2.9325 -1.6313  1.6982
  189POPC  C21521795   2.029   4.844   9.072  0.1539 -0.6725 -0.1494
  189POPC  H15R21796   1.945   4.879   9.136  0.7804  1.7362 -0.5971
  189POPC  H15S21797   2.010   4.742   9.031  0.1805 -1.4065  1.6259
  189POPC  C21621798   2.063   4.933   8.957  0.3067  0.8293  0.0098
  189POPC  H16R21799   2.149   4.884   8.908 -0.7833  0.7348 -1.8813
  189POPC  H16S21800   2.081   5.041   8.979  0.6956  0.8217 -0.2655
  189POPC  C21721801   1.958   4.937   8.845  0.2466  0.2993  0.1411
  189POPC  H17R21802   1.973   4.846   8.783 -2.0824 -0.0664  0.0578
  189POPC  H17S21803   1.980   5.018   8.772 -0.0163 -1.1456 -1.5888
  189POPC  C21821804   1.816   4.946   8.896 -0.2871 -0.8393  0.3127
  189POPC  H18R21805   1.750   4.944   8.807  2.9083 -1.3770 -2.1292
  189POPC  H18S21806   1.807   5.039   8.955  1.1488 -0.9775  0.7823
  189POPC  H18T21807   1.796   4.872   8.977 -1.1013 -0.4232  0.4964
  189POPC   C3321808   2.697   4.628  10.110 -0.9760  0.1425  0.2451
  189POPC   H3X21809   2.727   4.735  10.113 -0.4846  0.0707 -1.8295
  189POPC   H3Y21810   2.630   4.605  10.196  0.9535 -2.7260  1.0769
  189POPC   C3421811   2.630   4.602   9.975  0.2033 -0.0210 -0.5401
  189POPC   H4X21812   2.528   4.646   9.982  0.4116  0.6053 -1.3637
  189POPC   H4Y21813   2.607   4.494   9.975 -0.5557  0.1343 -1.4402
  189POPC   C3521814   2.701   4.640   9.842 -0.4699 -0.4196 -0.3460
  189POPC   H5X21815   2.802   4.594   9.838 -0.2909 -0.0547 -0.0476
  189POPC   H5Y21816   2.717   4.750   9.837 -0.7154 -0.3082  1.1900
  189POPC   C3621817   2.614   4.600   9.724 -0.0728 -0.1401  0.1757
  189POPC   H6X21818   2.518   4.650   9.749  0.4330  1.4108 -0.9551
  189POPC   H6Y21819   2.604   4.490   9.724 -1.2129 -0.0729 -3.5403
  189POPC   C3721820   2.660   4.659   9.588 -0.0419  0.3799 -0.5198
  189POPC   H7X21821   2.763   4.619   9.571 -0.0592 -1.3101  2.8727
  189POPC   H7Y21822   2.663   4.769   9.596 -2.1244  0.5451 -1.6896
  189POPC   C3821823   2.577   4.623   9.470  0.9176 -0.1901  0.0104
  189POPC   H8X21824   2.473   4.662   9.474  1.4075  1.1845 -0.2935
  189POPC   H8Y21825   2.561   4.513   9.471  3.1820 -0.5585 -0.3884
  189POPC   C3921826   2.636   4.663   9.335  0.3410 -0.0439 -0.1892
  189POPC   H9X21827   2.743   4.634   9.330  0.3665 -0.1401  0.8943
  189POPC   H9Y21828   2.631   4.772   9.313 -0.3259 -0.7200 -3.7909
  189POPC  C31021829   2.574   4.585   9.213  0.2441  0.0903  0.1925
  189POPC  H10X21830   2.464   4.577   9.228 -0.1594  2.4391 -1.1837
  189POPC  H10Y21831   2.625   4.487   9.221  2.5521  1.0796 -1.8093
  189POPC  C31121832   2.590   4.663   9.079  0.0126  0.4567 -0.3002
  189POPC  H11X21833   2.696   4.646   9.051  0.3449  2.7457 -0.5457
  189POPC  H11Y21834   2.577   4.770   9.103 -0.5133  0.2414  0.3925
  189POPC  C31221835   2.501   4.605   8.974  0.6276  0.3907 -0.2260
  189POPC  H12X21836   2.403   4.578   9.017  2.2079 -4.0262  0.8558
  189POPC  H12Y21837   2.542   4.509   8.938  0.8448 -0.1274  1.3872
  189POPC  C31321838   2.484   4.703   8.854  0.3917 -0.5668 -0.1148
  189POPC  H13X21839   2.470   4.809   8.884 -0.0510 -0.3023 -1.2443
  189POPC  H13Y21840   2.393   4.670   8.800  0.8127  1.4599 -2.1313
  189POPC  C31421841   2.594   4.704   8.746 -0.2862 -0.3317  0.0267
  189POPC  H14X21842   2.617   4.603   8.704  2.1081 -0.6252  1.9157
  189POPC  H14Y21843   2.684   4.736   8.802 -0.8018  1.3315 -0.0688
  189POPC  C31521844   2.573   4.803   8.634 -0.5922 -0.0456  0.4268
  189POPC  H15X21845   2.638   4.888   8.660 -0.3874  0.3659 -1.3640
  189POPC  H15Y21846   2.468   4.838   8.626 -1.3350 -2.0996  0.6192
  189POPC  C31621847   2.631   4.754   8.496  0.6790 -0.7639  0.6979
  189POPC  H16X21848   2.578   4.664   8.458  0.3975 -1.2031  2.0932
  189POPC  H16Y21849   2.731   4.711   8.520  1.1474 -0.8457 -1.3505
  189POPC  H16Z21850   2.647   4.836   8.423 -2.3125 -1.7605 -1.1313
  190POPC     N21851   5.553   1.068  11.220 -0.2309  0.9897  0.2170
  190POPC   C1221852   5.458   1.139  11.129  0.0118  0.1377  0.0810
  190POPC  H12A21853   5.505   1.155  11.034  0.1489 -1.5080 -0.1381
  190POPC  H12B21854   5.431   1.236  11.170 -2.9792 -0.2800 -0.7882
  190POPC   C1321855   5.668   1.162  11.238  0.9125  0.1338  0.2422
  190POPC  H13A21856   5.627   1.250  11.285 -2.1646 -2.0764  1.8603
  190POPC  H13B21857   5.738   1.122  11.310 -0.4966 -3.0142 -0.0750
  190POPC  H13C21858   5.731   1.162  11.150  1.3943 -1.6478  0.5639
  190POPC   C1421859   5.500   1.042  11.358  0.4529  0.7937  0.2701
  190POPC  H14A21860   5.418   0.973  11.347  0.3498  1.2958 -2.4877
  190POPC  H14B21861   5.582   1.015  11.424  0.7373 -0.9261 -0.7384
  190POPC  H14C21862   5.454   1.132  11.395  2.2724  2.2129 -0.7832
  190POPC   C1521863   5.599   0.935  11.159  0.2934 -0.4340 -0.0694
  190POPC  H15A21864   5.661   0.960  11.074  0.4110 -1.8191 -0.4033
  190POPC  H15B21865   5.515   0.877  11.124  1.3432 -1.9983 -0.0349
  190POPC  H15C21866   5.655   0.874  11.229  1.9762  0.9111 -0.2155
  190POPC   C1121867   5.320   1.071  11.108 -0.0382 -0.1526  0.8560
  190POPC  H11A21868   5.325   0.965  11.074  1.7903  1.0797 -2.9333
  190POPC  H11B21869   5.288   1.121  11.014  0.4190  0.3217  0.9587
  190POPC     P21870   5.156   1.241  11.219  0.1262  0.0288  0.0080
  190POPC   O1321871   5.260   1.348  11.218 -0.0731 -0.1160  0.2356
  190POPC   O1421872   5.054   1.241  11.327  0.0094  0.0762  0.7276
  190POPC   O1221873   5.232   1.104  11.213  0.6972  0.4416  0.1251
  190POPC   O1121874   5.072   1.242  11.079 -0.2584 -0.6153 -0.5766
  190POPC    C121875   4.992   1.122  11.051 -0.5510  0.2680 -0.2435
  190POPC    HA21876   4.888   1.152  11.076  0.2156 -0.0344  3.7166
  190POPC    HB21877   5.015   1.040  11.122  0.0858  0.0628 -0.6928
  190POPC    C221878   5.009   1.070  10.906  0.1819 -0.5019  0.1927
  190POPC    HS21879   5.112   1.036  10.884 -0.3035 -0.4893 -2.2082
  190POPC   O2121880   4.958   1.174  10.817 -0.4263  0.1371 -0.3951
  190POPC   C2121881   5.020   1.169  10.693 -0.3768  0.0742 -0.6302
  190POPC   O2221882   5.104   1.082  10.659  0.6047 -0.3807  0.0021
  190POPC   C2221883   4.963   1.281  10.602 -0.0574  0.2926 -0.3136
  190POPC   H2R21884   4.922   1.362  10.665 -0.9252  0.7890 -1.5041
  190POPC   H2S21885   4.883   1.235  10.540 -0.5263 -1.6639  1.6796
  190POPC    C321886   4.918   0.946  10.894  0.1036 -0.1898 -0.8183
  190POPC    HX21887   4.816   0.977  10.924  0.0468 -1.1391  0.0114
  190POPC    HY21888   4.945   0.865  10.965  0.9257  1.1556  0.4322
  190POPC   O3121889   4.897   0.901  10.757  0.1991  0.1412  0.0860
  190POPC   C3121890   4.989   0.817  10.702  0.1385 -0.2100 -0.2350
  190POPC   O3221891   5.081   0.777  10.762  0.1624  0.1642 -0.2861
  190POPC   C3221892   4.955   0.785  10.550 -0.2675 -0.5045  0.7832
  190POPC   H2X21893   4.932   0.676  10.545 -0.7908 -0.4777  2.3473
  190POPC   H2Y21894   5.048   0.812  10.496 -0.8365 -0.4539 -0.1847
  190POPC   C2321895   5.074   1.338  10.510  0.6349 -0.1751 -0.1384
  190POPC   H3R21896   5.102   1.268  10.429 -1.2299 -2.8065  1.4157
  190POPC   H3S21897   5.168   1.355  10.567  2.7491 -2.3883 -2.8369
  190POPC   C2421898   5.036   1.470  10.443 -0.5091 -0.3229 -0.3583
  190POPC   H4R21899   5.108   1.468  10.358  0.1502  0.9677  0.1602
  190POPC   H4S21900   5.058   1.557  10.508 -3.0941 -0.1905  0.3894
  190POPC   C2521901   4.900   1.471  10.366  0.1814 -0.0355  0.0021
  190POPC   H5R21902   4.899   1.550  10.288 -2.7305  1.1305  1.1515
  190POPC   H5S21903   4.811   1.484  10.431  2.0008  4.9907  1.7782
  190POPC   C2621904   4.874   1.351  10.269 -0.6430 -0.4792  0.2893
  190POPC   H6R21905   4.764   1.359  10.254 -0.2044  0.2422 -3.0144
  190POPC   H6S21906   4.903   1.255  10.316  0.4348 -0.6766 -0.7552
  190POPC   C2721907   4.955   1.364  10.138 -0.2787  0.2713  0.1724
  190POPC   H7R21908   5.062   1.362  10.169 -0.1148 -1.1819 -0.4430
  190POPC   H7S21909   4.931   1.460  10.088  1.2674  0.6611  0.1415
  190POPC   C2821910   4.929   1.243  10.043 -0.1162  0.5134  0.2491
  190POPC   H8R21911   4.981   1.161  10.096 -0.2169  1.6539  2.1794
  190POPC   H8S21912   4.991   1.259   9.953 -0.1911 -2.4011 -0.3657
  190POPC   C2921913   4.784   1.202  10.018  1.1396 -0.0666 -0.7860
  190POPC   H9121914   4.724   1.183  10.109  1.4305 -0.3250 -0.6517
  190POPC  C21021915   4.717   1.186   9.902  0.0595  0.0682  0.4044
  190POPC  H10121916   4.611   1.157   9.902 -0.8155  3.0317  1.5856
  190POPC  C21121917   4.781   1.201   9.766 -0.4817  0.6824  0.6280
  190POPC  H11R21918   4.711   1.156   9.692 -0.9202  1.4349  0.5830
  190POPC  H11S21919   4.882   1.155   9.752 -1.1459 -0.4183 -0.7448
  190POPC  C21221920   4.800   1.345   9.719 -0.1605  0.2104  0.0060
  190POPC  H12R21921   4.878   1.399   9.776  0.5492 -0.8796  0.0946
  190POPC  H12S21922   4.710   1.409   9.731 -0.3748 -0.3666  1.6064
  190POPC  C21321923   4.849   1.352   9.573 -0.3941  0.2348  0.6714
  190POPC  H13R21924   4.939   1.288   9.559 -0.5106  0.2397 -0.1466
  190POPC  H13S21925   4.871   1.460   9.558 -2.4770  1.0065  2.7677
  190POPC  C21421926   4.746   1.310   9.459  0.2686  0.1974 -0.3181
  190POPC  H14R21927   4.648   1.362   9.471  0.7278  0.9409  0.2712
  190POPC  H14S21928   4.736   1.200   9.473 -0.6989  0.2120 -0.8713
  190POPC  C21521929   4.809   1.316   9.325  0.1459  0.2830 -0.3992
  190POPC  H15R21930   4.888   1.238   9.314 -1.2034 -1.1258 -0.3326
  190POPC  H15S21931   4.859   1.414   9.308  1.9014 -0.8408 -1.8446
  190POPC  C21621932   4.715   1.299   9.203 -1.1012 -0.2633 -0.1004
  190POPC  H16R21933   4.637   1.378   9.211  0.0514  0.9476 -0.4940
  190POPC  H16S21934   4.664   1.201   9.202 -0.4708 -0.5972  0.0507
  190POPC  C21721935   4.783   1.300   9.064 -0.5311 -0.6254 -0.2268
  190POPC  H17R21936   4.843   1.209   9.044  0.8590  0.2425 -0.0369
  190POPC  H17S21937   4.841   1.392   9.044  1.9402 -2.0390  0.3345
  190POPC  C21821938   4.678   1.304   8.954  0.6002  0.2664 -0.2842
  190POPC  H18R21939   4.622   1.209   8.963 -0.1889  0.7585  0.1264
  190POPC  H18S21940   4.727   1.315   8.855  0.9705 -1.5748 -0.3224
  190POPC  H18T21941   4.611   1.392   8.964  0.8259  0.3539  0.5185
  190POPC   C3321942   4.841   0.874  10.490 -0.4633  0.5585 -0.2317
  190POPC   H3X21943   4.855   0.984  10.500 -3.5054  1.1137 -1.4496
  190POPC   H3Y21944   4.752   0.842  10.549  1.1308 -0.2770  1.8015
  190POPC   C3421945   4.802   0.864  10.344 -0.5120 -0.8205  0.4872
  190POPC   H4X21946   4.896   0.881  10.287 -0.6922 -0.0024  0.4284
  190POPC   H4Y21947   4.742   0.955  10.320 -0.5138 -1.0466 -0.3615
  190POPC   C3521948   4.741   0.733  10.308  0.2247  0.4173  0.7912
  190POPC   H5X21949   4.667   0.708  10.387 -1.2133  2.0768  0.0275
  190POPC   H5Y21950   4.823   0.659  10.302  0.9833  1.3653 -1.4027
  190POPC   C3621951   4.668   0.719  10.172  0.2873  0.0281 -0.2585
  190POPC   H6X21952   4.576   0.782  10.170 -1.3908 -2.3696 -2.5900
  190POPC   H6Y21953   4.637   0.616  10.145 -1.2725 -0.0737  1.7824
  190POPC   C3721954   4.752   0.778  10.058 -0.9686  0.1004  0.4827
  190POPC   H7X21955   4.858   0.751  10.074 -1.9862 -3.1077  2.4522
  190POPC   H7Y21956   4.740   0.888  10.067 -0.7102  0.2304 -0.6752
  190POPC   C3821957   4.699   0.730   9.918 -0.7090 -0.4442 -0.7553
  190POPC   H8X21958   4.590   0.751   9.912 -0.5773  0.9326  1.1242
  190POPC   H8Y21959   4.702   0.619   9.909  0.1452 -0.3396 -1.9170
  190POPC   C3921960   4.762   0.799   9.795 -0.4423 -0.7261 -0.0878
  190POPC   H9X21961   4.871   0.783   9.780 -0.3389 -0.4697  0.3968
  190POPC   H9Y21962   4.750   0.908   9.811  4.8230  0.4796 -3.2210
  190POPC  C31021963   4.693   0.766   9.656  0.4955  0.4322 -0.2354
  190POPC  H10X21964   4.585   0.782   9.676  0.3325 -0.7276 -0.1781
  190POPC  H10Y21965   4.704   0.657   9.642 -0.9439  0.6374 -3.3134
  190POPC  C31121966   4.743   0.845   9.537  0.7160  0.4178  0.1059
  190POPC  H11X21967   4.852   0.845   9.515  0.8971 -0.4847  0.9417
  190POPC  H11Y21968   4.718   0.950   9.560 -1.1965 -0.4733  2.3735
  190POPC  C31221969   4.678   0.808   9.405  0.5631  0.3172  0.4572
  190POPC  H12X21970   4.569   0.826   9.413  0.5253  1.3141 -1.8227
  190POPC  H12Y21971   4.693   0.700   9.383 -0.9578  0.0595  0.6435
  190POPC  C31321972   4.723   0.887   9.283  0.1932 -0.7487  0.5615
  190POPC  H13X21973   4.833   0.882   9.272  0.2162 -0.2535  0.5818
  190POPC  H13Y21974   4.700   0.991   9.314  0.8339  0.1271 -1.8581
  190POPC  C31421975   4.649   0.849   9.152 -0.1492  0.3041  0.2949
  190POPC  H14X21976   4.543   0.877   9.167 -0.3729 -0.8567  0.8894
  190POPC  H14Y21977   4.654   0.739   9.136 -0.2621  0.2787  0.4458
  190POPC  C31521978   4.720   0.914   9.032  0.8254  0.0158  0.0693
  190POPC  H15X21979   4.830   0.923   9.041  0.8637  0.9557 -1.1385
  190POPC  H15Y21980   4.694   1.022   9.044 -0.9124 -0.1763 -1.7048
  190POPC  C31621981   4.671   0.861   8.900 -0.4721 -0.1689 -0.5917
  190POPC  H16X21982   4.573   0.905   8.873  0.9438  2.4918 -1.5428
  190POPC  H16Y21983   4.675   0.750   8.892  4.8980 -0.1006 -0.2170
  190POPC  H16Z21984   4.740   0.884   8.816 -2.3382  0.3692 -2.0087
  191POPC     N21985   4.905   2.117   6.406  0.1932 -0.4520  0.3514
  191POPC   C1221986   4.791   2.046   6.483 -0.5577  0.2975 -0.3572
  191POPC  H12A21987   4.745   2.110   6.557  0.9494 -1.7982  2.4983
  191POPC  H12B21988   4.836   1.959   6.528 -0.9882  0.1480 -0.2111
  191POPC   C1321989   4.988   2.027   6.321  0.3946  0.6077  0.3929
  191POPC  H13A21990   5.015   1.932   6.366 -0.2653 -0.2568 -1.0123
  191POPC  H13B21991   4.934   2.019   6.228  1.2212  1.0838 -0.1398
  191POPC  H13C21992   5.084   2.071   6.298  1.1045 -0.1623  1.7796
  191POPC   C1421993   4.873   2.241   6.333 -0.1215 -0.1475  0.7796
  191POPC  H14A21994   4.845   2.329   6.389 -0.6341  0.4298 -0.3839
  191POPC  H14B21995   4.963   2.278   6.286 -1.1117  0.8468 -0.3790
  191POPC  H14C21996   4.792   2.235   6.262  0.0212 -0.3412  0.6336
  191POPC   C1521997   5.011   2.166   6.507 -0.0451 -0.2772 -0.3759
  191POPC  H15A21998   5.070   2.082   6.538  1.0583 -0.5848 -3.1055
  191POPC  H15B21999   4.964   2.214   6.591  0.3284 -0.3742 -0.1094
  191POPC  H15C22000   5.083   2.236   6.465 -0.0727 -0.8188 -1.3530
  191POPC   C1122001   4.666   2.006   6.396 -0.1055  0.5746  0.5869
  191POPC  H11A22002   4.611   1.939   6.464 -0.3745  2.0724  1.8902
  191POPC  H11B22003   4.698   1.946   6.308 -2.4947 -0.1649  0.1909
  191POPC     P22004   4.493   2.202   6.422  0.0100  0.3273 -0.1412
  191POPC   O1322005   4.357   2.156   6.377 -0.3394  0.1296 -0.3655
  191POPC   O1422006   4.525   2.341   6.388  0.3647 -0.1181 -0.0980
  191POPC   O1222007   4.601   2.115   6.348  0.1844 -0.4989 -0.6804
  191POPC   O1122008   4.506   2.175   6.581 -0.2067 -0.4062  0.0705
  191POPC    C122009   4.410   2.099   6.658 -0.2324  0.3002  0.4225
  191POPC    HA22010   4.405   1.990   6.634 -2.4516 -0.1830  2.8045
  191POPC    HB22011   4.309   2.140   6.636 -0.4547 -1.0231 -1.1498
  191POPC    C222012   4.445   2.106   6.807 -0.5914 -0.2730  0.4178
  191POPC    HS22013   4.357   2.080   6.870  0.0928 -0.2866  1.3750
  191POPC   O2122014   4.478   2.241   6.838 -0.4253 -0.0693 -0.3740
  191POPC   C2122015   4.386   2.327   6.833  0.4760 -0.1041 -0.1497
  191POPC   O2222016   4.268   2.304   6.814  0.3234 -0.3318  0.2841
  191POPC   C2222017   4.453   2.462   6.864 -0.6266  0.2052  0.1478
  191POPC   H2R22018   4.386   2.543   6.827 -0.3712  0.3998  0.1130
  191POPC   H2S22019   4.553   2.466   6.817  0.9841  0.8909  3.4724
  191POPC    C322020   4.558   2.001   6.849 -0.1758 -0.1881 -0.6232
  191POPC    HX22021   4.649   2.026   6.790  0.7319 -0.3112  0.6979
  191POPC    HY22022   4.521   1.903   6.811 -2.6830  0.2110  0.7092
  191POPC   O3122023   4.596   1.992   6.986 -0.2960 -0.8476 -0.0465
  191POPC   C3122024   4.682   2.079   7.038 -0.0111  0.3403  0.1231
  191POPC   O3222025   4.749   2.156   6.971 -0.6995  0.3841 -0.1731
  191POPC   C3222026   4.696   2.061   7.187 -0.3662 -0.1534 -0.0920
  191POPC   H2X22027   4.786   1.997   7.192  1.6554  2.3622 -2.6708
  191POPC   H2Y22028   4.620   1.989   7.226  0.0033  0.0671  1.0479
  191POPC   C2322029   4.476   2.483   7.021  0.2182 -0.5244 -0.0568
  191POPC   H3R22030   4.536   2.576   7.032  0.6442 -0.5624 -1.8874
  191POPC   H3S22031   4.540   2.402   7.063 -2.6134 -1.9171  1.7340
  191POPC   C2422032   4.349   2.494   7.106 -0.2634  0.5281 -0.4723
  191POPC   H4R22033   4.291   2.399   7.102 -1.0536  1.0662 -2.3451
  191POPC   H4S22034   4.284   2.569   7.056 -0.7397  0.1984 -0.3513
  191POPC   C2522035   4.378   2.502   7.256 -1.5074 -0.6211 -0.1987
  191POPC   H5R22036   4.427   2.413   7.301 -0.4927  0.6215  1.2533
  191POPC   H5S22037   4.282   2.518   7.309  0.3150  1.4275  2.6749
  191POPC   C2622038   4.470   2.622   7.279  0.1442  0.7927 -0.5834
  191POPC   H6R22039   4.410   2.714   7.264  0.1691  1.2641  1.9194
  191POPC   H6S22040   4.565   2.625   7.222  0.5089  0.2953 -0.0187
  191POPC   C2722041   4.516   2.645   7.425  0.5384  0.0702 -0.3403
  191POPC   H7R22042   4.431   2.651   7.496 -1.3285 -3.3005 -2.1656
  191POPC   H7S22043   4.562   2.746   7.420 -1.4755  0.9921 -0.6330
  191POPC   C2822044   4.611   2.539   7.469  0.2799 -0.1890 -0.0471
  191POPC   H8R22045   4.594   2.438   7.426  3.2743 -0.7832  0.0333
  191POPC   H8S22046   4.607   2.523   7.579 -1.6678  1.5395  0.1634
  191POPC   C2922047   4.756   2.580   7.446  0.8965 -0.2864  0.2851
  191POPC   H9122048   4.787   2.620   7.348  2.3944 -0.1516  0.8034
  191POPC  C21022049   4.863   2.555   7.526  0.4914 -0.4340  0.3096
  191POPC  H10122050   4.966   2.590   7.510  0.1593  1.7010  2.4812
  191POPC  C21122051   4.866   2.489   7.657 -0.1697  0.0700 -0.3094
  191POPC  H11R22052   4.961   2.432   7.670 -0.5277 -0.7248 -1.0897
  191POPC  H11S22053   4.788   2.410   7.665 -1.9378  1.9184  1.0743
  191POPC  C21222054   4.850   2.590   7.777  0.1076  0.1624  0.8266
  191POPC  H12R22055   4.760   2.653   7.765 -2.2293 -3.1474  0.4050
  191POPC  H12S22056   4.936   2.660   7.772 -0.6266  1.0704  0.7231
  191POPC  C21322057   4.857   2.511   7.907 -0.6334 -0.1717 -0.2113
  191POPC  H13R22058   4.957   2.464   7.900 -1.5145 -2.2375  0.4756
  191POPC  H13S22059   4.784   2.427   7.900 -1.0926 -0.1491  3.4239
  191POPC  C21422060   4.846   2.580   8.042  0.2336  0.2287  0.5822
  191POPC  H14R22061   4.758   2.647   8.046 -0.3645 -0.4688 -0.5668
  191POPC  H14S22062   4.938   2.637   8.065  0.8239 -0.7199  0.5878
  191POPC  C21522063   4.819   2.472   8.145 -0.6784  0.2389 -1.0979
  191POPC  H15R22064   4.908   2.406   8.150  0.8359  2.1431 -1.9186
  191POPC  H15S22065   4.730   2.413   8.117 -1.1701  2.0779 -3.6432
  191POPC  C21622066   4.790   2.540   8.278 -0.0704  0.3014 -0.1351
  191POPC  H16R22067   4.683   2.562   8.292 -0.2713  0.1480 -1.3770
  191POPC  H16S22068   4.852   2.631   8.268  0.4734  0.0397  0.7804
  191POPC  C21722069   4.825   2.469   8.404 -0.4576 -0.1062 -0.9217
  191POPC  H17R22070   4.830   2.541   8.489 -0.4010 -0.2796 -0.7787
  191POPC  H17S22071   4.923   2.418   8.395 -0.6703 -1.1024  1.9456
  191POPC  C21822072   4.732   2.350   8.440  0.7083  0.7877 -0.2128
  191POPC  H18R22073   4.767   2.296   8.530  0.2013  1.4672  0.3993
  191POPC  H18S22074   4.723   2.291   8.347  0.5739 -0.5175  0.6276
  191POPC  H18T22075   4.631   2.389   8.466  0.4642  1.0113 -1.4383
  191POPC   C3322076   4.697   2.194   7.270  0.3962 -0.9131 -0.2486
  191POPC   H3X22077   4.598   2.244   7.256  1.2384  0.9415  0.2665
  191POPC   H3Y22078   4.774   2.270   7.247  0.4007  0.4186  3.7846
  191POPC   C3422079   4.706   2.166   7.422 -0.0327 -1.2327 -0.4137
  191POPC   H4X22080   4.628   2.092   7.450 -1.4588  0.4035  0.0982
  191POPC   H4Y22081   4.693   2.257   7.485  0.0254 -0.5598 -1.3612
  191POPC   C3522082   4.842   2.116   7.468 -0.1815  0.5172 -0.3025
  191POPC   H5X22083   4.893   2.203   7.513  0.3005 -1.3932  3.0367
  191POPC   H5Y22084   4.899   2.083   7.378 -0.1899 -0.8978  0.1934
  191POPC   C3622085   4.832   1.986   7.558  0.1510  0.2297 -0.6596
  191POPC   H6X22086   4.932   1.937   7.570 -0.2804 -0.3942  0.4942
  191POPC   H6Y22087   4.768   1.913   7.504 -0.4511  0.3104 -0.0648
  191POPC   C3722088   4.764   2.008   7.690  0.2526 -0.0689  0.0118
  191POPC   H7X22089   4.702   1.919   7.714 -0.3653 -0.1820 -1.9129
  191POPC   H7Y22090   4.699   2.098   7.696  1.5158  0.7971  0.9904
  191POPC   C3822091   4.870   2.025   7.804 -0.9144 -0.2892  0.3465
  191POPC   H8X22092   4.938   2.102   7.761 -1.3664 -0.2263 -0.2820
  191POPC   H8Y22093   4.919   1.929   7.830 -0.8030 -0.9391 -2.1111
  191POPC   C3922094   4.806   2.082   7.932 -0.8843  0.8213 -0.3412
  191POPC   H9X22095   4.711   2.026   7.947 -0.1313  0.1673  2.1096
  191POPC   H9Y22096   4.761   2.182   7.913 -0.0586  0.9652 -1.5660
  191POPC  C31022097   4.894   2.094   8.061 -0.0012  0.0958  0.2172
  191POPC  H10X22098   4.833   2.161   8.126  0.1919  1.9572 -1.4778
  191POPC  H10Y22099   4.990   2.143   8.034  0.3453 -0.9004 -0.4051
  191POPC  C31122100   4.934   1.966   8.127  0.2723 -0.2684 -0.8348
  191POPC  H11X22101   5.010   1.919   8.062  0.0011  0.7473 -1.8946
  191POPC  H11Y22102   4.852   1.892   8.116 -0.3120  0.3702 -0.8260
  191POPC  C31222103   4.959   1.970   8.282 -0.4047 -0.6011 -0.1241
  191POPC  H12X22104   4.921   1.884   8.342 -0.7372 -0.4943 -0.1824
  191POPC  H12Y22105   4.907   2.051   8.337 -2.4383 -3.6199  2.5957
  191POPC  C31322106   5.110   1.992   8.303 -0.5794  0.3094  0.7273
  191POPC  H13X22107   5.153   2.064   8.231  0.1000 -0.7203  0.1028
  191POPC  H13Y22108   5.159   1.893   8.297  0.0264  0.7141 -1.2853
  191POPC  C31422109   5.130   2.060   8.437  0.5501  0.3285 -0.0887
  191POPC  H14X22110   5.104   1.991   8.520 -3.2764  0.3817 -1.1369
  191POPC  H14Y22111   5.060   2.146   8.452 -0.2971 -0.6249  1.6049
  191POPC  C31522112   5.267   2.113   8.454  0.7753  0.3108 -0.4231
  191POPC  H15X22113   5.276   2.163   8.553 -0.1345  0.5435 -0.4503
  191POPC  H15Y22114   5.302   2.189   8.380  2.0875 -1.3991 -1.6026
  191POPC  C31622115   5.376   1.999   8.467  0.1024 -0.0533 -0.3446
  191POPC  H16X22116   5.384   1.943   8.371 -0.3518 -1.5060  0.4588
  191POPC  H16Y22117   5.351   1.938   8.556  0.0928  0.6532  0.1406
  191POPC  H16Z22118   5.473   2.052   8.473  0.4616 -0.3592 -2.7821
  192POPC     N22119   4.245   4.377   6.231  0.0970 -0.0402 -0.7010
  192POPC   C1222120   4.129   4.328   6.323  0.6787 -0.1345  0.1327
  192POPC  H12A22121   4.167   4.356   6.420  1.5537  1.2025 -0.5785
  192POPC  H12B22122   4.127   4.220   6.317  0.4556 -0.0969 -0.5160
  192POPC   C1322123   4.247   4.523   6.217  0.1883  0.0495  0.2469
  192POPC  H13A22124   4.156   4.559   6.173 -1.0681 -2.1556  0.9743
  192POPC  H13B22125   4.252   4.570   6.315 -1.3561  2.9417 -0.9905
  192POPC  H13C22126   4.331   4.558   6.159  0.0060 -0.7385 -0.5107
  192POPC   C1422127   4.366   4.327   6.302  0.9477  0.4566  0.0182
  192POPC  H14A22128   4.357   4.221   6.316 -1.9264  0.5107 -1.1530
  192POPC  H14B22129   4.454   4.359   6.248  0.3653  1.7620 -0.1797
  192POPC  H14C22130   4.374   4.368   6.401 -2.9630 -0.0636  0.6063
  192POPC   C1522131   4.230   4.304   6.101  1.0571  0.3496  0.5785
  192POPC  H15A22132   4.145   4.340   6.045  1.5454  1.1707  0.3605
  192POPC  H15B22133   4.204   4.199   6.103 -0.4256  0.6769 -1.0256
  192POPC  H15C22134   4.311   4.325   6.032  0.5203  0.7037  0.0580
  192POPC   C1122135   3.994   4.400   6.315  0.4886  0.7668  0.3804
  192POPC  H11A22136   3.998   4.511   6.317 -0.1059  0.8642 -1.9626
  192POPC  H11B22137   3.938   4.372   6.407  1.8450  1.1206  1.3223
  192POPC     P22138   3.812   4.251   6.208  0.1402  0.2785  0.1657
  192POPC   O1322139   3.838   4.123   6.272  0.1681 -0.2782 -0.4946
  192POPC   O1422140   3.740   4.254   6.077 -0.5274  0.4408  0.4528
  192POPC   O1222141   3.934   4.348   6.199 -0.4495  0.2116 -0.0808
  192POPC   O1122142   3.715   4.322   6.307  0.2678 -0.4144  0.2342
  192POPC    C122143   3.665   4.453   6.291  0.0602  0.2141 -0.3673
  192POPC    HA22144   3.606   4.453   6.197  0.0817 -1.1630 -0.3992
  192POPC    HB22145   3.759   4.511   6.286  1.7234 -1.8192  4.6695
  192POPC    C222146   3.575   4.501   6.405 -0.9996 -0.1711 -0.7051
  192POPC    HS22147   3.552   4.610   6.405  1.5098  0.3780 -0.9320
  192POPC   O2122148   3.625   4.463   6.536  0.0256 -0.4793 -0.6166
  192POPC   C2122149   3.735   4.534   6.567 -0.5931  0.1386  0.2426
  192POPC   O2222150   3.781   4.629   6.508  0.7571 -0.1297  0.4780
  192POPC   C2222151   3.808   4.460   6.678 -0.6512  0.1258 -0.3076
  192POPC   H2R22152   3.860   4.368   6.642  0.8246  0.3005  1.3018
  192POPC   H2S22153   3.725   4.432   6.746 -0.2176  0.9776  0.5777
  192POPC    C322154   3.436   4.442   6.380  0.1625  0.1946 -0.2151
  192POPC    HX22155   3.448   4.336   6.350 -1.7314 -0.5410  1.5192
  192POPC    HY22156   3.405   4.510   6.298  0.6493  1.3462  0.5545
  192POPC   O3122157   3.352   4.462   6.491 -0.5186  0.2547 -0.2456
  192POPC   C3122158   3.368   4.369   6.590  0.2214 -0.4808  0.0931
  192POPC   O3222159   3.406   4.255   6.574  0.4828  0.2571  0.2608
  192POPC   C3222160   3.324   4.420   6.724  0.0113 -0.2877 -0.2955
  192POPC   H2X22161   3.215   4.400   6.728 -0.3301  1.2948 -1.1800
  192POPC   H2Y22162   3.342   4.530   6.727  2.8697 -0.7067  0.1836
  192POPC   C2322163   3.905   4.544   6.753 -0.1421 -0.5464  0.8468
  192POPC   H3R22164   3.930   4.629   6.685 -0.3193  0.5444  2.1287
  192POPC   H3S22165   3.998   4.490   6.780 -0.3249 -0.1531  2.2872
  192POPC   C2422166   3.861   4.599   6.886  0.4074  0.7404  0.0649
  192POPC   H4R22167   3.761   4.648   6.889 -0.7084 -1.5703  1.5945
  192POPC   H4S22168   3.941   4.675   6.902  0.5373  0.8550 -1.0617
  192POPC   C2522169   3.870   4.502   7.007 -0.5502 -0.2526  0.5116
  192POPC   H5R22170   3.972   4.459   7.009 -0.3392  0.1521 -1.2234
  192POPC   H5S22171   3.801   4.415   6.995 -2.0050  0.6110  2.2980
  192POPC   C2622172   3.851   4.572   7.143  0.3862  0.4987 -0.6530
  192POPC   H6R22173   3.754   4.625   7.153  0.0060 -0.5498  1.5173
  192POPC   H6S22174   3.933   4.646   7.147  0.6786  0.0962  1.3456
  192POPC   C2722175   3.878   4.471   7.262 -1.0016  0.5314  0.2525
  192POPC   H7R22176   3.986   4.443   7.255 -1.1345  0.1256 -0.2232
  192POPC   H7S22177   3.818   4.378   7.251  1.0997 -0.9076  0.5851
  192POPC   C2822178   3.837   4.532   7.396 -0.8292  0.0972 -0.5545
  192POPC   H8R22179   3.831   4.450   7.471 -2.9138 -0.6971 -1.5535
  192POPC   H8S22180   3.741   4.588   7.390 -0.2211  1.2164 -0.0990
  192POPC   C2922181   3.930   4.645   7.437 -0.0241 -0.3859  0.2588
  192POPC   H9122182   3.908   4.737   7.380  0.2126  0.4247  1.4784
  192POPC  C21022183   4.048   4.628   7.498 -0.1039  0.4014  0.4258
  192POPC  H10122184   4.114   4.714   7.515  0.1867  0.7225 -2.1086
  192POPC  C21122185   4.097   4.489   7.549  0.5451  0.0751  0.1693
  192POPC  H11R22186   4.201   4.458   7.524  0.2377 -2.6301  2.0498
  192POPC  H11S22187   4.036   4.407   7.505  1.0636 -0.1984 -0.0551
  192POPC  C21222188   4.081   4.476   7.709 -0.0925  0.4815 -0.2402
  192POPC  H12R22189   4.098   4.370   7.735 -0.9000  0.2567 -0.6068
  192POPC  H12S22190   3.983   4.514   7.747  0.7351  2.5468 -0.1097
  192POPC  C21322191   4.186   4.556   7.787 -0.1068  0.0867 -0.0351
  192POPC  H13R22192   4.165   4.665   7.784  2.0607  0.5455  0.4144
  192POPC  H13S22193   4.288   4.538   7.746 -1.0026 -1.8254 -1.5118
  192POPC  C21422194   4.188   4.518   7.938  0.1235 -0.4193 -0.1881
  192POPC  H14R22195   4.198   4.407   7.943  0.7088 -0.3913 -0.6673
  192POPC  H14S22196   4.089   4.539   7.984  0.1097 -2.0303  0.5817
  192POPC  C21522197   4.305   4.589   8.013  0.0511 -0.4184  0.6353
  192POPC  H15R22198   4.310   4.699   8.002 -1.6047 -0.5103 -1.1162
  192POPC  H15S22199   4.398   4.544   7.971  0.9383  0.9472  1.1046
  192POPC  C21622200   4.308   4.548   8.163  0.1841  0.0453 -0.8960
  192POPC  H16R22201   4.320   4.438   8.174  1.4936  0.4209  1.6492
  192POPC  H16S22202   4.209   4.566   8.209  0.8121 -3.1900  1.8974
  192POPC  C21722203   4.421   4.618   8.238  0.1192  0.0376 -0.0171
  192POPC  H17R22204   4.391   4.721   8.267 -2.0249 -0.7387  0.5972
  192POPC  H17S22205   4.498   4.630   8.158  0.4139 -2.8944 -0.2106
  192POPC  C21822206   4.481   4.534   8.354 -0.2796  0.3869  0.0390
  192POPC  H18R22207   4.404   4.517   8.433 -0.7163 -1.2413 -0.7090
  192POPC  H18S22208   4.566   4.584   8.404  2.2827 -1.9601 -1.8603
  192POPC  H18T22209   4.521   4.437   8.318 -1.2896  0.6709 -1.9101
  192POPC   C3322210   3.405   4.370   6.834 -0.3250  0.6416 -0.1077
  192POPC   H3X22211   3.511   4.401   6.821 -0.3469  1.2299  1.0142
  192POPC   H3Y22212   3.394   4.260   6.845 -0.7566  0.6466 -0.4540
  192POPC   C3422213   3.357   4.420   6.971 -1.4542  0.1676  0.4764
  192POPC   H4X22214   3.255   4.377   6.985 -0.9409 -1.2385  0.0282
  192POPC   H4Y22215   3.350   4.530   6.978  0.1915  0.1881  2.0903
  192POPC   C3522216   3.449   4.359   7.080  0.2039  0.0414  0.4896
  192POPC   H5X22217   3.554   4.388   7.055 -0.8120  2.4121 -1.1758
  192POPC   H5Y22218   3.445   4.249   7.068  0.8356  0.2648 -2.1441
  192POPC   C3622219   3.399   4.393   7.214 -0.0035  0.6392 -0.2273
  192POPC   H6X22220   3.327   4.313   7.242  0.0062  1.4794  2.3906
  192POPC   H6Y22221   3.349   4.492   7.227 -1.9942 -0.2801 -0.7665
  192POPC   C3722222   3.516   4.402   7.314 -0.2229  0.4700 -0.0509
  192POPC   H7X22223   3.583   4.490   7.303  2.3197 -1.6384 -2.1169
  192POPC   H7Y22224   3.582   4.313   7.311 -0.1696  0.4615  1.2204
  192POPC   C3822225   3.459   4.394   7.458 -0.3606  0.0280 -0.7109
  192POPC   H8X22226   3.382   4.313   7.454 -0.0492 -0.2080 -2.1608
  192POPC   H8Y22227   3.410   4.488   7.491 -0.0594  0.3109 -1.0784
  192POPC   C3922228   3.565   4.376   7.564 -0.0534  0.1281 -0.1246
  192POPC   H9X22229   3.612   4.475   7.579 -0.4057  0.4158 -0.8679
  192POPC   H9Y22230   3.642   4.308   7.521  0.7166  1.8605 -1.5455
  192POPC  C31022231   3.523   4.329   7.705  0.3438  0.4161 -0.3396
  192POPC  H10X22232   3.481   4.228   7.685  1.6962 -0.4452  1.0464
  192POPC  H10Y22233   3.433   4.382   7.741 -0.0605 -1.9845  2.3479
  192POPC  C31122234   3.630   4.321   7.806 -1.2516 -0.0664 -0.3767
  192POPC  H11X22235   3.661   4.424   7.834 -1.4804  0.1787 -1.0226
  192POPC  H11Y22236   3.725   4.286   7.760  0.0092  1.5588  0.9472
  192POPC  C31222237   3.586   4.259   7.938 -0.7685 -0.3949  0.3070
  192POPC  H12X22238   3.564   4.151   7.922 -0.2845 -0.7701  2.0647
  192POPC  H12Y22239   3.491   4.308   7.971 -0.0804  0.0923  1.6301
  192POPC  C31322240   3.699   4.256   8.041  0.2710 -0.0821 -0.1661
  192POPC  H13X22241   3.726   4.357   8.079 -2.7803  0.7863 -0.1536
  192POPC  H13Y22242   3.788   4.213   7.991 -0.0864 -0.2661 -0.6483
  192POPC  C31422243   3.673   4.169   8.161 -0.2482  0.3744 -0.8183
  192POPC  H14X22244   3.608   4.082   8.143  2.4613 -1.8218 -0.3131
  192POPC  H14Y22245   3.635   4.237   8.240  0.2933  0.6694 -0.8089
  192POPC  C31522246   3.798   4.107   8.215  0.2798  0.0912  0.0197
  192POPC  H15X22247   3.834   4.034   8.140 -1.4611 -0.9300  0.1621
  192POPC  H15Y22248   3.770   4.053   8.308  2.2725 -0.4936  0.2950
  192POPC  C31622249   3.912   4.199   8.259 -0.3070  0.0170  0.0992
  192POPC  H16X22250   3.999   4.138   8.291 -0.6431  0.2729  1.5137
  192POPC  H16Y22251   3.876   4.273   8.333 -0.5010 -1.7506  1.8091
  192POPC  H16Z22252   3.946   4.259   8.172  0.0153  1.0580  0.9376
  193SOD    SOD22253   2.785   5.535  13.906  0.0850 -0.6682 -0.0347
  194SOD    SOD22254   2.447   5.843   1.380  0.0260 -0.5100  0.6526
  195SOD    SOD22255   3.154   3.761   4.766  0.0119  0.3505 -0.3445
  196SOD    SOD22256   5.682   5.602  15.150  0.0290  0.4465  0.0302
  197SOD    SOD22257   1.958   0.138  13.432 -0.3540  0.3774  0.0247
  198SOD    SOD22258   1.721   1.336  10.940 -0.5848 -0.0425  0.1328
  199SOD    SOD22259   4.214   5.236   3.849 -0.2473 -0.4560 -0.2368
  200SOD    SOD22260   2.490   3.120  11.796  0.2115  0.3618 -0.0052
  201SOD    SOD22261   4.862   1.856   3.488 -0.0107  0.3929  0.2834
  202SOD    SOD22262   6.579   3.582   3.716 -0.0833 -0.0148  0.1949
  203SOD    SOD22263   1.394   5.018  14.546 -0.3025 -0.1358 -0.2799
  204SOD    SOD22264   1.053   6.378  13.314  0.1979 -0.0987 -0.0304
  205SOD    SOD22265   2.585   5.379   5.690 -0.2894  0.5777 -0.0005
  206SOD    SOD22266   4.167   4.495  17.127 -0.0003  0.0165  0.2027
  207SOD    SOD22267   6.776   4.114   2.426  0.4684 -0.1820  0.1157
  208SOD    SOD22268   0.332   2.563  12.401 -0.3515 -0.2300  0.0671
  209SOD    SOD22269   6.512   1.632  12.123 -0.6077 -0.4123 -0.0310
  210SOD    SOD22270   0.252   4.819  13.446  0.6518 -0.5226  0.0049
  211SOD    SOD22271   5.227   3.161   0.298 -0.3806 -0.0334 -0.4895
  212SOD    SOD22272   6.541   3.723  14.155 -0.0179  0.2762 -0.1534
  213SOD    SOD22273   2.473   1.938   2.153 -0.1542 -0.1102 -0.4896
  214SOD    SOD22274   5.369   4.061   5.251 -0.0389  0.0752  0.2883
  215SOD    SOD22275   4.062   0.767  11.436 -0.3412  0.1238  0.3430
  216SOD    SOD22276   1.907   0.850   3.855 -0.0537 -0.2208  0.1118
  217SOD    SOD22277   0.951   5.509   5.772  0.0136 -0.2269  0.7695
  218SOD    SOD22278   2.400   1.232   2.328 -0.0907 -0.0983 -0.2883
  219SOD    SOD22279   3.543   6.021  16.819 -0.7172  0.3086  0.1680
  220SOD    SOD22280   0.739   3.671   1.854  0.6990  0.1505  0.0125
  221SOD    SOD22281   6.123   0.309  15.267 -0.2808 -0.8224  0.6486
  222SOD    SOD22282   5.996   2.517   2.873 -0.3580 -0.3009  0.3426
  223SOD    SOD22283   4.545   5.505  13.546  0.4701 -0.2118 -0.0923
  224SOD    SOD22284   3.971   4.784   1.799 -0.0849 -0.2697  0.4367
  225SOD    SOD22285   4.666   4.382  14.322 -0.1812 -0.4458 -0.2708
  226SOD    SOD22286   2.444   1.369   6.192  0.4679 -0.8558 -0.0059
  227SOD    SOD22287   6.495   4.344   3.355 -0.3055  0.7030 -0.3013
  228SOD    SOD22288   0.981   0.207  12.375 -0.0241 -0.0030  0.1135
  229SOD    SOD22289   4.009   0.577   0.114 -0.3246  0.0623  0.0354
  230SOD    SOD22290   0.971   1.806  12.135 -0.2574  0.9648  0.4695
  231SOD    SOD22291   4.978   6.490  11.900  0.1856 -0.6368  0.2601
  232SOD    SOD22292   4.373   5.508   5.482  0.0250 -0.2450 -0.4518
  233SOD    SOD22293   4.058   1.274  11.060 -0.0616 -0.1984  0.0182
  234SOD    SOD22294   5.791   2.134   6.555 -0.3112  0.4127  0.5870
  235SOD    SOD22295   4.028   5.298  15.927  0.1198  0.1881  0.2964
  236SOD    SOD22296   3.162   6.244   5.343  0.0872  0.3471 -0.1087
  237SOD    SOD22297   1.305   2.559   6.152  0.0285 -0.0378 -0.5702
  238SOD    SOD22298   3.810   4.380  13.221 -0.4009  0.0968 -0.4708
  239SOD    SOD22299   4.373   2.134  14.796  0.1591 -0.2432 -0.3441
  240SOD    SOD22300   1.799   4.166  13.532 -0.0542 -0.3356  0.2640
  241SOD    SOD22301   3.774   4.248  12.643 -0.5856  0.0953 -0.0916
  242SOD    SOD22302   5.578   0.681   5.183 -0.2022  0.1571 -0.2113
  243SOD    SOD22303   6.030   4.443  10.564 -0.4617  0.0373  0.0630
  244SOD    SOD22304   3.741   0.243  15.730  0.3944  0.3580  0.2606
  245SOD    SOD22305   6.555   5.799   0.556 -0.0519 -0.1627  0.1669
  246SOD    SOD22306   2.279   3.875   4.853  0.4495  0.1481 -0.2630
  247SOD    SOD22307   2.196   5.475   6.545 -0.4066 -0.3858 -0.2216
  248SOD    SOD22308   6.168   3.540   4.419  0.3553 -0.3299  0.0362
  249SOD    SOD22309   1.532   6.201   1.003 -0.2191 -0.3534  0.1790
  250SOD    SOD22310   3.866   3.728  11.076 -0.4654 -0.0201 -0.2843
  251SOD    SOD22311   5.368   2.697  15.651 -0.3469  0.2506 -0.6332
  252SOD    SOD22312   5.368   6.448   1.999  0.3279  0.4202  0.0108
  253SOD    SOD22313   3.294   2.541   3.087  0.2467  0.2212  0.2858
  254SOD    SOD22314   3.045   3.245   1.579  0.3389 -0.2018  0.1919
  255SOD    SOD22315   5.246   6.160  12.678 -0.2349 -0.2690  0.2703
  256SOD    SOD22316   2.334   1.514   0.047 -0.3674  0.1446 -0.0540
  257SOD    SOD22317   0.749   3.106  10.801  0.0534 -0.3177 -0.0635
  258SOD    SOD22318   5.088   2.020   5.836 -0.1535 -0.5609 -0.4555
  259SOD    SOD22319   6.257   4.932  16.351  0.0476 -0.4032 -0.2067
  260SOD    SOD22320   6.581   2.679  12.841 -0.2359  0.1210  0.1516
  261SOD    SOD22321   5.335   1.614  13.144  0.2708  0.1446 -0.1900
  262SOD    SOD22322   2.595   0.694  12.901 -0.1528  0.1742  0.0583
  263SOD    SOD22323   0.457   1.023  11.070 -0.0339  0.0637  0.2756
  264SOD    SOD22324   0.193   1.170   5.765  0.5492 -0.0035 -0.5178
  265SOD    SOD22325   2.081   3.529  12.184  0.1030  0.1677  0.3713
  266SOD    SOD22326   3.408   3.572   0.707  0.2672 -0.6307  0.4142
  267SOD    SOD22327   6.319   1.132   2.607 -0.1125 -0.1869  0.2299
  268SOD    SOD22328   1.500   5.339   6.071 -0.0104 -0.6790  0.3143
  269SOD    SOD22329   6.543   4.533  11.525  0.6239  0.0002 -0.6779
  270CLA    CLA22330   6.151   3.249  14.421 -0.2821 -0.4669 -0.0461
  271CLA    CLA22331   0.930   6.295   5.168 -0.0675  0.3104 -0.1389
  272CLA    CLA22332   2.313   6.433   0.165 -0.1463 -0.2318  0.1815
  273CLA    CLA22333   0.736   0.511   4.684 -0.1765  0.0460  0.2914
  274CLA    CLA22334   0.129   0.526  12.739  0.0245 -0.3707 -0.0595
  275CLA    CLA22335   4.958   4.899  16.950 -0.2741 -0.3322  0.2551
  276CLA    CLA22336   4.307   1.728   4.823  0.0342 -0.0720 -0.5268
  277CLA    CLA22337   0.090   2.364  14.183  0.0353 -0.2243 -0.3441
  278CLA    CLA22338   6.233   2.329   1.739 -0.3055  0.1392 -0.0580
  279CLA    CLA22339   2.000   5.997  13.564  0.1845  0.0790  0.2722
  280CLA    CLA22340   4.698   4.516   3.939  0.0442  0.1310 -0.1329
  281CLA    CLA22341   0.210   5.201   0.091  0.0629 -0.0878  0.1802
  282CLA    CLA22342   0.045   5.655  14.642  0.3695 -0.1662 -0.1431
  283CLA    CLA22343   2.939   2.696   1.979  0.0532  0.0742 -0.0372
  284CLA    CLA22344   1.888   5.254   1.595  0.0638  0.0000 -0.1527
  285CLA    CLA22345   5.377   3.097   4.234 -0.2527 -0.3439 -0.1383
  286CLA    CLA22346   4.414   2.907  12.883  0.1248  0.0638  0.0351
  287CLA    CLA22347   3.596   5.470  12.675 -0.2768 -0.3305  0.5014
  288CLA    CLA22348   4.804   3.399  12.213 -0.1028  0.0338 -0.0418
  289CLA    CLA22349   2.070   5.544   5.600 -0.3430 -0.4918  0.0322
  290CLA    CLA22350   2.953   3.054  12.988  0.5508 -0.0049  0.4971
  291CLA    CLA22351   5.511   5.941  15.475  0.1186 -0.0524 -0.5893
  292CLA    CLA22352   3.828   0.366  15.284 -0.2178  0.3865 -0.0059
  293CLA    CLA22353   5.295   5.743   1.537  0.0073  0.0946  0.1837
  294CLA    CLA22354   6.238   1.139  16.276  0.1565  0.0881 -0.4168
  295CLA    CLA22355   1.852   6.024   1.596 -0.2160  0.0114 -0.2055
  296CLA    CLA22356   3.190   6.155  14.506  0.2410  0.1395  0.0464
  297CLA    CLA22357   3.128   5.167   0.576 -0.7200  0.0101 -0.1401
  298CLA    CLA22358   2.882   2.488  12.232 -0.0358  0.1850 -0.1921
  299CLA    CLA22359   4.544   5.835   1.584 -0.1525 -0.0568 -0.2061
  300CLA    CLA22360   0.740   4.599  12.398  0.0226 -0.2230 -0.0019
  301CLA    CLA22361   3.176   5.507   2.967 -0.3699  0.1024 -0.0172
  302CLA    CLA22362   5.484   6.546   3.066 -0.0981 -0.2318  0.1485
  303CLA    CLA22363   2.841   3.459   1.436 -0.1855  0.0270 -0.3156
  304CLA    CLA22364   6.776   3.563  12.924 -0.0766 -0.3443 -0.2167
  305CLA    CLA22365   4.131   1.631   3.651  0.1839  0.0053  0.1705
  306CLA    CLA22366   1.851   0.449  14.725  0.0192  0.6104  0.3154
  307CLA    CLA22367   1.752   5.491   2.688 -0.0849 -0.2070  0.1272
  308CLA    CLA22368   5.925   5.857  16.578  0.4121  0.3682  0.1391
  309CLA    CLA22369   5.867   5.637  14.497 -0.2992 -0.0401  0.2641
  310CLA    CLA22370   4.612   4.150   0.409 -0.1606  0.2577  0.3215
  311CLA    CLA22371   1.306   6.421   0.311  0.1427  0.4187 -0.0357
  312CLA    CLA22372   4.114   1.054  11.478 -0.3403 -0.3951 -0.2730
  313CLA    CLA22373   3.215   1.406   0.473  0.0507  0.4208 -0.0690
  314CLA    CLA22374   3.830   2.579  16.359  0.1221 -0.2662 -0.0350
  315CLA    CLA22375   2.637   4.140   0.888 -0.0769 -0.1540 -0.1552
  316CLA    CLA22376   4.076   4.839   0.121  0.1820  0.1338  0.2520
  317CLA    CLA22377   6.180   4.158  13.614  0.2323 -0.2332  0.2708
  318CLA    CLA22378   3.676   4.474  14.596 -0.0666 -0.0601 -0.2693
  319CLA    CLA22379   3.361   4.348   4.301  0.1671  0.0975  0.0158
  320CLA    CLA22380   6.737   6.215  13.345 -0.2326 -0.0763  0.5443
  321CLA    CLA22381   1.661   5.485  16.413 -0.6638 -0.2410 -0.5485
  322CLA    CLA22382   6.638   0.824  12.201  0.5145 -0.0634  0.1014
  323TIP3   OH222383   4.523   5.385  11.548  0.5036 -0.2469 -0.1820
  323TIP3    H122384   4.591   5.320  11.534  0.5287 -0.3522  0.4208
  323TIP3    H222385   4.441   5.336  11.543  0.4691 -0.1378 -0.8030
  324TIP3   OH222386   5.469   4.323  15.144 -1.1461  0.3191 -0.6211
  324TIP3    H122387   5.455   4.413  15.173  0.9130  0.2591  0.6103
  324TIP3    H222388   5.489   4.331  15.051  2.2236  1.4728  0.1425
  325TIP3   OH222389   0.602   3.470  12.095 -0.1170  0.7264  0.2002
  325TIP3    H122390   0.549   3.549  12.087 -1.1168  0.3949  3.1236
  325TIP3    H222391   0.690   3.502  12.115 -0.3138  1.1253  0.4295
  326TIP3   OH222392   6.189   1.054  16.596  0.0884  0.1252  0.7615
  326TIP3    H122393   6.280   1.077  16.616  0.3557  0.7607 -1.0961
  326TIP3    H222394   6.184   1.058  16.500 -1.9890  0.4127  0.8669
  327TIP3   OH222395   0.555   2.495  11.916 -0.0092 -0.0443  0.6459
  327TIP3    H122396   0.464   2.522  11.920  0.1120  0.3927  0.4863
  327TIP3    H222397   0.562   2.443  11.836 -0.3934 -1.1306  1.2983
  328TIP3   OH222398   0.267   3.016  12.176  0.3405  0.1340 -0.0269
  328TIP3    H122399   0.328   3.022  12.103  1.2624 -0.9467  0.6257
  328TIP3    H222400   0.241   3.106  12.194  0.4097  0.4390 -1.4291
  329TIP3   OH222401   6.379   3.726   0.675 -0.1588  0.6823 -0.2134
  329TIP3    H122402   6.413   3.810   0.643 -1.7780  0.9692 -1.2608
  329TIP3    H222403   6.295   3.749   0.715  0.4019 -0.1413  1.4759
  330TIP3   OH222404   1.531   0.812  15.663  0.4523  0.4580 -0.1968
  330TIP3    H122405   1.479   0.746  15.709 -0.3673  1.4366  0.3173
  330TIP3    H222406   1.562   0.871  15.732  0.4575  1.0950 -0.7301
  331TIP3   OH222407   3.840   4.808  14.251 -0.8802 -0.4975  0.5451
  331TIP3    H122408   3.904   4.826  14.182 -2.3094  2.7883 -0.0192
  331TIP3    H222409   3.755   4.817  14.209 -1.7578 -1.0271  2.1500
  332TIP3   OH222410   3.574   1.393  14.414 -0.5110  0.2735  0.1725
  332TIP3    H122411   3.517   1.347  14.352  0.2722  0.2626 -0.5379
  332TIP3    H222412   3.516   1.414  14.488 -0.8600 -1.9298  0.5527
  333TIP3   OH222413   0.945   0.457  16.863 -0.0214 -1.1613  0.1938
  333TIP3    H122414   0.978   0.434  16.950  0.7847  1.7516  0.7097
  333TIP3    H222415   0.865   0.508  16.880  0.5861  0.1270 -0.7299
  334TIP3   OH222416   0.335   6.691   1.081  0.5376 -0.0694  0.5851
  334TIP3    H122417   0.314   6.619   1.021  1.5056  0.2980 -0.1951
  334TIP3    H222418   0.431   6.695   1.082  0.4795  1.8146 -0.0905
  335TIP3   OH222419   4.306   5.820  17.127  0.1882  0.2181  0.5470
  335TIP3    H122420   4.397   5.793  17.135  0.2357 -0.3668 -1.6892
  335TIP3    H222421   4.256   5.739  17.133 -0.1467  0.4483  0.9432
  336TIP3   OH222422   4.013   4.404   2.914  0.2549  0.0795 -0.0406
  336TIP3    H122423   4.002   4.406   2.819  0.6119  0.9998 -0.0707
  336TIP3    H222424   4.102   4.438   2.929  0.6729 -1.2474  0.5544
  337TIP3   OH222425   3.419   6.691   4.690  0.5600  0.1257  0.3655
  337TIP3    H122426   3.365   6.730   4.759  0.7368  0.2026  0.4613
  337TIP3    H222427   3.492   6.650   4.737  1.1847  0.9904  0.1646
  338TIP3   OH222428   3.148   0.598  11.315  0.2886  0.9395  0.1325
  338TIP3    H122429   3.131   0.577  11.223 -2.4967 -1.1680  1.0672
  338TIP3    H222430   3.224   0.544  11.338  1.5338  2.1034 -1.0950
  339TIP3   OH222431   0.879   2.650   2.268 -0.5107 -0.6635  0.4710
  339TIP3    H122432   0.938   2.723   2.288  0.5404 -1.0577 -1.0941
  339TIP3    H222433   0.795   2.676   2.306  0.8733 -0.5354  3.6235
  340TIP3   OH222434   6.056   2.929  14.524 -0.6312  0.5272  0.2841
  340TIP3    H122435   6.058   3.012  14.476 -0.8250  0.3127 -0.1021
  340TIP3    H222436   6.143   2.922  14.563 -0.6024  0.8950  0.2911
  341TIP3   OH222437   1.711   5.628   1.509 -0.2766 -0.1984 -0.0930
  341TIP3    H122438   1.762   5.686   1.453 -1.0666  1.6091  1.0056
  341TIP3    H222439   1.624   5.626   1.470 -0.4353 -0.1053  0.2531
  342TIP3   OH222440   4.153   0.702   4.697 -0.0947  0.0927 -0.1296
  342TIP3    H122441   4.208   0.766   4.742 -0.6137 -0.0920  0.7713
  342TIP3    H222442   4.094   0.756   4.644  0.8334  0.2951 -0.9922
  343TIP3   OH222443   5.299   0.519  13.063 -0.5790  0.0714  0.4171
  343TIP3    H122444   5.236   0.585  13.033  0.0539 -0.4068 -2.0121
  343TIP3    H222445   5.384   0.562  13.053 -0.2764 -0.5569  0.2970
  344TIP3   OH222446   6.076   3.118  14.999  0.1373 -0.7686  0.1697
  344TIP3    H122447   6.083   3.196  15.053  0.7979 -0.0854 -0.8732
  344TIP3    H222448   6.167   3.097  14.974 -0.2581 -0.1911 -1.8663
  345TIP3   OH222449   5.099   1.364   1.165  0.4477 -0.7957  0.3735
  345TIP3    H122450   5.063   1.337   1.080  0.7476  0.6936 -0.2409
  345TIP3    H222451   5.159   1.436   1.144  0.8856 -0.7287  1.8028
  346TIP3   OH222452   0.266   1.387  11.743 -0.6312 -0.4323  0.0504
  346TIP3    H122453   0.253   1.300  11.707 -2.2709 -0.7526  1.3309
  346TIP3    H222454   0.215   1.445  11.686  0.3547 -0.3132 -0.7236
  347TIP3   OH222455   2.375   2.817   1.127  0.1350  0.0575  0.0031
  347TIP3    H122456   2.346   2.796   1.038 -0.6863 -0.3185  0.3554
  347TIP3    H222457   2.379   2.913   1.128 -0.8004  0.1031 -0.1480
  348TIP3   OH222458   0.583   3.274  15.327  0.1090  0.7990  0.3460
  348TIP3    H122459   0.639   3.234  15.393 -0.9940 -0.3839  0.5778
  348TIP3    H222460   0.642   3.293  15.254  1.3631  2.2465  1.6952
  349TIP3   OH222461   6.474   0.286   4.407  0.2571  0.1589  0.0613
  349TIP3    H122462   6.484   0.194   4.384 -1.3657 -0.3030  1.0834
  349TIP3    H222463   6.563   0.322   4.405  1.0436 -1.6928  0.7179
  350TIP3   OH222464   1.179   2.743  10.507 -0.4005 -0.4416 -0.1045
  350TIP3    H122465   1.218   2.812  10.454  0.1033 -0.4727  0.2240
  350TIP3    H222466   1.106   2.786  10.552  1.6226  0.6108  2.2980
  351TIP3   OH222467   6.668   6.041   1.029  0.0030 -0.7854 -0.0360
  351TIP3    H122468   6.644   5.960   1.073  1.0159  0.4409  2.9129
  351TIP3    H222469   6.654   6.109   1.095  0.8304  1.2251 -1.8807
  352TIP3   OH222470   5.958   1.543   1.373 -0.1631  0.5387 -0.0287
  352TIP3    H122471   5.924   1.604   1.308 -1.2420  0.0479  0.0677
  352TIP3    H222472   5.884   1.524   1.429  0.0639 -1.1232 -0.2663
  353TIP3   OH222473   5.983   5.466  11.455 -0.3680 -0.2399  0.0215
  353TIP3    H122474   6.057   5.477  11.515 -0.2773 -0.7713  0.0025
  353TIP3    H222475   5.977   5.372  11.440 -1.2256 -0.2262  0.2443
  354TIP3   OH222476   4.852   3.404  12.520  0.3355  0.1136  0.4815
  354TIP3    H122477   4.895   3.320  12.536  0.1395  0.1809  1.3785
  354TIP3    H222478   4.833   3.404  12.426 -1.5409 -1.7444  0.8222
  355TIP3   OH222479   5.390   1.061   0.920  0.0969  0.0913 -0.0869
  355TIP3    H122480   5.414   1.136   0.973 -0.6646  0.8245 -0.7672
  355TIP3    H222481   5.471   1.036   0.876  0.5945 -0.1549  0.9476
  356TIP3   OH222482   2.081   0.772  15.467 -0.0540  0.0821 -0.6015
  356TIP3    H122483   2.106   0.708  15.533  1.0186 -2.0215 -2.9234
  356TIP3    H222484   1.996   0.742  15.435  0.2884 -0.0178 -1.4538
  357TIP3   OH222485   6.136   0.573  16.967 -0.0174  0.9143  0.2408
  357TIP3    H122486   6.189   0.580  17.046 -0.5912  0.9004  0.6283
  357TIP3    H222487   6.048   0.555  16.999  0.1510 -1.3357 -0.4864
  358TIP3   OH222488   5.966   2.333   6.524  0.0246 -0.3341  0.2241
  358TIP3    H122489   6.046   2.326   6.471 -0.5650  0.0058 -0.7237
  358TIP3    H222490   5.997   2.353   6.612  1.0097 -0.6500 -0.0446
  359TIP3   OH222491   6.775   1.653  13.130 -0.4363 -0.1131  0.3434
  359TIP3    H122492   6.837   1.580  13.126 -1.9322 -1.4985  1.6095
  359TIP3    H222493   6.740   1.658  13.041  1.5834  0.8065 -0.4385
  360TIP3   OH222494   4.337   4.618  12.959  0.0786  0.5231 -0.2602
  360TIP3    H122495   4.389   4.618  12.879  0.7316  0.6295  0.1617
  360TIP3    H222496   4.392   4.663  13.024 -0.1089 -0.2786  0.4673
  361TIP3   OH222497   6.098   3.746  12.046  0.7035 -0.5541 -0.2548
  361TIP3    H122498   6.073   3.826  12.091 -1.0681 -1.4346  0.3656
  361TIP3    H222499   6.181   3.720  12.086  1.9735  1.6750 -1.3865
  362TIP3   OH222500   0.622   2.523   0.962  0.4017  0.1053  0.3280
  362TIP3    H122501   0.655   2.543   1.049  0.2022 -0.3506  0.5113
  362TIP3    H222502   0.663   2.588   0.905  0.1420  0.7178  0.8368
  363TIP3   OH222503   4.330   1.625   3.894  0.2446  0.4201 -0.2388
  363TIP3    H122504   4.267   1.651   3.827 -0.2844  0.9743  0.4624
  363TIP3    H222505   4.300   1.538   3.922 -0.9280  1.1781  0.9339
  364TIP3   OH222506   3.927   5.621   0.874  0.0786  0.2593  0.3513
  364TIP3    H122507   3.870   5.697   0.864  0.8823  0.8136 -0.0156
  364TIP3    H222508   3.900   5.582   0.957 -2.1573 -0.5886 -0.7270
  365TIP3   OH222509   4.070   1.026  16.082 -0.7970  0.4833  0.4966
  365TIP3    H122510   4.010   0.952  16.074 -0.1291  0.0010 -0.0671
  365TIP3    H222511   4.121   1.006  16.161  2.0193 -1.5898 -1.7758
  366TIP3   OH222512   4.435   6.026   4.018  0.2282 -0.7306  0.2467
  366TIP3    H122513   4.489   6.076   3.957 -1.3520  1.0720  0.2462
  366TIP3    H222514   4.473   6.045   4.104 -0.6937  0.9944  0.3064
  367TIP3   OH222515   0.376   4.752   0.905  0.6535 -0.4240  0.5551
  367TIP3    H122516   0.293   4.704   0.906  0.6748 -0.4741  0.0871
  367TIP3    H222517   0.424   4.718   0.980 -0.3008  0.5907  1.6451
  368TIP3   OH222518   0.887   0.719  14.632  0.4284  0.1968 -1.4642
  368TIP3    H122519   0.906   0.791  14.572 -0.1503  0.3432 -1.4713
  368TIP3    H222520   0.792   0.716  14.637  0.4148 -1.2110 -2.2518
  369TIP3   OH222521   3.633   0.785  10.443  0.0892 -0.5362 -0.3269
  369TIP3    H122522   3.713   0.780  10.495 -1.1693 -1.6412  1.5933
  369TIP3    H222523   3.612   0.878  10.440  1.2666 -0.2776 -0.5513
  370TIP3   OH222524   0.179   3.128  13.124 -0.0194  0.0246  0.1449
  370TIP3    H122525   0.236   3.117  13.048 -2.1145  0.2303 -1.4928
  370TIP3    H222526   0.201   3.055  13.182  1.3916 -0.2983 -0.7866
  371TIP3   OH222527   6.601   3.156  14.856 -0.2711  0.0346 -0.1090
  371TIP3    H122528   6.690   3.126  14.876 -0.1873 -0.2254 -0.8638
  371TIP3    H222529   6.597   3.157  14.761 -1.2863 -0.5640 -0.0769
  372TIP3   OH222530   5.342   5.505   6.107 -0.7677 -0.4311  0.6900
  372TIP3    H122531   5.361   5.544   6.021 -0.3648 -2.1972 -0.0391
  372TIP3    H222532   5.275   5.440   6.089 -0.0209 -1.4547  1.5615
  373TIP3   OH222533   4.974   1.432  11.540 -0.5705 -0.1737 -0.4471
  373TIP3    H122534   4.952   1.339  11.527 -1.5536  0.3098 -2.4542
  373TIP3    H222535   4.894   1.479  11.517  0.1334  1.2205 -0.0902
  374TIP3   OH222536   3.808   3.208  10.853 -0.1787  0.4570  0.1620
  374TIP3    H122537   3.883   3.255  10.892 -1.1228  0.2481  2.2858
  374TIP3    H222538   3.736   3.271  10.856 -1.2639 -0.8253  2.3483
  375TIP3   OH222539   6.163   6.749   5.670  0.1151 -0.0847  0.4164
  375TIP3    H122540   6.084   6.784   5.713 -0.7033 -0.6809 -0.5800
  375TIP3    H222541   6.141   6.658   5.651  0.7955 -0.0676 -0.4781
  376TIP3   OH222542   1.314   5.685   5.337  0.3108  0.1862 -0.9483
  376TIP3    H122543   1.308   5.702   5.431  0.8233  1.3085 -1.1075
  376TIP3    H222544   1.226   5.698   5.304  0.3588  0.9224 -0.7966
  377TIP3   OH222545   5.227   5.574  15.364  0.0368  0.2492 -0.3491
  377TIP3    H122546   5.279   5.500  15.332 -1.0295 -1.3408  1.4820
  377TIP3    H222547   5.137   5.541  15.366 -0.1836  0.8695  2.4165
  378TIP3   OH222548   5.360   2.290   2.282  0.0039  0.0593  0.0491
  378TIP3    H122549   5.291   2.254   2.337  0.4868 -1.0427 -0.0550
  378TIP3    H222550   5.433   2.229   2.292  1.4327  1.9043  1.1753
  379TIP3   OH222551   4.771   0.328  13.121  0.4207  0.9799 -0.2126
  379TIP3    H122552   4.862   0.307  13.098  0.0892  0.1260 -0.7906
  379TIP3    H222553   4.722   0.311  13.040 -0.4275  0.2368  0.4414
  380TIP3   OH222554   0.540   5.498  17.127 -0.6488  0.3631 -0.3838
  380TIP3    H122555   0.497   5.416  17.152  1.6900 -0.2573  1.6859
  380TIP3    H222556   0.490   5.566  17.172 -0.7594 -0.1795  0.3202
  381TIP3   OH222557   0.102   6.268   5.830  0.0842  0.7682 -0.4238
  381TIP3    H122558   0.120   6.174   5.825 -0.1543  0.7237 -0.4334
  381TIP3    H222559   0.087   6.284   5.923 -1.7628  0.4549 -0.6618
  382TIP3   OH222560   1.820   0.900   2.596 -0.3581 -0.7848  0.1413
  382TIP3    H122561   1.841   0.981   2.642 -0.3086 -0.3452 -0.6543
  382TIP3    H222562   1.850   0.831   2.655  0.3470 -0.2142  0.4625
  383TIP3   OH222563   3.407   0.290   6.262  0.7890 -0.2943  0.0607
  383TIP3    H122564   3.495   0.257   6.244  0.1061 -3.5940  2.2645
  383TIP3    H222565   3.415   0.333   6.347  0.6781  1.1793 -0.6684
  384TIP3   OH222566   4.147   3.506  11.580  0.0703 -0.1461 -0.2433
  384TIP3    H122567   4.146   3.477  11.671  1.3677  0.2765 -0.0882
  384TIP3    H222568   4.056   3.495  11.551 -0.5089  0.3252  1.2903
  385TIP3   OH222569   6.745   3.705  11.256  0.4931  0.8072  0.3412
  385TIP3    H122570   6.799   3.626  11.247 -0.8878  0.1238 -2.6159
  385TIP3    H222571   6.657   3.673  11.274 -0.0089  1.6787 -0.4874
  386TIP3   OH222572   0.178   5.275   5.797  0.2950 -0.6306 -0.1456
  386TIP3    H122573   0.168   5.277   5.893 -0.7787 -0.6488 -0.2512
  386TIP3    H222574   0.197   5.184   5.777  1.7408 -0.4077  0.1616
  387TIP3   OH222575   4.150   4.292   4.595  0.5484 -0.0161  0.0430
  387TIP3    H122576   4.119   4.379   4.570 -1.2793 -0.8098 -0.5762
  387TIP3    H222577   4.144   4.290   4.691  1.3944  0.8070  0.1212
  388TIP3   OH222578   4.398   5.605  13.982  0.2370  0.1653  0.0333
  388TIP3    H122579   4.350   5.597  14.064 -0.3831  0.8466 -0.2583
  388TIP3    H222580   4.490   5.610  14.008 -0.1049  3.0182  0.8763
  389TIP3   OH222581   4.674   4.723   6.116 -0.7603  0.3093 -0.2310
  389TIP3    H122582   4.680   4.656   6.184  0.2231  1.1591  0.5363
  389TIP3    H222583   4.581   4.725   6.093 -1.1836  0.3027  1.4077
  390TIP3   OH222584   5.080   5.588  10.659  0.5798  0.7587 -0.1192
  390TIP3    H122585   5.122   5.523  10.603 -0.9045  0.9385 -1.4785
  390TIP3    H222586   5.111   5.672  10.625  1.1295  0.8072  0.5113
  391TIP3   OH222587   2.991   3.675  13.741  0.1423 -0.3866 -0.1005
  391TIP3    H122588   3.067   3.728  13.766 -0.0244 -1.7323  3.4531
  391TIP3    H222589   2.916   3.718  13.783 -0.3669 -1.8411  0.5109
  392TIP3   OH222590   5.842   2.320  15.861 -0.2661 -0.0223  0.3782
  392TIP3    H122591   5.864   2.410  15.840  1.2940 -0.3679  0.4955
  392TIP3    H222592   5.759   2.326  15.908  0.7688  1.5144  2.0648
  393TIP3   OH222593   6.088   0.542   0.607  0.0772  0.4607 -0.2101
  393TIP3    H122594   6.012   0.536   0.664 -0.8336  1.5333 -1.2923
  393TIP3    H222595   6.163   0.525   0.664 -0.7885  1.8244  1.3689
  394TIP3   OH222596   6.568   3.856  16.162 -0.0098 -0.0848 -0.1011
  394TIP3    H122597   6.636   3.907  16.206  0.0599 -0.7991  0.6296
  394TIP3    H222598   6.494   3.917  16.156 -0.8924 -0.6983  3.2745
  395TIP3   OH222599   4.822   1.427   1.719 -0.1124 -0.1830 -0.2336
  395TIP3    H122600   4.869   1.352   1.757 -0.7175 -1.2646 -1.5947
  395TIP3    H222601   4.869   1.447   1.638 -0.4624  0.3747 -0.3024
  396TIP3   OH222602   0.506   5.829   0.613  0.0518 -0.3953 -0.3547
  396TIP3    H122603   0.545   5.761   0.559 -0.1445 -0.9694  0.2148
  396TIP3    H222604   0.560   5.906   0.598  0.0164 -0.5583 -1.3399
  397TIP3   OH222605   5.264   4.017  14.037 -0.0413  0.5853 -0.4983
  397TIP3    H122606   5.224   4.102  14.053  0.3678  0.7737 -0.4906
  397TIP3    H222607   5.225   3.960  14.104  1.5606  1.3357  1.1075
  398TIP3   OH222608   3.390   2.773  12.996 -0.1732  0.0417  0.0359
  398TIP3    H122609   3.359   2.848  12.945  0.6792  0.9428  0.8116
  398TIP3    H222610   3.330   2.767  13.070  1.0187  1.3541  1.1596
  399TIP3   OH222611   0.642   0.999  15.815  0.1802  0.2752  0.4362
  399TIP3    H122612   0.725   1.014  15.770 -0.7886 -0.7087 -1.7698
  399TIP3    H222613   0.636   0.904  15.824 -0.9640  0.3062  0.0701
  400TIP3   OH222614   0.083   4.597   2.526  0.1461 -0.1243  0.6326
  400TIP3    H122615   0.021   4.548   2.580  0.6805 -2.5307 -0.8583
  400TIP3    H222616   0.162   4.543   2.526  0.1469 -0.2348 -2.5475
  401TIP3   OH222617   0.816   2.154   2.951  0.2782 -0.3251 -0.1290
  401TIP3    H122618   0.811   2.129   2.859 -0.0198  0.6586 -0.3804
  401TIP3    H222619   0.863   2.081   2.993  0.0080 -0.9868 -0.9708
  402TIP3   OH222620   4.464   1.560   2.782  0.9337 -0.2883  0.0904
  402TIP3    H122621   4.415   1.638   2.754  0.7833  0.2379  1.8052
  402TIP3    H222622   4.545   1.564   2.731  0.6680  0.6753 -0.2734
  403TIP3   OH222623   6.530   3.198   4.272 -0.2336 -0.1044 -0.5532
  403TIP3    H122624   6.442   3.165   4.255 -0.0568 -1.2208  0.6740
  403TIP3    H222625   6.565   3.140   4.339  1.0326  1.0110 -0.2322
  404TIP3   OH222626   4.004   0.746  17.190 -0.3272 -0.0545  0.1592
  404TIP3    H122627   3.931   0.719  17.134 -0.0336  0.4412 -0.4656
  404TIP3    H222628   4.046   0.817  17.142  0.6622 -0.4422  0.4366
  405TIP3   OH222629   4.168   3.314   5.684 -0.4639 -0.8685  0.3002
  405TIP3    H122630   4.246   3.367   5.698 -0.4949 -0.6762 -0.2358
  405TIP3    H222631   4.155   3.268   5.767 -0.3966 -0.1007  0.7411
  406TIP3   OH222632   4.339   2.588  12.079 -0.8190  0.6146  0.0726
  406TIP3    H122633   4.249   2.611  12.055 -0.2089  1.5747 -1.3529
  406TIP3    H222634   4.393   2.657  12.039  0.4948  0.4691  1.5394
  407TIP3   OH222635   1.354   4.505   0.382 -0.0535 -0.5551  0.1626
  407TIP3    H122636   1.330   4.596   0.366 -0.8130 -0.8176 -0.1979
  407TIP3    H222637   1.275   4.455   0.362 -0.8708 -0.9871  3.9708
  408TIP3   OH222638   5.512   4.057  16.594  0.0037 -0.2171  0.2013
  408TIP3    H122639   5.600   4.059  16.633 -0.2255 -1.3547  0.8073
  408TIP3    H222640   5.480   3.968  16.613 -0.3406 -0.6050 -2.1013
  409TIP3   OH222641   2.086   5.310   2.594 -0.2145 -0.5004 -0.0247
  409TIP3    H122642   2.046   5.382   2.544 -0.2008 -0.0082  0.6636
  409TIP3    H222643   2.049   5.231   2.555 -2.1206 -0.0489  0.7947
  410TIP3   OH222644   4.299   2.573   1.564 -0.8191  0.9886  0.7860
  410TIP3    H122645   4.262   2.615   1.641  0.4853  1.2501  1.2779
  410TIP3    H222646   4.311   2.481   1.590 -1.2137  0.8717  0.5776
  411TIP3   OH222647   1.376   0.036   3.112  0.0666 -0.4444  0.4656
  411TIP3    H122648   1.310   0.101   3.137  1.5444  2.0283 -1.8613
  411TIP3    H222649   1.326  -0.032   3.066 -1.2475 -0.0091  1.2310
  412TIP3   OH222650   5.804   6.764   3.422 -0.4823 -0.6346  0.1299
  412TIP3    H122651   5.858   6.773   3.344 -1.4837  0.5730 -0.4427
  412TIP3    H222652   5.754   6.846   3.427 -1.7197 -1.4158  1.0457
  413TIP3   OH222653   0.149   0.590  13.938 -0.2184  0.3643 -0.5912
  413TIP3    H122654   0.141   0.665  13.996  0.9141 -0.1694  0.2687
  413TIP3    H222655   0.242   0.584  13.918 -0.5214  0.2012 -2.0181
  414TIP3   OH222656   0.054   0.919   6.277  0.5090  0.1299  0.4517
  414TIP3    H122657   0.087   1.003   6.308  2.0349 -0.2046 -0.2398
  414TIP3    H222658   0.074   0.918   6.184  0.3611 -0.9457  0.4239
  415TIP3   OH222659   4.344   2.935  11.243 -0.1051  0.1729  0.0257
  415TIP3    H122660   4.423   2.880  11.249 -0.2877 -0.3749 -2.0659
  415TIP3    H222661   4.293   2.911  11.320  0.6294 -1.3163  0.0917
  416TIP3   OH222662   1.820   3.882  14.383  0.0428 -0.2433 -0.3591
  416TIP3    H122663   1.900   3.917  14.422 -0.6909  2.9302 -1.5572
  416TIP3    H222664   1.836   3.885  14.289 -0.2208 -2.8491 -0.5222
  417TIP3   OH222665   4.363   2.564  10.511  0.0312  0.6714  0.6321
  417TIP3    H122666   4.289   2.557  10.450 -0.2517 -0.6149  1.1070
  417TIP3    H222667   4.424   2.496  10.483  0.3593  0.7367  1.1737
  418TIP3   OH222668   4.289   0.919  13.334  0.1529 -0.3528 -0.4919
  418TIP3    H122669   4.325   0.961  13.412 -0.4544 -1.6747  0.5032
  418TIP3    H222670   4.266   0.992  13.276 -0.3683  0.6734  0.9964
  419TIP3   OH222671   1.798   0.252   3.862 -0.1262  0.4480  0.0564
  419TIP3    H122672   1.748   0.304   3.798  0.5904  0.7199 -0.2935
  419TIP3    H222673   1.862   0.205   3.809  0.3760  0.5621  0.5598
  420TIP3   OH222674   4.891   5.246  15.658 -0.2164 -0.1309  0.1948
  420TIP3    H122675   4.863   5.155  15.651  1.7227 -0.7240 -0.2892
  420TIP3    H222676   4.964   5.252  15.597  0.4397  1.4460  1.1234
  421TIP3   OH222677   5.010   3.445   2.305  0.1966  0.1233 -0.5646
  421TIP3    H122678   5.099   3.416   2.287  0.5281  0.9939 -0.3751
  421TIP3    H222679   5.018   3.500   2.383 -0.7590 -1.1139  0.4225
  422TIP3   OH222680   6.399   2.777   1.797  0.1817  0.1235 -0.1038
  422TIP3    H122681   6.473   2.830   1.765  1.0516 -0.3034  1.1744
  422TIP3    H222682   6.376   2.722   1.722  1.0152  0.4105 -0.5865
  423TIP3   OH222683   5.592   2.844   2.669  0.8450  0.1898 -0.0906
  423TIP3    H122684   5.623   2.778   2.607  0.3749 -0.5937  0.4975
  423TIP3    H222685   5.597   2.926   2.621 -0.8301 -0.5768 -1.6539
  424TIP3   OH222686   1.355   4.103   6.814 -0.2054  0.7656 -0.5032
  424TIP3    H122687   1.368   4.198   6.819 -0.8196  0.8909 -1.1561
  424TIP3    H222688   1.273   4.093   6.765  0.5463 -0.1315 -1.5937
  425TIP3   OH222689   1.038   1.203   2.453  0.6668  0.0222  0.1004
  425TIP3    H122690   1.007   1.208   2.362 -0.3875  0.6203  0.4799
  425TIP3    H222691   1.130   1.227   2.448  0.2855  1.4372 -0.6428
  426TIP3   OH222692   0.273   0.795  12.859  0.3385  0.0559 -0.2995
  426TIP3    H122693   0.203   0.860  12.869  0.2754 -0.2356  1.2248
  426TIP3    H222694   0.229   0.718  12.823  0.3392  0.6863 -1.7116
  427TIP3   OH222695   2.459   3.311   5.559  0.4732  0.1646 -0.7918
  427TIP3    H122696   2.381   3.295   5.506  0.6595 -0.8086 -0.7886
  427TIP3    H222697   2.532   3.301   5.498  0.6770 -0.7210 -0.4111
  428TIP3   OH222698   1.116   5.795  16.817  1.1015  0.0818  0.0004
  428TIP3    H122699   1.120   5.734  16.743 -1.0099  0.4060 -0.4181
  428TIP3    H222700   1.146   5.879  16.780 -1.3718  0.5999 -0.9252
  429TIP3   OH222701   6.606   3.681  10.394  0.4871  0.3991 -0.2657
  429TIP3    H122702   6.618   3.663  10.488  0.7595  0.8000 -0.2215
  429TIP3    H222703   6.537   3.747  10.391 -0.1509 -0.2678 -0.3987
  430TIP3   OH222704   1.132   3.805  13.909  0.0594  0.3290 -0.4367
  430TIP3    H122705   1.110   3.836  13.997 -0.6902  0.8779 -0.8148
  430TIP3    H222706   1.217   3.764  13.919 -0.2969 -0.1581  0.6759
  431TIP3   OH222707   0.235   2.336   4.564  0.2606  0.2675 -0.2337
  431TIP3    H122708   0.251   2.242   4.559 -0.1955  0.2400 -1.4950
  431TIP3    H222709   0.141   2.345   4.548  0.6994  1.0828 -2.5886
  432TIP3   OH222710   5.696   3.584  15.481  0.7049  0.6965 -0.3547
  432TIP3    H122711   5.753   3.660  15.472 -0.8069  2.1143  1.6695
  432TIP3    H222712   5.607   3.619  15.475  0.0021 -1.0716 -0.5966
  433TIP3   OH222713   3.720   3.133  13.092 -0.0636  0.3157  0.4440
  433TIP3    H122714   3.756   3.196  13.029 -0.8301  0.3092 -0.0014
  433TIP3    H222715   3.796   3.084  13.122  0.4743  1.1213  0.4188
  434TIP3   OH222716   6.124   6.008  16.408 -0.1926  0.0221  0.0889
  434TIP3    H122717   6.074   5.952  16.467  1.5126 -0.5620  1.0113
  434TIP3    H222718   6.207   6.024  16.455  0.3232  1.2703 -1.2334
  435TIP3   OH222719   2.048   3.355   1.397  0.4425  0.1562  0.0029
  435TIP3    H122720   2.053   3.445   1.430 -1.3379 -0.6762  2.8166
  435TIP3    H222721   2.135   3.319   1.413  1.1264  1.3117 -1.0081
  436TIP3   OH222722   4.322   6.409   3.692 -0.3274 -0.3792  0.3622
  436TIP3    H122723   4.248   6.392   3.634 -0.6985 -0.1650  0.7786
  436TIP3    H222724   4.284   6.418   3.779  0.1747 -0.1840  0.5653
  437TIP3   OH222725   0.861   1.155  13.012  0.0241  0.4207 -0.5347
  437TIP3    H122726   0.816   1.178  12.930  0.9750  1.5239 -0.7461
  437TIP3    H222727   0.794   1.168  13.080 -0.2403  1.2230 -0.9383
  438TIP3   OH222728   4.743   5.600  16.339 -0.2157  0.4514 -0.2474
  438TIP3    H122729   4.724   5.523  16.285 -2.0432  0.9976 -0.4107
  438TIP3    H222730   4.828   5.581  16.378  0.7136 -0.3554 -2.5988
  439TIP3   OH222731   6.579   3.375  13.038 -0.2574 -0.2586  0.0496
  439TIP3    H122732   6.574   3.357  12.945 -1.1553  0.3521 -0.0222
  439TIP3    H222733   6.649   3.440  13.046 -1.7281  1.4085 -0.4558
  440TIP3   OH222734   5.459   0.994  16.709  0.1967  0.4760 -0.2480
  440TIP3    H122735   5.522   0.955  16.649 -1.2422  0.0154 -1.5014
  440TIP3    H222736   5.459   0.936  16.785  0.3925 -0.1947 -0.7544
  441TIP3   OH222737   6.344   5.044  12.828  0.1270  0.3138  0.2205
  441TIP3    H122738   6.413   5.017  12.767 -0.1481  1.3816 -0.5880
  441TIP3    H222739   6.343   5.140  12.822 -0.3895  0.3920  1.3821
  442TIP3   OH222740   1.696   4.595   6.552  1.3989  0.1170 -0.5396
  442TIP3    H122741   1.716   4.685   6.526 -1.4355  0.9750  0.1010
  442TIP3    H222742   1.653   4.557   6.475 -0.2117  0.3175  0.2383
  443TIP3   OH222743   4.125   0.686   6.150 -0.1098 -0.0165 -0.5451
  443TIP3    H122744   4.138   0.624   6.221  1.2411  1.6076  0.6289
  443TIP3    H222745   4.152   0.638   6.071 -0.6714 -1.4672  0.1202
  444TIP3   OH222746   0.249   5.003  12.180  0.2192  0.0984 -0.3515
  444TIP3    H122747   0.304   5.002  12.258 -0.1187  0.7218 -0.1056
  444TIP3    H222748   0.217   4.913  12.172  0.8896 -0.1509 -0.2261
  445TIP3   OH222749   4.590   3.379  16.708 -0.6618  0.3365  0.0149
  445TIP3    H122750   4.518   3.434  16.739  0.3381  1.9179 -0.3689
  445TIP3    H222751   4.597   3.400  16.615  1.3756  1.4785  0.4092
  446TIP3   OH222752   0.312   1.918   0.185  0.1941 -0.3035 -0.7248
  446TIP3    H122753   0.219   1.939   0.176  0.2874 -0.4184 -1.9468
  446TIP3    H222754   0.350   1.939   0.100  1.1643 -0.8959 -0.4402
  447TIP3   OH222755   0.128   1.912  14.228 -0.9248  0.2584  0.0234
  447TIP3    H122756   0.187   1.984  14.252 -0.1204 -0.4832  0.2855
  447TIP3    H222757   0.049   1.927  14.281 -1.1283  1.4671 -0.6055
  448TIP3   OH222758   2.051   2.633  15.567  0.0523 -0.2460 -0.5183
  448TIP3    H122759   2.064   2.604  15.658 -1.7225  1.9482  0.4908
  448TIP3    H222760   1.965   2.599  15.543 -0.5191  1.1589 -0.5242
  449TIP3   OH222761   1.879   4.813  12.400  0.0976  0.3946 -0.4079
  449TIP3    H122762   1.880   4.717  12.404 -0.2902  0.4427  1.4129
  449TIP3    H222763   1.959   4.840  12.445  1.2141  0.9126 -2.6465
  450TIP3   OH222764   5.827   4.796   0.433 -0.1785  0.6747 -0.4224
  450TIP3    H122765   5.764   4.743   0.482  0.9295 -1.1389 -0.9070
  450TIP3    H222766   5.802   4.785   0.341  1.4670 -0.9305 -0.7041
  451TIP3   OH222767   3.820   0.405  12.284  0.4500 -0.3827  0.6083
  451TIP3    H122768   3.768   0.325  12.281  0.6795 -0.5279  0.5268
  451TIP3    H222769   3.894   0.384  12.340  0.8813 -0.4460  0.0155
  452TIP3   OH222770   2.020   0.138  12.812  0.0035 -0.1349 -0.3169
  452TIP3    H122771   2.061   0.059  12.775  0.0753  0.3090 -1.1964
  452TIP3    H222772   2.092   0.186  12.852  0.4158  0.8195 -2.1715
  453TIP3   OH222773   5.676   0.468   4.078 -0.3507 -0.2525 -0.3350
  453TIP3    H122774   5.593   0.421   4.084 -0.7353  0.4516 -0.1206
  453TIP3    H222775   5.704   0.479   4.168  0.6729 -1.7052 -0.4608
  454TIP3   OH222776   0.581   3.618  16.975 -0.7497 -0.8624 -0.3626
  454TIP3    H122777   0.676   3.624  16.986 -0.5095 -2.8944 -1.1205
  454TIP3    H222778   0.547   3.606  17.064 -0.2146 -1.0774 -0.1877
  455TIP3   OH222779   3.489   6.583   1.972  0.1715  0.1130  0.0683
  455TIP3    H122780   3.526   6.509   1.925  0.9963  0.2769  0.4513
  455TIP3    H222781   3.530   6.660   1.933 -0.2280  0.3357  0.0806
  456TIP3   OH222782   4.685   1.593  15.633 -0.1104 -0.1277  0.5240
  456TIP3    H122783   4.594   1.568  15.620 -0.0624  0.2537 -0.5751
  456TIP3    H222784   4.718   1.533  15.700 -1.5699  0.6573  1.9626
  457TIP3   OH222785   6.732   1.963  15.958  0.2735 -0.3478 -0.1881
  457TIP3    H122786   6.675   1.993  15.888  1.5296 -0.2809 -1.2117
  457TIP3    H222787   6.679   1.902  16.009 -1.2392  1.0268 -0.0923
  458TIP3   OH222788   3.159   5.084   1.218  0.4564 -0.4357 -0.1830
  458TIP3    H122789   3.146   5.006   1.165  0.3118 -1.1876  0.9535
  458TIP3    H222790   3.074   5.101   1.257  0.4868  0.2959 -0.4287
  459TIP3   OH222791   5.328   6.559  11.531  0.1231  0.1888  1.1217
  459TIP3    H122792   5.253   6.506  11.505  1.0436 -1.5070  1.8036
  459TIP3    H222793   5.377   6.573  11.449 -0.1446  0.0120  0.9313
  460TIP3   OH222794   3.802   1.054  16.773  0.4938  0.1496  0.1809
  460TIP3    H122795   3.810   1.045  16.868  1.2268  0.6369  0.1674
  460TIP3    H222796   3.890   1.077  16.743  0.1391  0.5976 -0.5456
  461TIP3   OH222797   6.062   2.799  15.270 -0.2401 -0.5865  0.4328
  461TIP3    H122798   6.149   2.808  15.230 -0.8034  2.9470 -0.1181
  461TIP3    H222799   6.010   2.755  15.203  0.8395 -1.9058  0.4207
  462TIP3   OH222800   5.951   5.556  12.290  0.3563  0.0943  0.1259
  462TIP3    H122801   5.931   5.629  12.232 -0.0063  0.3131  0.5239
  462TIP3    H222802   6.001   5.495  12.236  0.0755  0.3269 -0.3954
  463TIP3   OH222803   5.268   3.673  16.594 -0.5001 -0.4996  0.0965
  463TIP3    H122804   5.344   3.716  16.634  0.2342 -0.9563 -0.7827
  463TIP3    H222805   5.305   3.597  16.549 -1.2392  0.3277 -1.9479
  464TIP3   OH222806   3.356   5.762   3.190  0.0854  0.1629 -0.4771
  464TIP3    H122807   3.287   5.827   3.199 -1.1548 -1.5126  2.8870
  464TIP3    H222808   3.435   5.805   3.223 -0.1068  0.8328 -0.8797
  465TIP3   OH222809   0.024   6.404  12.847 -0.0616  0.2065 -0.4387
  465TIP3    H122810   0.034   6.344  12.773  1.6628  0.2210 -0.2270
  465TIP3    H222811   0.032   6.348  12.924  2.6197  0.8350 -0.2240
  466TIP3   OH222812   2.972   4.089   2.931 -0.2517 -0.5827 -0.1526
  466TIP3    H122813   3.038   4.023   2.913  0.5057 -0.5604  2.3172
  466TIP3    H222814   2.901   4.042   2.974 -1.1680 -0.3311 -1.3560
  467TIP3   OH222815   4.342   2.519  14.582  0.0111  0.1499 -0.1950
  467TIP3    H122816   4.365   2.554  14.495  1.9609 -1.9290 -0.5878
  467TIP3    H222817   4.379   2.583  14.643 -0.5587  1.1538 -0.8658
  468TIP3   OH222818   2.378   6.100   2.136  0.0744  0.1050  0.0484
  468TIP3    H122819   2.336   6.114   2.052  0.2769 -0.5823 -0.1737
  468TIP3    H222820   2.440   6.029   2.120 -0.8377 -0.9523  1.0817
  469TIP3   OH222821   1.608   3.828   0.258  0.0914  0.3115 -0.0353
  469TIP3    H122822   1.675   3.892   0.283  0.5786  0.0453 -0.6303
  469TIP3    H222823   1.532   3.882   0.234  0.8601  0.7326 -1.5999
  470TIP3   OH222824   0.964   2.221   3.881 -0.1676  0.1130 -0.1836
  470TIP3    H122825   0.906   2.294   3.902 -0.6242 -0.8070  1.8910
  470TIP3    H222826   1.039   2.233   3.939 -0.6509 -1.5104  0.8354
  471TIP3   OH222827   3.918   4.415   5.331  0.1562 -0.1751  0.1533
  471TIP3    H122828   3.962   4.498   5.348 -1.3800  0.1297  2.7444
  471TIP3    H222829   3.942   4.359   5.405 -0.4427 -1.3891 -0.5485
  472TIP3   OH222830   0.728   1.820   2.704  0.5346  0.3237  0.1551
  472TIP3    H122831   0.683   1.828   2.619 -1.1779  0.1876  1.0255
  472TIP3    H222832   0.798   1.757   2.687 -1.3066 -1.6197 -0.6140
  473TIP3   OH222833   3.554   1.909  15.674  0.0603 -0.0140  0.1157
  473TIP3    H122834   3.643   1.888  15.647  0.5320 -1.1374  2.4250
  473TIP3    H222835   3.498   1.866  15.608  1.1913  0.3366 -1.0904
  474TIP3   OH222836   6.717   3.439  15.321 -0.1398 -0.1878 -0.0809
  474TIP3    H122837   6.731   3.345  15.329 -1.0842 -0.3363 -0.0624
  474TIP3    H222838   6.704   3.453  15.227 -0.5677 -0.1623 -0.0194
  475TIP3   OH222839   3.788   2.852   0.277 -0.0115  0.1597 -0.2262
  475TIP3    H122840   3.716   2.890   0.227  0.0832 -0.7360 -1.0534
  475TIP3    H222841   3.866   2.873   0.227  0.0742 -0.8459 -0.5276
  476TIP3   OH222842   3.183   1.921  14.095 -0.2535  0.5163 -0.1816
  476TIP3    H122843   3.099   1.967  14.096 -0.5677 -0.0685  0.4344
  476TIP3    H222844   3.161   1.830  14.073  0.0514  0.0506  1.3628
  477TIP3   OH222845   1.293   2.444   0.728  0.0503  0.2990 -0.0323
  477TIP3    H122846   1.272   2.413   0.816 -2.9978  2.3790  0.0566
  477TIP3    H222847   1.345   2.523   0.743  2.0776 -0.9611 -0.1902
  478TIP3   OH222848   3.628   0.660   0.546 -0.1934  0.5410  0.2013
  478TIP3    H122849   3.549   0.693   0.588 -0.5657 -1.6195  1.2820
  478TIP3    H222850   3.617   0.679   0.453 -2.0719  0.1136  0.3218
  479TIP3   OH222851   5.660   2.616   0.811  0.3354 -0.0649 -0.4107
  479TIP3    H122852   5.736   2.624   0.753 -0.0410  1.4246 -0.7054
  479TIP3    H222853   5.590   2.586   0.754  0.0298  1.1540 -0.6839
  480TIP3   OH222854   5.464   1.580  11.886  0.4134 -0.1064 -0.2328
  480TIP3    H122855   5.442   1.615  11.799  0.3128  1.1424  0.2816
  480TIP3    H222856   5.380   1.552  11.922  0.5762 -1.4940 -0.8979
  481TIP3   OH222857   2.989   0.508   3.922 -0.4643 -0.1996 -0.3623
  481TIP3    H122858   3.040   0.574   3.970 -1.3986 -0.3431  0.8497
  481TIP3    H222859   2.898   0.529   3.942 -0.7872 -1.5481 -0.3944
  482TIP3   OH222860   3.340   6.572  12.472  0.1944  0.5728 -0.9422
  482TIP3    H122861   3.426   6.534  12.455  0.4700 -0.1372  1.9102
  482TIP3    H222862   3.289   6.501  12.508 -0.5863  1.8322  0.4560
  483TIP3   OH222863   0.589   5.508   0.510 -0.1162 -0.6690 -0.0380
  483TIP3    H122864   0.570   5.489   0.601 -1.4532 -1.0809 -0.3973
  483TIP3    H222865   0.680   5.539   0.510 -0.3504  0.0561  1.5235
  484TIP3   OH222866   1.320   1.205  13.801  0.2537 -0.3676  0.5278
  484TIP3    H122867   1.391   1.266  13.784  0.2789 -0.0704  1.6483
  484TIP3    H222868   1.271   1.245  13.873 -0.7878 -0.7884  0.0713
  485TIP3   OH222869   5.228   5.403  10.515 -0.5100 -0.0249  0.0402
  485TIP3    H122870   5.324   5.407  10.511 -0.4405 -0.9245  0.6016
  485TIP3    H222871   5.210   5.326  10.568 -1.5452  0.7142  0.7843
  486TIP3   OH222872   5.409   3.765  15.022  0.2718 -0.4213  0.4640
  486TIP3    H122873   5.354   3.760  15.100  0.7280  0.6686  0.8583
  486TIP3    H222874   5.359   3.720  14.954 -1.2689  0.8775  0.7176
  487TIP3   OH222875   0.769   2.089   1.423  0.2142  0.2542  0.2832
  487TIP3    H122876   0.792   2.142   1.499  1.1113  0.0202  0.1774
  487TIP3    H222877   0.675   2.075   1.431  0.6239 -1.5169  2.4591
  488TIP3   OH222878   4.316   2.481  13.713 -0.2938  0.3356  0.0552
  488TIP3    H122879   4.351   2.520  13.793  1.8468  0.9764 -1.1659
  488TIP3    H222880   4.247   2.541  13.685  1.1544  1.8266 -0.3392
  489TIP3   OH222881   4.533   0.272  15.942 -0.1301 -0.6827 -0.1763
  489TIP3    H122882   4.445   0.308  15.945 -0.5156 -1.7484  2.3203
  489TIP3    H222883   4.534   0.204  16.009  2.9613  0.1864  0.7715
  490TIP3   OH222884   6.686   4.804   0.431  0.5112  0.1263 -0.6746
  490TIP3    H122885   6.595   4.808   0.463  0.6037  0.6834 -0.4635
  490TIP3    H222886   6.695   4.716   0.395 -0.0424 -0.0163 -0.4771
  491TIP3   OH222887   0.271   2.334  13.093 -0.2496  0.1121 -0.0265
  491TIP3    H122888   0.330   2.264  13.121 -1.2626 -0.6639  0.2320
  491TIP3    H222889   0.207   2.289  13.037  0.2676  1.1988 -1.4941
  492TIP3   OH222890   5.412   2.509   4.706  0.1995  0.1585  0.8353
  492TIP3    H122891   5.332   2.477   4.664  0.9032 -0.5948  0.0431
  492TIP3    H222892   5.439   2.584   4.653  0.3208  0.0690  0.7692
  493TIP3   OH222893   5.462   2.197   1.148 -0.2580 -0.5935 -0.7363
  493TIP3    H122894   5.393   2.145   1.191 -0.3977  1.6777  1.9303
  493TIP3    H222895   5.543   2.167   1.188 -0.1344 -0.2525 -0.7289
  494TIP3   OH222896   5.291   3.690  10.804 -0.0927  0.4991 -0.0064
  494TIP3    H122897   5.199   3.666  10.791 -0.4515  1.1011  1.3768
  494TIP3    H222898   5.309   3.753  10.734 -0.4399 -0.3585 -0.8864
  495TIP3   OH222899   4.957   4.244   5.338  0.2988  0.1301 -0.6226
  495TIP3    H122900   4.876   4.200   5.363  1.2484 -1.4769 -0.3003
  495TIP3    H222901   4.971   4.217   5.247  0.1705  0.8672 -0.8607
  496TIP3   OH222902   0.456   1.045  15.324 -0.5259 -0.1157  0.3125
  496TIP3    H122903   0.414   1.071  15.242  2.7137  1.3978 -0.9519
  496TIP3    H222904   0.419   1.104  15.390 -0.2651  1.3358 -0.8102
  497TIP3   OH222905   2.075   0.223  12.486 -0.0786  0.2023  0.0455
  497TIP3    H122906   2.000   0.189  12.536 -1.3041  1.2741 -1.0394
  497TIP3    H222907   2.070   0.178  12.402  0.2417  0.5946 -0.1868
  498TIP3   OH222908   3.013   0.415   5.438  0.0382 -0.0019 -0.4768
  498TIP3    H122909   2.989   0.361   5.362  1.1493 -0.2670 -0.6440
  498TIP3    H222910   3.062   0.488   5.401 -0.6393  0.6279 -0.1461
  499TIP3   OH222911   2.754   0.753  12.279  0.5676 -0.4307 -0.2032
  499TIP3    H122912   2.797   0.771  12.196  0.1053 -0.4545 -0.4531
  499TIP3    H222913   2.779   0.826  12.335 -1.1141  0.9237 -1.1442
  500TIP3   OH222914   4.043   2.267  10.714  0.5321 -0.2397 -0.1297
  500TIP3    H122915   3.955   2.233  10.729  0.1423  0.0926 -1.5753
  500TIP3    H222916   4.033   2.362  10.718  0.8124 -0.1980 -0.3911
  501TIP3   OH222917   3.988   3.917  11.212  0.2491  0.2374 -0.0791
  501TIP3    H122918   3.944   4.000  11.193  1.2751  0.5854 -1.0603
  501TIP3    H222919   4.047   3.937  11.284 -0.8716 -0.1264  0.9564
  502TIP3   OH222920   0.839   4.636   3.701 -0.7185  0.5737  0.2255
  502TIP3    H122921   0.751   4.668   3.720 -0.6270 -1.1021  3.8678
  502TIP3    H222922   0.891   4.659   3.778  1.7585  0.4353 -1.3313
  503TIP3   OH222923   2.846   6.480   2.578  0.3616 -0.7447  0.3639
  503TIP3    H122924   2.871   6.571   2.557 -1.0059  0.1736  2.5802
  503TIP3    H222925   2.928   6.438   2.602  0.9652 -0.0185 -0.3890
  504TIP3   OH222926   0.616   3.652   3.545  0.2284 -0.7937  0.5896
  504TIP3    H122927   0.660   3.735   3.527  1.5544 -2.1396 -2.7036
  504TIP3    H222928   0.583   3.661   3.635 -0.0183  3.4181  0.1564
  505TIP3   OH222929   1.669   2.963  16.640 -0.1800  0.3205  0.1272
  505TIP3    H122930   1.634   3.040  16.596 -1.7379 -0.5989 -0.2629
  505TIP3    H222931   1.603   2.895  16.628  1.5891 -1.3758 -0.3777
  506TIP3   OH222932   1.126   4.701   3.860 -0.6713  0.3718  0.4002
  506TIP3    H122933   1.116   4.625   3.917 -0.4753  0.0719  0.0415
  506TIP3    H222934   1.152   4.772   3.918  0.4006 -0.1424  0.5694
  507TIP3   OH222935   2.881   5.406   2.468  0.1090 -0.1402 -0.1786
  507TIP3    H122936   2.840   5.348   2.532 -1.6155  0.4611 -0.7008
  507TIP3    H222937   2.836   5.490   2.479  1.0510  0.4775 -0.9389
  508TIP3   OH222938   0.886   2.996   1.591  0.0692 -0.2137 -0.1718
  508TIP3    H122939   0.934   2.932   1.539  1.6797  0.1548  0.8386
  508TIP3    H222940   0.803   3.007   1.545 -0.3133 -3.1729 -0.2377
  509TIP3   OH222941   6.256   4.516   4.133 -0.8243 -0.0660 -0.1125
  509TIP3    H122942   6.327   4.572   4.101  0.6692 -0.1163  2.9756
  509TIP3    H222943   6.178   4.571   4.128 -0.3510  0.4683 -2.1528
  510TIP3   OH222944   5.728   1.912   2.237 -0.0692  0.2633  0.6427
  510TIP3    H122945   5.768   1.915   2.150  0.9202  2.5836  1.1292
  510TIP3    H222946   5.763   1.833   2.277  3.2508  1.6587  0.6406
  511TIP3   OH222947   3.224   1.557   5.916 -0.2108  0.2384 -0.4533
  511TIP3    H122948   3.134   1.590   5.919 -0.2579  0.0734 -0.1477
  511TIP3    H222949   3.217   1.464   5.936  0.1014  0.3578  0.2279
  512TIP3   OH222950   1.080   0.302   6.167 -0.2032  0.5349  0.3895
  512TIP3    H122951   1.019   0.241   6.209  0.4088 -0.7459 -0.5234
  512TIP3    H222952   1.166   0.275   6.198  0.0398  1.2007  0.2956
  513TIP3   OH222953   6.191   5.610   6.430  0.1751  0.5262 -0.7833
  513TIP3    H122954   6.099   5.624   6.407  0.0324  0.5344 -0.2074
  513TIP3    H222955   6.239   5.675   6.379 -0.1728  0.7760 -0.7891
  514TIP3   OH222956   0.569   3.505  10.898 -0.5201  0.2627  0.7705
  514TIP3    H122957   0.659   3.535  10.881 -0.7539  0.7996  0.4875
  514TIP3    H222958   0.528   3.577  10.944 -1.0658  0.3534  0.1508
  515TIP3   OH222959   4.817   0.374   5.301  0.1736  0.0621  0.0992
  515TIP3    H122960   4.900   0.396   5.259 -0.6116  0.8126 -1.0853
  515TIP3    H222961   4.763   0.452   5.290 -0.8478 -0.5886  0.4591
  516TIP3   OH222962   4.969   2.628   5.196  0.3891  0.6585  0.0489
  516TIP3    H122963   4.907   2.564   5.163 -0.5775  1.1735  0.8386
  516TIP3    H222964   4.978   2.607   5.289 -0.1340  1.8119  0.3728
  517TIP3   OH222965   3.499   2.881   5.353  0.3511 -0.2668  0.0737
  517TIP3    H122966   3.478   2.950   5.290  0.8916 -0.6948 -0.5879
  517TIP3    H222967   3.513   2.803   5.300  1.2433 -0.5355  0.6862
  518TIP3   OH222968   4.767   2.915   4.294 -0.3788  0.0042  0.2941
  518TIP3    H122969   4.821   2.963   4.230  0.0238  0.0163  0.6418
  518TIP3    H222970   4.762   2.973   4.370 -2.1224  0.6557 -0.2768
  519TIP3   OH222971   0.214   1.712  14.010 -0.0960  0.2304  0.8645
  519TIP3    H122972   0.153   1.642  14.033  0.6464 -0.2497  1.3690
  519TIP3    H222973   0.219   1.766  14.089  0.6250 -0.0934  1.0430
  520TIP3   OH222974   6.530   3.017  15.716  0.1091 -0.0321 -0.1620
  520TIP3    H122975   6.446   3.032  15.671  0.1664 -1.7503 -0.9030
  520TIP3    H222976   6.596   3.027  15.647  0.4552  0.6004  0.2627
  521TIP3   OH222977   1.491   3.303  12.606  0.2407  0.1620 -0.7035
  521TIP3    H122978   1.474   3.217  12.567 -2.7005  0.4523 -0.2078
  521TIP3    H222979   1.458   3.365  12.541  2.1337  0.9330 -0.9541
  522TIP3   OH222980   1.913   4.082   3.876 -0.1451  0.5049  0.3930
  522TIP3    H122981   1.944   4.117   3.792 -1.0900 -0.0467 -0.1912
  522TIP3    H222982   1.938   4.149   3.940  0.9641  0.7320 -0.2634
  523TIP3   OH222983   2.044   1.729  16.430 -0.0013 -0.0225  0.5392
  523TIP3    H122984   2.094   1.664  16.480 -1.3000 -0.7158  0.9426
  523TIP3    H222985   2.023   1.685  16.348 -3.2528 -1.1464  1.9015
  524TIP3   OH222986   0.953   2.321  16.849  0.4185  0.6651 -0.0635
  524TIP3    H122987   1.011   2.245  16.853  1.0358  0.9264 -3.1185
  524TIP3    H222988   1.009   2.395  16.872  0.5591  0.5818 -0.1430
  525TIP3   OH222989   4.541   3.439   3.756  0.2146  0.4966 -0.4735
  525TIP3    H122990   4.558   3.516   3.703  3.1482  0.3117  0.0962
  525TIP3    H222991   4.573   3.366   3.704  1.2882  0.1153  0.6756
  526TIP3   OH222992   0.797   4.084  12.524  0.0234 -0.1370  0.4726
  526TIP3    H122993   0.761   4.115  12.441  0.3054 -1.5088 -0.1737
  526TIP3    H222994   0.825   4.164  12.569  2.4466  0.4385 -1.9239
  527TIP3   OH222995   3.064   2.677   6.392  0.1932  0.3294  0.1450
  527TIP3    H122996   3.110   2.647   6.313 -0.8206  1.0181 -0.7302
  527TIP3    H222997   3.054   2.598   6.445  2.2878  0.1593  0.3140
  528TIP3   OH222998   5.536   5.881   2.610 -0.4088 -0.6536 -0.2742
  528TIP3    H122999   5.618   5.890   2.658 -1.8234  0.3670  2.0313
  528TIP3    H223000   5.550   5.806   2.553  2.1141 -0.5083  0.0771
  529TIP3   OH223001   6.659   4.028  13.969 -0.3370  0.2228  0.1863
  529TIP3    H123002   6.716   4.069  14.034 -1.3079  2.0611 -0.0853
  529TIP3    H223003   6.601   3.971  14.019  1.0006 -0.7881  0.5859
  530TIP3   OH223004   2.225   5.251   6.456  0.1232  0.0603  0.4676
  530TIP3    H123005   2.233   5.182   6.391 -2.2324 -0.1813  0.3931
  530TIP3    H223006   2.230   5.205   6.540  0.3495  0.0355  0.4422
  531TIP3   OH223007   0.449   6.269   2.697 -0.2228 -0.2325  0.0828
  531TIP3    H123008   0.497   6.346   2.667 -0.4121 -0.2423 -0.2451
  531TIP3    H223009   0.450   6.210   2.621  2.4846 -1.7815  1.2284
  532TIP3   OH223010   1.939   5.113  15.242  0.1540  0.1459 -0.8498
  532TIP3    H123011   1.864   5.166  15.216  0.3456  0.4045 -0.8773
  532TIP3    H223012   1.914   5.074  15.325  0.4258  1.1150 -0.3057
  533TIP3   OH223013   5.266   6.167   3.888  0.0100 -0.3547  0.4317
  533TIP3    H123014   5.293   6.090   3.937 -1.4616 -0.4819  1.0952
  533TIP3    H223015   5.200   6.135   3.826 -0.3481  0.2927  0.4664
  534TIP3   OH223016   2.742   4.140  13.944  0.4827 -0.2197 -0.3140
  534TIP3    H123017   2.658   4.101  13.921  0.9554 -1.7623  0.4523
  534TIP3    H223018   2.723   4.231  13.965 -0.9989 -0.5931 -0.0383
  535TIP3   OH223019   1.019   3.387   2.562  0.4555  0.0508  0.4602
  535TIP3    H123020   1.035   3.434   2.644 -1.1561  0.3772  0.6101
  535TIP3    H223021   1.104   3.385   2.518  0.7452  2.3668  0.8547
  536TIP3   OH223022   5.508   1.590  14.931  0.3993 -0.5831  0.0473
  536TIP3    H123023   5.565   1.654  14.974  0.9549 -2.0188  1.4961
  536TIP3    H223024   5.569   1.527  14.890 -0.1314 -1.5905  0.7867
  537TIP3   OH223025   0.039   6.448   4.976  0.1409  0.1850 -0.1261
  537TIP3    H123026  -0.026   6.477   5.040  0.3793  1.1197 -0.3057
  537TIP3    H223027   0.045   6.520   4.913  0.9127 -0.1466 -0.4410
  538TIP3   OH223028   3.151   6.288   5.758 -0.2151  0.8554 -0.2374
  538TIP3    H123029   3.131   6.353   5.826 -2.4982  0.0093 -0.0745
  538TIP3    H223030   3.100   6.316   5.682 -0.8854 -0.5242 -0.2987
  539TIP3   OH223031   1.024   1.601  11.702  0.6027  0.0476 -0.0603
  539TIP3    H123032   1.013   1.692  11.674 -0.4075 -0.4586 -1.3227
  539TIP3    H223033   0.955   1.553  11.656  1.3201 -1.4039  0.3626
  540TIP3   OH223034   1.944   2.047   1.661  0.5786  0.7588  0.1377
  540TIP3    H123035   1.862   2.036   1.710 -1.1072  0.2138 -2.6940
  540TIP3    H223036   1.955   2.142   1.655  1.5967  0.8329  2.8130
  541TIP3   OH223037   3.640   0.923   5.023 -0.3761 -0.4518 -0.1564
  541TIP3    H123038   3.625   0.875   5.105 -0.0085  0.6914  0.5930
  541TIP3    H223039   3.558   0.915   4.975  0.1740 -3.1284 -0.7284
  542TIP3   OH223040   0.070   5.273   1.080 -0.3222  0.5130 -0.6264
  542TIP3    H123041  -0.012   5.277   1.030 -0.3593  1.2017 -0.5143
  542TIP3    H223042   0.139   5.286   1.014 -0.2368 -1.2653 -0.9080
  543TIP3   OH223043   5.690   6.497  13.401  0.3653  0.4241  0.2268
  543TIP3    H123044   5.674   6.403  13.411 -0.0004  0.5232  0.5917
  543TIP3    H223045   5.620   6.539  13.451  1.3312  0.8848  1.2153
  544TIP3   OH223046   3.128   4.856   1.062 -0.1173  0.0731  0.4250
  544TIP3    H123047   3.169   4.782   1.016 -0.6366  0.0472  0.0010
  544TIP3    H223048   3.119   4.924   0.995 -0.6116  0.1381  0.5585
  545TIP3   OH223049   4.834   4.418  14.537 -0.2774 -0.7557  0.2014
  545TIP3    H123050   4.827   4.512  14.524  1.8874 -0.5985  0.0106
  545TIP3    H223051   4.822   4.406  14.632  0.7743 -0.1484  0.4128
  546TIP3   OH223052   5.442   6.642   3.941 -0.4200  0.4163  0.0157
  546TIP3    H123053   5.430   6.557   3.898  1.8097  0.1964 -0.2490
  546TIP3    H223054   5.505   6.687   3.885  0.2216  1.3075  1.4422
  547TIP3   OH223055   3.134   6.033  16.661  0.7418 -0.3123 -0.7394
  547TIP3    H123056   3.185   6.080  16.595 -1.8152  2.9268 -0.5269
  547TIP3    H223057   3.191   6.033  16.739  1.5933  0.6382 -1.3553
  548TIP3   OH223058   2.921   6.152  16.339  0.3604  0.6131  0.3430
  548TIP3    H123059   2.982   6.107  16.398  1.8271 -0.6288 -2.0189
  548TIP3    H223060   2.834   6.129  16.372  1.1450 -0.4501  1.7344
  549TIP3   OH223061   3.658   2.779  14.233  0.4282 -0.1064  0.2516
  549TIP3    H123062   3.727   2.798  14.170 -0.2461  0.3688 -0.3501
  549TIP3    H223063   3.669   2.686  14.254 -0.5913 -0.7676 -2.0891
  550TIP3   OH223064   4.836   0.622  16.997 -0.4556 -0.7285 -0.3406
  550TIP3    H123065   4.903   0.673  16.953 -1.4856  0.7930 -0.1696
  550TIP3    H223066   4.869   0.612  17.087 -0.3583 -0.1687 -0.3145
  551TIP3   OH223067   2.382   4.545   3.601  0.1724 -0.2747 -0.6219
  551TIP3    H123068   2.400   4.639   3.593 -1.4587  0.1569  0.6406
  551TIP3    H223069   2.451   4.513   3.659  0.4713  0.2361 -0.6895
  552TIP3   OH223070   0.659   1.478  12.556  0.0162  0.5273 -0.0353
  552TIP3    H123071   0.623   1.396  12.589  2.1310 -0.8802 -1.1763
  552TIP3    H223072   0.664   1.534  12.634  1.3128 -1.4332  1.3422
  553TIP3   OH223073   4.732   5.991   1.386 -0.3159  0.2891 -0.3242
  553TIP3    H123074   4.664   5.943   1.433 -0.6214  1.7612  0.7735
  553TIP3    H223075   4.811   5.980   1.440 -0.4160  1.1156 -0.0074
  554TIP3   OH223076   1.633   6.043  12.265 -0.0908 -0.3333 -0.4366
  554TIP3    H123077   1.554   6.078  12.307  0.4516  0.0976  0.2314
  554TIP3    H223078   1.644   5.956  12.303  0.3784  0.0416  0.2969
  555TIP3   OH223079   2.860   1.329  14.589  0.3525  0.7404  0.6519
  555TIP3    H123080   2.909   1.398  14.634  0.1178  1.4828 -0.2446
  555TIP3    H223081   2.919   1.297  14.521 -0.2090  1.2645 -0.0792
  556TIP3   OH223082   2.068   6.680   0.710 -0.0437 -0.0620 -0.0494
  556TIP3    H123083   2.056   6.624   0.787 -1.2083 -0.6754 -0.6585
  556TIP3    H223084   2.050   6.623   0.636 -0.3725  0.8963 -0.7160
  557TIP3   OH223085   1.940   1.035   6.294 -0.3237  0.3887 -0.1768
  557TIP3    H123086   2.010   0.969   6.294  0.1036  0.8414 -0.2497
  557TIP3    H223087   1.968   1.100   6.358 -0.1850  1.0928 -0.9491
  558TIP3   OH223088   2.108   1.506   4.638 -0.3871 -0.1383 -0.2092
  558TIP3    H123089   2.076   1.596   4.625  1.3521  0.2687 -1.9271
  558TIP3    H223090   2.187   1.517   4.690 -0.5782 -0.7553  0.2108
  559TIP3   OH223091   2.583   0.557  13.729  0.0323 -0.1629 -0.0274
  559TIP3    H123092   2.662   0.508  13.750  1.4949  2.7604  1.6162
  559TIP3    H223093   2.613   0.648  13.717 -2.9621  0.8832 -0.0322
  560TIP3   OH223094   0.568   2.761  14.852  0.0095  0.5071  0.2110
  560TIP3    H123095   0.519   2.747  14.934  1.9791 -1.2465  1.1209
  560TIP3    H223096   0.631   2.830  14.873 -0.7115  1.3543 -0.3808
  561TIP3   OH223097   3.130   3.530  10.821 -0.0796 -0.2658 -0.1083
  561TIP3    H123098   3.121   3.617  10.780 -1.9962 -0.7530 -0.7540
  561TIP3    H223099   3.225   3.515  10.823  0.1896  0.9411 -1.9411
  562TIP3   OH223100   3.679   4.118  12.300 -0.4077 -0.0575  0.0153
  562TIP3    H123101   3.636   4.203  12.290  0.2274  0.0794 -1.8529
  562TIP3    H223102   3.661   4.072  12.218  0.9316 -0.9339  0.1881
  563TIP3   OH223103   5.247   1.033  13.462  0.4538 -0.4307  0.1392
  563TIP3    H123104   5.250   1.079  13.546  1.7791  5.0087 -2.6697
  563TIP3    H223105   5.161   0.990  13.462 -1.0638  2.4053  2.8103
  564TIP3   OH223106   5.505   3.512  14.543  0.4394  0.1162 -1.0874
  564TIP3    H123107   5.504   3.428  14.590 -0.0139  0.7836  0.1311
  564TIP3    H223108   5.563   3.497  14.469  0.9920 -1.0427 -0.4428
  565TIP3   OH223109   5.364   3.732  16.988 -0.1899  0.0209 -0.3884
  565TIP3    H123110   5.428   3.802  17.003 -1.0645  0.5346  0.9856
  565TIP3    H223111   5.290   3.754  17.044 -3.1063  1.3606 -4.5094
  566TIP3   OH223112   4.677   2.496   0.864  0.4100 -0.0423  0.8419
  566TIP3    H123113   4.604   2.438   0.885  0.2745 -0.0861  0.2713
  566TIP3    H223114   4.751   2.460   0.912  0.2447 -0.4857  0.7697
  567TIP3   OH223115   1.843   6.316   2.613  0.1327  0.2259 -0.5654
  567TIP3    H123116   1.802   6.279   2.535  0.7974  2.9876 -2.2677
  567TIP3    H223117   1.868   6.405   2.588  1.6917  0.6683  2.3342
  568TIP3   OH223118   0.956   3.402   5.949  0.3220 -0.7648 -0.2731
  568TIP3    H123119   1.032   3.438   5.994 -0.1043 -1.1660  0.7768
  568TIP3    H223120   0.952   3.311   5.977 -1.0651 -0.5105  0.3762
  569TIP3   OH223121   6.550   3.080  14.166 -0.3293  0.2020  0.2049
  569TIP3    H123122   6.640   3.048  14.159 -0.6262 -1.0732  2.0640
  569TIP3    H223123   6.558   3.176  14.159  1.1340  0.0910  0.2287
  570TIP3   OH223124   5.047   5.780  13.434 -0.0334  0.1697 -0.2294
  570TIP3    H123125   4.964   5.828  13.440 -0.5085 -0.6953  0.2628
  570TIP3    H223126   5.115   5.847  13.437 -0.7658  1.0655 -2.7734
  571TIP3   OH223127   1.800   5.621  12.149  0.1766 -0.0737  0.2590
  571TIP3    H123128   1.714   5.660  12.164 -0.8583 -2.4607  0.8172
  571TIP3    H223129   1.849   5.688  12.102 -1.8668  1.4701  0.2562
  572TIP3   OH223130   6.220   2.957   2.347 -0.3073  0.4688 -0.1012
  572TIP3    H123131   6.233   3.043   2.387 -1.0698 -0.6476  2.6331
  572TIP3    H223132   6.196   2.976   2.256 -1.2595  3.1692  0.6740
  573TIP3   OH223133   0.530   5.238   1.138 -0.4373  0.1371  0.4624
  573TIP3    H123134   0.516   5.256   1.231  0.1181  0.7939  0.4161
  573TIP3    H223135   0.625   5.233   1.129 -0.5454 -3.1004  0.5430
  574TIP3   OH223136   6.724   5.381   4.460  0.3600  0.0231  0.0814
  574TIP3    H123137   6.756   5.469   4.479  2.1444 -0.4639 -0.4771
  574TIP3    H223138   6.689   5.349   4.542  1.6389  0.4839  0.8210
  575TIP3   OH223139   6.097   3.520   2.432 -0.2632  0.2185  0.1611
  575TIP3    H123140   6.065   3.474   2.354 -0.8006  0.2369  0.3659
  575TIP3    H223141   6.032   3.589   2.447 -0.4535 -0.1120  0.9284
  576TIP3   OH223142   4.715   6.152  16.384 -0.1362 -0.0026 -0.8308
  576TIP3    H123143   4.689   6.062  16.404  0.5558 -0.3038 -1.2340
  576TIP3    H223144   4.771   6.177  16.458 -0.4399  0.1409 -0.6512
  577TIP3   OH223145   4.775   2.716  12.281 -0.3338  0.5650 -0.1331
  577TIP3    H123146   4.727   2.797  12.293 -1.5350 -0.2966  1.0001
  577TIP3    H223147   4.755   2.664  12.359  0.6598 -0.6928 -0.6915
  578TIP3   OH223148   1.265   5.704  12.734  0.7703 -0.7179 -0.1447
  578TIP3    H123149   1.301   5.756  12.662  1.4158 -1.8404 -0.6454
  578TIP3    H223150   1.275   5.760  12.811 -1.7649  1.3156 -1.2124
  579TIP3   OH223151   1.016   0.713   3.765  0.1346  1.1087 -0.1964
  579TIP3    H123152   1.071   0.771   3.817 -3.7253  2.1949  2.9224
  579TIP3    H223153   0.985   0.647   3.827 -1.5115  0.1338 -1.9948
  580TIP3   OH223154   4.971   4.240  15.153  0.0680  0.0938  0.0409
  580TIP3    H123155   5.034   4.297  15.108  1.9236 -0.2379  2.0893
  580TIP3    H223156   4.955   4.168  15.092  1.2650  0.4917 -0.7585
  581TIP3   OH223157   4.265   4.237   5.232  0.0413 -0.6689  0.3315
  581TIP3    H123158   4.255   4.217   5.139  0.8430 -0.2341  0.1448
  581TIP3    H223159   4.240   4.330   5.239 -2.0147 -1.2324  0.9022
  582TIP3   OH223160   6.206   4.166  16.875  0.0830  0.3062 -0.0016
  582TIP3    H123161   6.273   4.231  16.854  1.1501 -0.7569  0.0900
  582TIP3    H223162   6.226   4.091  16.818 -1.7968  0.4695 -0.9305
  583TIP3   OH223163   0.389   4.504  14.716 -0.5474  0.4173 -0.4207
  583TIP3    H123164   0.462   4.564  14.729  0.7716 -0.9913 -1.1407
  583TIP3    H223165   0.360   4.520  14.626  1.2297 -1.5096 -1.3737
  584TIP3   OH223166   5.918   4.162  11.928  0.1473 -0.0555 -0.4253
  584TIP3    H123167   5.860   4.235  11.952  0.4861  0.0840 -0.0421
  584TIP3    H223168   5.862   4.085  11.935  0.8665 -0.3277  3.2367
  585TIP3   OH223169   2.433   1.866   1.409 -0.5642  0.0882  0.0200
  585TIP3    H123170   2.457   1.870   1.502  2.6596  2.4672 -0.8287
  585TIP3    H223171   2.410   1.956   1.386 -1.3216 -0.4761 -1.5170
  586TIP3   OH223172   5.841   4.130  12.507 -0.6633  0.3394  0.1633
  586TIP3    H123173   5.769   4.071  12.483 -1.2280  1.3182 -0.5700
  586TIP3    H223174   5.799   4.202  12.554 -0.1907  0.9945 -0.4027
  587TIP3   OH223175   3.944   1.617  14.578 -0.1629  0.8234 -0.7832
  587TIP3    H123176   3.985   1.664  14.504  1.4407  1.4350  0.4604
  587TIP3    H223177   3.953   1.525  14.555 -0.5472  1.0273 -1.8066
  588TIP3   OH223178   6.133   4.728  14.152  0.3166 -0.2060  0.1417
  588TIP3    H123179   6.157   4.705  14.063  0.8889  0.7540  0.0345
  588TIP3    H223180   6.207   4.698  14.206 -0.8032 -2.3535  0.5208
  589TIP3   OH223181   4.821   2.776  12.005  0.0262 -0.7121  0.3058
  589TIP3    H123182   4.809   2.731  12.089  0.6722  0.8138  1.2439
  589TIP3    H223183   4.828   2.869  12.029 -1.0103 -0.1339 -1.5483
  590TIP3   OH223184   2.776   1.993  17.081 -0.5606  0.2677 -0.0958
  590TIP3    H123185   2.849   2.051  17.102  0.5854 -1.1778  0.0521
  590TIP3    H223186   2.787   1.973  16.988 -0.5056 -0.2924  0.0265
  591TIP3   OH223187   4.760   0.463  10.806 -0.0145 -0.2592  0.2677
  591TIP3    H123188   4.678   0.414  10.800 -0.5867  0.5978  0.9858
  591TIP3    H223189   4.823   0.408  10.760 -0.6985 -1.5456  0.8196
  592TIP3   OH223190   0.355   0.424  14.569  0.3553 -0.3051 -0.9205
  592TIP3    H123191   0.305   0.398  14.647 -3.1644 -0.1647 -3.0492
  592TIP3    H223192   0.387   0.341  14.533  0.3126 -0.5376 -0.4325
  593TIP3   OH223193   2.184   4.945   0.409  0.4517  0.5692  0.4686
  593TIP3    H123194   2.214   4.935   0.318 -1.8247  0.9352 -0.3559
  593TIP3    H223195   2.180   4.855   0.442  0.8037  0.3909  0.0424
  594TIP3   OH223196   0.069   3.052   2.643 -0.0252 -0.0022 -0.2488
  594TIP3    H123197   0.099   2.970   2.682  2.6583  0.9199 -0.2846
  594TIP3    H223198   0.024   3.025   2.563 -1.1002 -1.5534  0.8210
  595TIP3   OH223199   1.154   1.684  14.458  0.6521  0.5928  0.3484
  595TIP3    H123200   1.189   1.599  14.434  0.0938  0.1719  0.9907
  595TIP3    H223201   1.231   1.741  14.465  1.1270 -0.1012  0.8674
  596TIP3   OH223202   6.104   0.312   4.025  0.1595 -0.2736 -0.1206
  596TIP3    H123203   6.074   0.403   4.026  1.6136  0.2178 -0.4949
  596TIP3    H223204   6.116   0.290   4.117 -2.7745 -0.9680  0.1346
  597TIP3   OH223205   4.308   0.692  12.347  0.1393 -0.4402 -0.3566
  597TIP3    H123206   4.313   0.602  12.380  2.4256  0.8246  3.0768
  597TIP3    H223207   4.391   0.705  12.301 -0.2078 -0.1235 -0.8897
  598TIP3   OH223208   3.024   5.597  16.110 -0.6285 -0.5389  0.1600
  598TIP3    H123209   3.088   5.620  16.178  0.8187  0.2295 -1.4503
  598TIP3    H223210   2.959   5.543  16.157  0.7208 -0.6293  1.9962
  599TIP3   OH223211   2.890   4.519   0.275 -0.0453 -0.2170  0.0124
  599TIP3    H123212   2.867   4.560   0.191  2.3458 -0.2633 -0.7058
  599TIP3    H223213   2.955   4.578   0.313  0.0287 -0.9974  1.1012
  600TIP3   OH223214   2.594   5.415   3.083 -0.4212 -0.0453 -0.0094
  600TIP3    H123215   2.573   5.438   3.174 -0.3280  2.5741 -0.6171
  600TIP3    H223216   2.534   5.469   3.031  1.1169  0.1814 -1.5577
  601TIP3   OH223217   2.645   5.566   4.271 -0.5471 -0.6653 -0.3774
  601TIP3    H123218   2.677   5.569   4.181  1.9316 -0.4332  0.4674
  601TIP3    H223219   2.718   5.598   4.323 -2.3054  0.1835  1.6461
  602TIP3   OH223220   4.190   1.077  15.056  0.4535 -0.5962  0.2867
  602TIP3    H123221   4.152   0.989  15.056 -1.3391  0.1533 -0.4589
  602TIP3    H223222   4.225   1.087  14.967 -0.8048  0.0438 -0.1440
  603TIP3   OH223223   1.811   6.225  12.344  0.4237  0.3778 -0.0593
  603TIP3    H123224   1.737   6.169  12.317  0.4198 -0.6852  2.0969
  603TIP3    H223225   1.880   6.164  12.367  1.0107  1.3121  0.6868
  604TIP3   OH223226   4.851   2.187  13.317  0.4512 -0.2376 -0.0412
  604TIP3    H123227   4.777   2.247  13.326  0.8603  0.3791 -0.6866
  604TIP3    H223228   4.863   2.151  13.404  0.6632  1.1860  0.5361
  605TIP3   OH223229   3.950   5.773  16.677 -0.0192  0.2880  0.0544
  605TIP3    H123230   4.033   5.732  16.702  0.0554 -0.0573 -0.7767
  605TIP3    H223231   3.972   5.831  16.605 -0.2673  1.2065  0.7049
  606TIP3   OH223232   6.273   1.924   0.857  0.1352 -0.3491  0.6387
  606TIP3    H123233   6.253   1.836   0.889 -3.7881  0.2235 -0.0120
  606TIP3    H223234   6.272   1.979   0.934  0.7522 -0.5708  0.8076
  607TIP3   OH223235   1.614   4.767   5.441 -0.3238  0.2083  0.3674
  607TIP3    H123236   1.703   4.775   5.476  0.1430 -0.2796 -0.6973
  607TIP3    H223237   1.622   4.797   5.350 -1.0365 -0.7857 -0.0298
  608TIP3   OH223238   0.912   4.308  17.054  0.4835  0.0700 -0.2779
  608TIP3    H123239   0.823   4.312  17.018  0.5327  1.6841 -0.2365
  608TIP3    H223240   0.958   4.248  16.995 -0.1799  0.5177 -1.2690
  609TIP3   OH223241   2.364   3.716  14.431 -0.1345  0.2651 -0.2848
  609TIP3    H123242   2.444   3.681  14.391 -0.6550 -0.5461 -0.6438
  609TIP3    H223243   2.360   3.675  14.518  0.1465  0.7599 -0.0384
  610TIP3   OH223244   6.313   0.702   2.237 -0.1730  0.3375 -0.2580
  610TIP3    H123245   6.270   0.622   2.206 -0.3710 -0.3110  1.6416
  610TIP3    H223246   6.386   0.714   2.176 -0.0904 -1.3357 -0.5345
  611TIP3   OH223247   5.368   1.632   2.565  0.2618  0.1414  0.3868
  611TIP3    H123248   5.444   1.687   2.546  0.9008 -0.8777 -0.0347
  611TIP3    H223249   5.404   1.553   2.604 -0.6268 -0.1456  0.6540
  612TIP3   OH223250   5.617   5.148   5.518 -0.2245 -0.3338 -0.4095
  612TIP3    H123251   5.668   5.196   5.583 -0.7886 -1.5548  0.9605
  612TIP3    H223252   5.683   5.104   5.464  0.2319  0.1022 -0.2152
  613TIP3   OH223253   6.731   5.828   2.863  0.3165 -0.0683  0.4030
  613TIP3    H123254   6.766   5.750   2.821  3.4487  0.4789  1.8146
  613TIP3    H223255   6.761   5.900   2.809 -1.9636  0.2573 -0.4973
  614TIP3   OH223256   3.083   3.635   1.348  0.3673 -0.2083 -0.1758
  614TIP3    H123257   3.024   3.575   1.393  1.4344 -0.4731  0.8674
  614TIP3    H223258   3.044   3.721   1.361  0.5448 -0.3115  1.0419
  615TIP3   OH223259   0.112   3.666  10.482 -0.1938 -0.3677  0.1850
  615TIP3    H123260   0.204   3.689  10.475 -0.3806 -0.0935 -1.7960
  615TIP3    H223261   0.073   3.699  10.401 -2.0052 -0.6089  0.9332
  616TIP3   OH223262   0.571   6.537  13.747  0.1279  0.0725  0.4881
  616TIP3    H123263   0.608   6.491  13.823 -1.0578 -0.5488  0.7011
  616TIP3    H223264   0.581   6.475  13.675 -0.8426 -0.2526  0.6277
  617TIP3   OH223265   4.592   1.466  12.441  0.0887 -0.3832 -0.0400
  617TIP3    H123266   4.660   1.462  12.508  0.1475  1.0041  0.0032
  617TIP3    H223267   4.521   1.412  12.475 -0.1744  0.8894  1.4902
  618TIP3   OH223268   0.048   6.758   0.415 -0.4557  0.7729 -0.3513
  618TIP3    H123269   0.128   6.803   0.388 -0.0246  1.2207  1.6376
  618TIP3    H223270   0.041   6.684   0.355  1.8188  0.3413 -0.1266
  619TIP3   OH223271   5.516   5.047  15.816 -0.7639  0.1120 -0.1813
  619TIP3    H123272   5.473   5.015  15.895  0.1689  0.4276  0.4645
  619TIP3    H223273   5.516   4.972  15.757  2.3581 -1.4765  1.7095
  620TIP3   OH223274   3.575   6.509   6.431 -0.5111  0.3821  0.6470
  620TIP3    H123275   3.575   6.603   6.415  0.4284  0.1657 -0.6575
  620TIP3    H223276   3.485   6.489   6.456 -0.8997  1.4850  0.1419
  621TIP3   OH223277   4.503   3.369   5.939  0.3199 -0.4757  0.0889
  621TIP3    H123278   4.565   3.325   5.998  0.5910 -0.2401 -0.0210
  621TIP3    H223279   4.418   3.359   5.983  0.7308  0.9732  1.2447
  622TIP3   OH223280   3.215   5.687   3.977  0.2249 -0.3284 -0.6940
  622TIP3    H123281   3.253   5.719   4.058 -1.1855 -1.8283  0.5967
  622TIP3    H223282   3.180   5.765   3.935 -0.5855  0.2413  0.9963
  623TIP3   OH223283   1.322   0.084  11.328  0.0465 -0.1359 -0.3107
  623TIP3    H123284   1.334   0.071  11.422 -0.2460 -0.6347 -0.3417
  623TIP3    H223285   1.386   0.152  11.305 -0.8985  1.0507  0.5170
  624TIP3   OH223286   6.276   5.794   0.976  0.3857 -0.7617  0.1266
  624TIP3    H123287   6.260   5.700   0.969 -1.6545 -0.5632  1.7777
  624TIP3    H223288   6.301   5.808   1.068 -0.8079  0.4998  0.2868
  625TIP3   OH223289   6.754   1.634  14.816  0.4772 -0.2089  0.3563
  625TIP3    H123290   6.822   1.619  14.882 -1.2140 -1.2148  1.9160
  625TIP3    H223291   6.715   1.548  14.801 -0.3073  0.3166 -0.6873
  626TIP3   OH223292   2.550   4.638   1.316 -0.7536  0.1565  0.2409
  626TIP3    H123293   2.616   4.695   1.355 -1.2256  0.6917  0.2562
  626TIP3    H223294   2.563   4.647   1.222 -2.1485  1.8635  0.1909
  627TIP3   OH223295   5.468   5.128  16.286 -0.1226  0.3782  0.0553
  627TIP3    H123296   5.417   5.210  16.287  0.2886  0.6427 -0.3299
  627TIP3    H223297   5.416   5.067  16.338  0.0099  1.1522  1.1198
  628TIP3   OH223298   5.756   4.930   5.041 -0.2564  0.2248  0.2084
  628TIP3    H123299   5.766   5.025   5.032  1.1990  0.0228 -0.5694
  628TIP3    H223300   5.830   4.894   4.992 -1.1306 -1.3276  0.0017
  629TIP3   OH223301   3.678   5.376  13.799 -0.0449 -0.0588 -0.2256
  629TIP3    H123302   3.748   5.413  13.745 -0.1489  1.1104  0.4071
  629TIP3    H223303   3.681   5.282  13.783  0.9636  0.1083 -1.0335
  630TIP3   OH223304   1.490   1.713   0.778  0.2844  0.0221 -0.2266
  630TIP3    H123305   1.432   1.786   0.801 -1.9303 -1.5532 -0.6479
  630TIP3    H223306   1.513   1.674   0.863  2.0229  1.5777  0.0474
  631TIP3   OH223307   4.583   3.832   2.586  0.2124 -0.3877  0.3829
  631TIP3    H123308   4.564   3.744   2.618  0.4576  0.1493  2.0632
  631TIP3    H223309   4.668   3.853   2.623 -0.4852  1.1107  1.1914
  632TIP3   OH223310   6.046   5.004  16.392 -0.6238  0.0485  0.0805
  632TIP3    H123311   6.004   4.998  16.306  1.4117  2.2089 -1.1315
  632TIP3    H223312   6.008   5.083  16.432  1.3120  1.3093 -0.5145
  633TIP3   OH223313   5.768   0.226  13.677  0.1269  0.0538 -0.1562
  633TIP3    H123314   5.780   0.308  13.630 -0.1312  0.1587 -0.0417
  633TIP3    H223315   5.760   0.160  13.608 -0.3647  0.2248 -0.2635
  634TIP3   OH223316   1.122   5.635  12.494  0.2590 -0.7175 -0.3780
  634TIP3    H123317   1.133   5.657  12.586 -0.5392 -0.8225 -0.2526
  634TIP3    H223318   1.096   5.716  12.452 -0.4237 -0.9011 -0.3188
  635TIP3   OH223319   3.916   1.189   1.194  0.0433 -0.0091 -0.4388
  635TIP3    H123320   3.851   1.249   1.158 -1.0013 -1.4879 -1.0183
  635TIP3    H223321   3.883   1.102   1.174  2.0716 -0.7847 -0.4962
  636TIP3   OH223322   4.568   5.358  10.548 -0.0052 -0.0311  0.2177
  636TIP3    H123323   4.631   5.381  10.480  2.5734 -2.2178  1.7772
  636TIP3    H223324   4.594   5.411  10.624 -0.7039 -0.1787  0.5672
  637TIP3   OH223325   2.065   3.786  16.874  0.6015 -0.0802 -0.0962
  637TIP3    H123326   2.087   3.874  16.905  0.8005 -0.8631  2.0184
  637TIP3    H223327   2.082   3.790  16.780  0.4329  2.1963 -0.0657
  638TIP3   OH223328   6.633   1.240   2.983  0.1152 -0.3956 -0.2405
  638TIP3    H123329   6.677   1.271   2.904  2.6388 -0.8490  0.9633
  638TIP3    H223330   6.611   1.321   3.030 -2.2055 -0.0750 -1.7635
  639TIP3   OH223331   1.929   6.272   4.519  0.1421  0.4044  0.4485
  639TIP3    H123332   1.891   6.187   4.500  1.5193  0.0099 -0.6085
  639TIP3    H223333   2.015   6.252   4.557  0.7456  1.3295 -0.4032
  640TIP3   OH223334   4.086   2.548  15.270 -0.3198 -0.1279 -0.1587
  640TIP3    H123335   4.007   2.517  15.226 -0.5935  1.1917 -0.6194
  640TIP3    H223336   4.143   2.577  15.199  0.1440 -0.0808  0.2322
  641TIP3   OH223337   1.951   3.068   5.888 -0.1881 -0.6196 -0.0687
  641TIP3    H123338   1.917   3.151   5.854 -1.1077 -1.3204 -0.8942
  641TIP3    H223339   1.944   3.076   5.983  0.3582  0.5117 -0.1223
  642TIP3   OH223340   5.353   2.182  15.336  0.1527  0.1571  0.2575
  642TIP3    H123341   5.385   2.150  15.252  1.9114  1.3873  0.4280
  642TIP3    H223342   5.323   2.103  15.382 -1.6898 -0.4058 -1.8385
  643TIP3   OH223343   6.192   6.186  12.145  0.2394  0.1303  0.3211
  643TIP3    H123344   6.228   6.228  12.067 -1.1390  0.5821 -0.0807
  643TIP3    H223345   6.135   6.117  12.110 -0.1096  0.1064  0.9341
  644TIP3   OH223346   1.433   0.910  10.451 -0.2728 -0.3401  0.5666
  644TIP3    H123347   1.486   0.953  10.517 -1.0842  1.4006  0.1308
  644TIP3    H223348   1.390   0.982  10.404 -0.9884 -1.5968 -0.7670
  645TIP3   OH223349   3.224   4.561   5.270  0.0253  0.1938  0.1344
  645TIP3    H123350   3.249   4.522   5.187  0.1350  1.3879 -0.4047
  645TIP3    H223351   3.300   4.613   5.296  0.6393 -1.4937  1.8173
  646TIP3   OH223352   5.925   3.008  16.294  0.6644  0.0608  0.0099
  646TIP3    H123353   6.015   3.041  16.289  1.3623 -1.8628 -0.5703
  646TIP3    H223354   5.895   3.033  16.381  0.5573  3.6529 -0.9809
  647TIP3   OH223355   3.861   2.417  12.022  0.4524  0.3324  0.3078
  647TIP3    H123356   3.938   2.450  11.976  0.6596 -0.0087  0.4124
  647TIP3    H223357   3.810   2.371  11.955  0.5142  0.2534  0.3158
  648TIP3   OH223358   0.357   6.391  13.145  0.0180 -1.0768 -0.3925
  648TIP3    H123359   0.275   6.411  13.190 -0.2598 -2.1442 -0.3902
  648TIP3    H223360   0.369   6.297  13.159  1.2876 -0.9127 -0.3195
  649TIP3   OH223361   1.936   0.675  16.305 -0.1003  0.5973  0.2858
  649TIP3    H123362   1.998   0.712  16.243  0.5432  0.8871  1.0866
  649TIP3    H223363   1.949   0.580  16.300 -0.4262  0.5836 -0.3957
  650TIP3   OH223364   2.101   5.491  16.362  0.3450 -0.3725  0.1534
  650TIP3    H123365   2.006   5.493  16.348  0.2670 -0.3839  0.6827
  650TIP3    H223366   2.138   5.501  16.274 -0.1462 -0.4128 -0.0598
  651TIP3   OH223367   1.083   4.671  12.075  0.8583 -0.0318 -0.6333
  651TIP3    H123368   1.093   4.630  12.161 -0.0007  1.2639  0.1120
  651TIP3    H223369   1.051   4.601  12.018  0.1043 -0.5806  0.4465
  652TIP3   OH223370   1.338   0.232   2.018 -0.4769 -0.2011 -0.4371
  652TIP3    H123371   1.269   0.272   2.071 -1.2943 -2.1565  0.0374
  652TIP3    H223372   1.411   0.219   2.078  0.5032  2.2499 -1.0364
  653TIP3   OH223373   4.890   5.202   2.915  0.2147 -0.3982 -0.0303
  653TIP3    H123374   4.945   5.132   2.951 -0.1796 -0.5517  0.2718
  653TIP3    H223375   4.908   5.199   2.821 -0.4532 -1.4916 -0.1353
  654TIP3   OH223376   6.622   1.527   0.765  0.3837  0.2077  0.5325
  654TIP3    H123377   6.646   1.472   0.839  0.5522  1.3106  1.3047
  654TIP3    H223378   6.626   1.616   0.799 -1.7426  0.5924 -0.1856
  655TIP3   OH223379   0.437   4.445  13.280 -0.0726  0.6685 -0.2681
  655TIP3    H123380   0.391   4.389  13.341 -1.8586  1.7707 -0.5666
  655TIP3    H223381   0.521   4.401  13.265 -1.1140 -1.4898  0.0841
  656TIP3   OH223382   2.998   2.205   4.048 -0.2314  0.8445  0.1718
  656TIP3    H123383   2.936   2.133   4.053  0.5307  0.3299  2.8517
  656TIP3    H223384   3.037   2.197   3.961  0.3628 -2.4317  0.6673
  657TIP3   OH223385   2.335   0.536   1.247  0.4681  0.2666 -0.0736
  657TIP3    H123386   2.374   0.452   1.272 -0.9973 -0.5613 -0.4915
  657TIP3    H223387   2.389   0.567   1.173 -0.0672 -1.1950 -1.0976
  658TIP3   OH223388   0.446   0.712  16.078  0.2559 -0.2437  0.1756
  658TIP3    H123389   0.495   0.726  15.997 -1.0399  1.6135 -0.2949
  658TIP3    H223390   0.504   0.656  16.131  4.5758  4.7688  1.1341
  659TIP3   OH223391   0.624   1.626  10.630 -0.5259 -0.4432  0.4022
  659TIP3    H123392   0.635   1.561  10.700  0.7503  0.0713  0.6875
  659TIP3    H223393   0.607   1.575  10.551 -1.6198 -1.0446  1.0062
  660TIP3   OH223394   5.026   1.114  13.246  0.0322  0.2643  0.9581
  660TIP3    H123395   5.007   1.069  13.164  0.3224  0.7369  0.6263
  660TIP3    H223396   4.948   1.100  13.300  0.4816 -1.3939  1.2076
  661TIP3   OH223397   2.761   6.483   1.999  0.5772  0.0172  0.4226
  661TIP3    H123398   2.706   6.539   2.055 -0.4680 -0.8185  0.2544
  661TIP3    H223399   2.830   6.451   2.057  0.8744  1.0572  0.6493
  662TIP3   OH223400   0.472   1.107   1.983  0.3888  0.2068  0.2999
  662TIP3    H123401   0.485   1.129   2.075  0.9402  1.8989 -0.1657
  662TIP3    H223402   0.541   1.044   1.963 -0.6033 -1.2708  1.3921
  663TIP3   OH223403   6.403   5.869   1.936  0.1598  0.0772  0.2807
  663TIP3    H123404   6.473   5.916   1.890  0.3449 -0.8533 -0.3934
  663TIP3    H223405   6.338   5.937   1.955  0.1460  0.5196 -1.2155
  664TIP3   OH223406   5.070   1.524   0.213 -0.1694  0.1776 -1.0630
  664TIP3    H123407   5.029   1.591   0.158 -0.2251 -0.2776 -1.5789
  664TIP3    H223408   5.133   1.572   0.266 -0.4780  0.6974 -1.1618
  665TIP3   OH223409   6.372   1.751   4.241  0.7039 -0.0334  1.2223
  665TIP3    H123410   6.427   1.674   4.231 -0.6212 -1.0738  1.6835
  665TIP3    H223411   6.383   1.777   4.333 -0.3726 -0.8876  1.6054
  666TIP3   OH223412   3.483   2.427   2.567 -0.2199  0.1673  0.1155
  666TIP3    H123413   3.451   2.421   2.657  1.0927  0.1022  0.5863
  666TIP3    H223414   3.469   2.518   2.542 -0.6031  0.1806  0.3834
  667TIP3   OH223415   5.644   1.940   5.627 -1.0397 -0.0816 -0.0003
  667TIP3    H123416   5.608   1.933   5.538  0.2610  0.5203 -0.5912
  667TIP3    H223417   5.738   1.924   5.615 -0.6402  1.4048  1.0658
  668TIP3   OH223418   6.092   2.726  12.959 -0.2870 -0.1470 -0.6145
  668TIP3    H123419   6.017   2.687  12.914 -0.9576  0.9634 -0.4871
  668TIP3    H223420   6.108   2.808  12.912  0.1974  0.1192  0.0094
  669TIP3   OH223421   1.808   2.631   0.009 -0.3424 -0.4423  0.1017
  669TIP3    H123422   1.782   2.651  -0.081 -2.1416  1.1865  0.9341
  669TIP3    H223423   1.833   2.716   0.046  2.9579 -1.4789  0.3975
  670TIP3   OH223424   2.899   5.956  14.115 -0.2698 -1.1489  0.1795
  670TIP3    H123425   2.842   6.015  14.165  1.0597  1.3028 -1.1034
  670TIP3    H223426   2.941   5.902  14.181  0.7494  1.3846  1.6744
  671TIP3   OH223427   6.483   5.942   1.494 -0.1592 -0.0455 -0.0877
  671TIP3    H123428   6.457   5.863   1.541  1.3129  0.2360  1.2337
  671TIP3    H223429   6.402   5.974   1.454 -1.5568 -0.0806  2.5751
  672TIP3   OH223430   6.589   5.660   0.908  0.3880 -0.0692  0.1289
  672TIP3    H123431   6.589   5.711   0.989 -0.0279  0.3527 -0.1303
  672TIP3    H223432   6.681   5.651   0.884  0.3795  2.4207 -0.9818
  673TIP3   OH223433   5.384   0.277   5.612  0.3378 -0.5201  0.1153
  673TIP3    H123434   5.309   0.287   5.554 -0.4968 -0.1115  1.2411
  673TIP3    H223435   5.350   0.228   5.687  1.5541 -1.6119 -0.0131
  674TIP3   OH223436   3.024   0.071  15.064 -0.1069  0.0158 -0.0176
  674TIP3    H123437   3.098   0.074  15.004  0.5297  1.6098  0.8215
  674TIP3    H223438   3.053   0.016  15.137 -0.4077 -0.8443 -0.5463
  675TIP3   OH223439   2.261   1.519   6.100 -0.0600  0.4256  0.0066
  675TIP3    H123440   2.227   1.607   6.119  0.2992  0.3478  1.0819
  675TIP3    H223441   2.199   1.482   6.038 -0.7226  1.1022  0.2511
  676TIP3   OH223442   3.314   1.107   4.598 -0.6200  0.3858  0.1463
  676TIP3    H123443   3.240   1.046   4.595 -0.5545  0.2635  0.9521
  676TIP3    H223444   3.390   1.053   4.573 -0.5553  0.1285  0.9018
  677TIP3   OH223445   5.424   6.049   4.558  0.3488 -0.1335  0.0063
  677TIP3    H123446   5.470   5.965   4.552  0.6224  0.0421 -0.3620
  677TIP3    H223447   5.335   6.026   4.584  0.8103 -0.4339  1.3916
  678TIP3   OH223448   0.477   0.870  11.489 -0.5217  0.2835 -0.2051
  678TIP3    H123449   0.465   0.846  11.397 -2.4137 -0.6699  0.2732
  678TIP3    H223450   0.448   0.793  11.538 -0.6716  1.2297  1.2248
  679TIP3   OH223451   4.403   3.269   0.688  0.3901  0.1300 -0.6265
  679TIP3    H123452   4.349   3.191   0.704 -1.5619  1.8483  1.4499
  679TIP3    H223453   4.367   3.308   0.609 -1.0238  0.8905  0.3709
  680TIP3   OH223454   3.591   0.162  16.984  0.0393 -0.3430 -0.4054
  680TIP3    H123455   3.560   0.152  16.894  0.1029  0.7556 -0.5648
  680TIP3    H223456   3.658   0.094  16.995  0.5995  0.0245 -1.4481
  681TIP3   OH223457   5.559   2.794   0.605  0.3434  0.0449  0.0717
  681TIP3    H123458   5.574   2.769   0.696  1.2518  1.5062  0.3305
  681TIP3    H223459   5.532   2.712   0.562  0.7678 -0.8320  1.4524
  682TIP3   OH223460   3.941   5.483   2.395 -0.1735  0.0461 -0.6010
  682TIP3    H123461   3.865   5.517   2.443 -0.0433  1.6207 -1.5094
  682TIP3    H223462   3.906   5.453   2.312 -0.3470 -2.4182  0.3180
  683TIP3   OH223463   1.026   1.223   3.514 -0.3596  0.1234 -0.1716
  683TIP3    H123464   0.993   1.303   3.554 -2.6880  0.6720 -3.0349
  683TIP3    H223465   0.993   1.153   3.570 -3.2506  0.8894 -0.8124
  684TIP3   OH223466   6.124   4.590   4.382 -0.6073  0.5906  0.3963
  684TIP3    H123467   6.179   4.540   4.321 -0.3293  1.0652  0.2512
  684TIP3    H223468   6.138   4.548   4.467  1.3162  1.7571  0.6918
  685TIP3   OH223469   2.871   0.996  16.917 -0.3352 -0.4596 -0.1828
  685TIP3    H123470   2.782   1.017  16.944 -0.0835  1.1522 -0.5604
  685TIP3    H223471   2.920   0.988  16.999 -0.8195 -1.3339  0.0228
  686TIP3   OH223472   0.549   4.118  13.465 -0.4711 -0.1723  0.1334
  686TIP3    H123473   0.608   4.095  13.537 -1.4402 -0.7421  0.7609
  686TIP3    H223474   0.504   4.198  13.495  0.3281  0.5407 -0.5490
  687TIP3   OH223475   5.328   6.628  15.163  0.3763 -0.0548  0.7275
  687TIP3    H123476   5.412   6.627  15.116  0.1454 -1.5829  0.3145
  687TIP3    H223477   5.262   6.640  15.095  0.3110  2.1777  1.1694
  688TIP3   OH223478   3.335   2.937   3.937 -0.2266  0.3524 -0.6558
  688TIP3    H123479   3.366   3.000   4.003 -0.2686 -0.1649 -0.1332
  688TIP3    H223480   3.384   2.856   3.957 -0.3812  0.1371 -1.1403
  689TIP3   OH223481   2.993   5.143  13.934  0.0379 -0.6784  0.0052
  689TIP3    H123482   2.951   5.057  13.938  1.5627 -1.4454 -0.1754
  689TIP3    H223483   3.016   5.163  14.024  0.4919 -0.8691 -0.0677
  690TIP3   OH223484   1.430   2.533  14.123 -0.3250 -0.6436 -0.2793
  690TIP3    H123485   1.354   2.494  14.080 -1.1243 -1.1643  1.5475
  690TIP3    H223486   1.502   2.472  14.106 -0.7400 -1.0739 -0.4947
  691TIP3   OH223487   2.895   2.882  13.723  0.4242  0.5323 -0.0313
  691TIP3    H123488   2.810   2.906  13.685  1.9525  2.2515 -2.5389
  691TIP3    H223489   2.959   2.923  13.665  3.0533 -2.8135  0.3955
  692TIP3   OH223490   0.242   1.376  13.885  0.0985  0.0843  0.6420
  692TIP3    H123491   0.175   1.441  13.904 -2.0712 -1.9276  0.1129
  692TIP3    H223492   0.267   1.341  13.971 -2.9628 -2.4297  0.5992
  693TIP3   OH223493   3.902   4.393  16.808  0.2889 -0.1722 -0.3592
  693TIP3    H123494   3.875   4.485  16.814 -1.1128 -0.7202  2.1865
  693TIP3    H223495   3.998   4.398  16.798  0.3759  1.5457  0.9906
  694TIP3   OH223496   6.119   0.063  15.984  0.2399  0.1147  0.5808
  694TIP3    H123497   6.033   0.024  16.000  1.4870 -3.5284 -1.1798
  694TIP3    H223498   6.180  -0.010  15.986  2.9647  2.2486 -0.8884
  695TIP3   OH223499   2.389   4.517   2.754 -0.2986 -0.8706 -0.5744
  695TIP3    H123500   2.437   4.435   2.770  1.1058  0.3614  1.7089
  695TIP3    H223501   2.297   4.494   2.772  0.0495 -2.0053 -0.1831
  696TIP3   OH223502   5.035   6.095  12.732  0.3963 -0.8052 -0.5400
  696TIP3    H123503   4.992   6.009  12.726  1.3937 -1.3807  0.3088
  696TIP3    H223504   4.971   6.152  12.773 -0.7621 -0.8026 -2.2972
  697TIP3   OH223505   0.189   1.740  15.539  0.0808  0.2171  0.0506
  697TIP3    H123506   0.254   1.722  15.607 -0.1388  0.1799  0.2503
  697TIP3    H223507   0.134   1.809  15.577  0.8849  1.2868 -0.6822
  698TIP3   OH223508   1.859   3.235  12.232  0.5338 -0.3126 -0.8879
  698TIP3    H123509   1.867   3.309  12.172  0.1114  1.4650  1.1823
  698TIP3    H223510   1.764   3.227  12.247  0.8037  1.4934  2.1769
  699TIP3   OH223511   2.208   3.982   0.682 -1.2625 -0.2179 -0.2122
  699TIP3    H123512   2.282   3.983   0.621  1.0255 -0.8811  2.4440
  699TIP3    H223513   2.168   4.068   0.673  0.5414  0.5699 -0.8954
  700TIP3   OH223514   0.019   0.495   0.731  0.3615  0.1517  0.5603
  700TIP3    H123515   0.056   0.455   0.653  2.0097  0.4665  1.1687
  700TIP3    H223516   0.038   0.433   0.802  0.3880  0.6635  1.0066
  701TIP3   OH223517   5.224   3.656   1.846 -0.0245  0.5796 -0.1948
  701TIP3    H123518   5.164   3.725   1.873  0.3852  0.7335  0.3362
  701TIP3    H223519   5.199   3.580   1.900 -0.3553  0.3694 -0.6455
  702TIP3   OH223520   4.415   0.077  14.351 -0.2855 -0.4715  0.0006
  702TIP3    H123521   4.363   0.075  14.431 -1.4943  0.8949 -0.7319
  702TIP3    H223522   4.505   0.093  14.381 -0.1950 -3.2507  1.2942
  703TIP3   OH223523   1.142   5.368  12.777 -0.1021 -0.0111  0.8666
  703TIP3    H123524   1.195   5.446  12.794 -1.1992  0.7277  0.9415
  703TIP3    H223525   1.062   5.382  12.829 -0.8161 -0.6171 -0.0624
  704TIP3   OH223526   4.737   1.068   3.710  0.8136 -0.0637  0.2146
  704TIP3    H123527   4.781   1.061   3.794 -0.8813  0.4942  1.1819
  704TIP3    H223528   4.805   1.096   3.649  2.1113 -0.7094  1.3493
  705TIP3   OH223529   3.580   6.274  13.668 -0.1111 -0.3927  0.5022
  705TIP3    H123530   3.582   6.228  13.584  1.1511  1.3601 -0.4347
  705TIP3    H223531   3.628   6.216  13.727 -1.4848 -1.9060  0.1864
  706TIP3   OH223532   3.679   3.000   4.344 -0.6813 -0.0977 -0.7834
  706TIP3    H123533   3.764   2.967   4.318 -0.9241 -0.4819 -1.0958
  706TIP3    H223534   3.645   2.934   4.405  0.0385  0.9737  0.8094
  707TIP3   OH223535   4.287   5.209  11.619  0.0464  0.2292  0.2083
  707TIP3    H123536   4.203   5.166  11.630  0.8878 -1.2475  0.9915
  707TIP3    H223537   4.314   5.189  11.529 -0.7277  1.2485 -0.2586
  708TIP3   OH223538   6.181   1.396  11.994 -0.5745 -0.5675 -0.1344
  708TIP3    H123539   6.264   1.372  11.953 -0.7444  0.1623 -0.9017
  708TIP3    H223540   6.189   1.363  12.084  1.3098  1.1665  0.3638
  709TIP3   OH223541   3.636   1.554  15.071 -0.0843  0.2268 -0.5893
  709TIP3    H123542   3.567   1.597  15.120 -0.5710 -0.9604 -0.2129
  709TIP3    H223543   3.633   1.594  14.984 -0.0318  1.4587 -0.0343
  710TIP3   OH223544   5.636   3.457   2.042  0.2009  0.4046  0.1328
  710TIP3    H123545   5.697   3.464   1.969 -0.4962  0.6984 -0.4348
  710TIP3    H223546   5.595   3.371   2.032  0.5641  0.1786  0.5531
  711TIP3   OH223547   5.906   2.954  14.761  0.4912  0.0981  0.3482
  711TIP3    H123548   5.971   2.986  14.699  0.5081  0.7916  0.7131
  711TIP3    H223549   5.937   2.986  14.846  1.0805 -1.7892  0.8753
  712TIP3   OH223550   1.486   6.719   5.733 -0.2321  0.1926 -0.8051
  712TIP3    H123551   1.529   6.773   5.799 -1.0152  1.0277 -0.9672
  712TIP3    H223552   1.405   6.690   5.774 -0.6604  0.6069 -1.3491
  713TIP3   OH223553   1.307   3.599   1.055 -0.5301  0.0399  0.2230
  713TIP3    H123554   1.340   3.553   0.978  2.1344  2.6765 -0.2829
  713TIP3    H223555   1.258   3.674   1.019  1.1510  1.5708  1.0298
  714TIP3   OH223556   1.421   0.051   3.576  0.1694  0.6697  0.6947
  714TIP3    H123557   1.421  -0.045   3.567 -0.3595  0.6447  0.9252
  714TIP3    H223558   1.493   0.080   3.521 -0.7104  0.2503 -0.7142
  715TIP3   OH223559   6.067   3.504  11.893  0.0842  0.0058 -0.4099
  715TIP3    H123560   6.078   3.599  11.901  2.9809 -0.4284  1.7070
  715TIP3    H223561   6.083   3.470  11.981 -1.0825 -2.4378 -1.1042
  716TIP3   OH223562   2.109   4.119   5.285  0.5136  0.2631 -0.4842
  716TIP3    H123563   2.189   4.103   5.235  0.4527 -0.4157 -0.3653
  716TIP3    H223564   2.038   4.090   5.227  0.1770  3.1144 -1.5841
  717TIP3   OH223565   1.508   6.038   0.125  0.5548 -0.5591  0.2520
  717TIP3    H123566   1.449   6.081   0.063 -0.1646 -1.3933  0.3580
  717TIP3    H223567   1.501   5.945   0.104  1.0844 -0.7534  0.9161
  718TIP3   OH223568   0.840   4.772   2.284 -0.2471 -0.2517 -0.1567
  718TIP3    H123569   0.880   4.720   2.354  0.4650 -0.4851 -0.7450
  718TIP3    H223570   0.901   4.766   2.211 -0.0567  1.5684 -0.1658
  719TIP3   OH223571   6.527   4.861   1.895 -0.4798 -0.2413 -0.2956
  719TIP3    H123572   6.556   4.926   1.831 -1.1522 -0.4941 -0.8677
  719TIP3    H223573   6.581   4.877   1.972 -0.4916  0.8528 -0.5087
  720TIP3   OH223574   2.408   6.594  15.543 -0.7327 -0.2953  0.2831
  720TIP3    H123575   2.382   6.503  15.557 -0.1953 -0.1439  2.4627
  720TIP3    H223576   2.480   6.608  15.606 -1.0451  1.7245  0.2146
  721TIP3   OH223577   2.146   6.446   1.247 -0.2319  0.3654 -0.1794
  721TIP3    H123578   2.052   6.440   1.264 -0.0363 -1.7344  0.2746
  721TIP3    H223579   2.185   6.469   1.331 -0.5697  4.2994 -0.9962
  722TIP3   OH223580   6.131   2.643  16.697 -0.1420 -0.1870  0.2874
  722TIP3    H123581   6.170   2.715  16.647 -0.0776  1.3800  2.5114
  722TIP3    H223582   6.046   2.628  16.656  2.0929 -2.7114 -3.7656
  723TIP3   OH223583   5.905   2.055   5.628  0.4831 -0.3153 -0.4193
  723TIP3    H123584   5.888   2.003   5.549  1.9675 -1.2563 -0.1411
  723TIP3    H223585   5.934   2.140   5.595 -2.4061  0.5625 -0.8823
  724TIP3   OH223586   6.062   0.724   1.402 -0.3860 -0.4464 -0.4093
  724TIP3    H123587   6.120   0.691   1.334 -1.6596 -1.4488 -1.0495
  724TIP3    H223588   6.031   0.645   1.448  1.2172  0.2787  1.9935
  725TIP3   OH223589   2.566   5.271  11.200 -0.4039 -0.4240 -0.2919
  725TIP3    H123590   2.554   5.177  11.191 -2.6363 -0.1900 -0.1162
  725TIP3    H223591   2.545   5.306  11.113  2.3241 -0.2210 -0.9175
  726TIP3   OH223592   5.635   1.755  14.729 -0.6429  0.1064 -0.4260
  726TIP3    H123593   5.701   1.729  14.793 -0.5493 -1.6736 -1.2026
  726TIP3    H223594   5.685   1.776  14.650 -0.9892 -1.8594 -1.2162
  727TIP3   OH223595   2.202   3.069  15.927 -0.0692 -0.2167  0.0232
  727TIP3    H123596   2.209   3.138  15.993  0.6649  1.0837 -1.3984
  727TIP3    H223597   2.192   2.989  15.978  0.1558  0.8044  1.7157
  728TIP3   OH223598   3.650   1.285   2.693 -0.2327  0.9820 -0.6581
  728TIP3    H123599   3.614   1.305   2.779 -0.0687  0.3252 -0.4375
  728TIP3    H223600   3.728   1.232   2.711 -0.5199  0.3611 -1.2376
  729TIP3   OH223601   6.182   0.310  12.849  0.3778  0.3690  0.2070
  729TIP3    H123602   6.197   0.387  12.903 -4.0455  1.1679  0.4536
  729TIP3    H223603   6.169   0.345  12.761 -0.9776 -0.1454  0.1983
  730TIP3   OH223604   1.817   4.316  11.793  0.1201  0.1842  0.2146
  730TIP3    H123605   1.783   4.346  11.877  1.7390 -1.4552  1.4948
  730TIP3    H223606   1.746   4.263  11.756  0.6016 -1.8505  2.1068
  731TIP3   OH223607   4.763   1.813   5.091  0.3314  0.0570  0.2478
  731TIP3    H123608   4.679   1.783   5.056 -0.1836  0.2817  1.2683
  731TIP3    H223609   4.829   1.773   5.033 -0.4132 -1.6596  0.5526
  732TIP3   OH223610   4.587   5.191  11.161 -0.1822 -0.2198  0.4338
  732TIP3    H123611   4.625   5.121  11.108 -0.1317  0.9865 -1.1582
  732TIP3    H223612   4.503   5.211  11.119 -0.0993  0.8201  0.7356
  733TIP3   OH223613   0.703   3.078   0.155  0.1016  0.4690  0.1130
  733TIP3    H123614   0.632   3.081   0.219 -0.5550 -1.2109 -0.5034
  733TIP3    H223615   0.777   3.040   0.202  0.0628  0.6055  0.2830
  734TIP3   OH223616   1.554   2.873  17.213  0.0492 -0.4534  0.0734
  734TIP3    H123617   1.595   2.845  17.131  0.0838 -0.6978  0.1765
  734TIP3    H223618   1.460   2.867  17.196  0.0571 -0.8802  0.1808
  735TIP3   OH223619   3.210   1.823  12.557 -0.3559  0.5977  0.3839
  735TIP3    H123620   3.297   1.862  12.555  0.0902 -0.4323 -2.4001
  735TIP3    H223621   3.154   1.888  12.513 -0.4418  0.0483 -0.3273
  736TIP3   OH223622   3.024   6.113  15.259 -0.0507 -0.3215  0.0311
  736TIP3    H123623   3.104   6.165  15.252 -0.2372 -0.2327 -1.4873
  736TIP3    H223624   3.023   6.059  15.180 -0.8492 -1.2342  0.6532
  737TIP3   OH223625   2.763   1.870  11.858  0.2028 -0.4672 -0.1509
  737TIP3    H123626   2.716   1.935  11.910  1.0314  0.4167 -0.4839
  737TIP3    H223627   2.713   1.863  11.776 -0.7130 -1.3515  0.4771
  738TIP3   OH223628   0.816   1.100   0.635  0.0686  0.4978 -0.4731
  738TIP3    H123629   0.785   1.027   0.688 -0.1741 -0.1286 -1.4611
  738TIP3    H223630   0.904   1.075   0.608 -0.5751 -0.1158 -2.0518
  739TIP3   OH223631   6.672   1.440  15.462  0.1033  0.0564 -0.0909
  739TIP3    H123632   6.681   1.348  15.488 -0.2433  0.0215 -0.0954
  739TIP3    H223633   6.669   1.488  15.544  3.5634  0.3936 -0.0817
  740TIP3   OH223634   1.488   0.592   4.692 -0.5927 -0.0375  0.4628
  740TIP3    H123635   1.401   0.625   4.713 -1.2598 -1.2926 -0.3267
  740TIP3    H223636   1.474   0.524   4.627  1.1092  0.9731 -1.0354
  741TIP3   OH223637   3.441   6.192   3.524 -0.5722 -0.4259 -0.0620
  741TIP3    H123638   3.455   6.223   3.435  0.7719  1.0265  0.6145
  741TIP3    H223639   3.528   6.161   3.552 -0.9571 -0.7649  0.7695
  742TIP3   OH223640   4.053   0.657  13.051  0.2442 -0.4582  0.2635
  742TIP3    H123641   4.125   0.613  13.005 -0.8428  0.0639 -1.9926
  742TIP3    H223642   4.068   0.636  13.144  2.5953 -1.3693 -0.2768
  743TIP3   OH223643   6.233   3.353  17.223  0.1436 -0.0365  0.4327
  743TIP3    H123644   6.232   3.407  17.301  1.7621 -0.6473  0.9048
  743TIP3    H223645   6.223   3.263  17.256  1.3107 -0.3354 -0.0074
  744TIP3   OH223646   5.308   3.304  13.489 -0.0956 -0.5647 -0.6629
  744TIP3    H123647   5.378   3.306  13.424 -0.7221 -1.4653 -1.3650
  744TIP3    H223648   5.228   3.295  13.438 -0.5176 -2.2637  0.2703
  745TIP3   OH223649   0.058   4.250   2.612 -0.0309  0.1730  0.3782
  745TIP3    H123650   0.058   4.333   2.660 -0.8605 -0.5075  1.5817
  745TIP3    H223651   0.144   4.212   2.631  0.8619  1.3225 -1.2189
  746TIP3   OH223652   4.855   2.255   4.869 -0.1597 -0.2135  0.2020
  746TIP3    H123653   4.900   2.222   4.947 -0.5627 -2.0303 -0.3213
  746TIP3    H223654   4.775   2.203   4.863 -1.6057  1.9587  0.2465
  747TIP3   OH223655   2.246   2.225  13.727 -0.5258 -0.0222 -0.1150
  747TIP3    H123656   2.238   2.316  13.753  0.9191  0.2883 -0.7169
  747TIP3    H223657   2.214   2.223  13.637  1.2924  0.2875 -0.7942
  748TIP3   OH223658   4.666   2.458   3.476 -0.7083 -0.0119 -0.0382
  748TIP3    H123659   4.663   2.508   3.558 -1.8227  0.9356 -0.6320
  748TIP3    H223660   4.684   2.524   3.409  1.9558 -1.0294 -0.3788
  749TIP3   OH223661   3.251   1.650   5.454  0.4964  0.0724 -0.5610
  749TIP3    H123662   3.193   1.725   5.463  1.6107  0.8348  0.4593
  749TIP3    H223663   3.293   1.641   5.540  0.8137 -1.3532 -0.8392
  750TIP3   OH223664   2.430   0.537  14.505 -0.2646 -0.3222  0.5357
  750TIP3    H123665   2.417   0.475  14.433  1.7132 -0.4469  0.2600
  750TIP3    H223666   2.488   0.492  14.566 -0.6906  0.3752  1.4599
  751TIP3   OH223667   2.874   1.510  11.851  0.1479  0.5734 -0.5518
  751TIP3    H123668   2.936   1.490  11.921  0.1808  1.1113 -0.4236
  751TIP3    H223669   2.876   1.606  11.845 -0.8632  0.6039 -0.3772
  752TIP3   OH223670   0.238   5.285  11.668  0.0506 -0.0611  0.0381
  752TIP3    H123671   0.233   5.191  11.656  1.5697 -0.4417  1.9078
  752TIP3    H223672   0.207   5.299  11.758 -0.7038  1.2828 -0.4203
  753TIP3   OH223673   0.661   6.768  14.648 -0.3693  0.1641 -0.2108
  753TIP3    H123674   0.735   6.729  14.695  0.3072 -0.2059 -1.5546
  753TIP3    H223675   0.591   6.703  14.656 -0.6620  0.6282  1.2909
  754TIP3   OH223676   5.553   0.219  14.307  1.0734  0.0658 -0.2960
  754TIP3    H123677   5.499   0.141  14.299  1.1693 -0.0441  0.1381
  754TIP3    H223678   5.640   0.190  14.276  1.5906 -0.5182  1.6182
  755TIP3   OH223679   6.681   3.447   3.890  0.4263  0.3044  0.0604
  755TIP3    H123680   6.722   3.487   3.967  1.2370 -0.2593 -0.0701
  755TIP3    H223681   6.752   3.399   3.847 -0.0078  0.6477 -1.0688
  756TIP3   OH223682   2.775   1.916  16.137 -0.1905 -0.0270 -0.5561
  756TIP3    H123683   2.791   1.823  16.153 -0.0430 -0.0674 -0.9587
  756TIP3    H223684   2.782   1.956  16.224 -1.3149 -0.5494 -0.2162
  757TIP3   OH223685   5.172   6.170  11.152 -0.6411 -0.2413  1.0359
  757TIP3    H123686   5.097   6.136  11.103  1.4485 -2.6926 -0.6189
  757TIP3    H223687   5.205   6.242  11.098 -0.3403 -0.7740  0.4999
  758TIP3   OH223688   6.328   3.526  15.628 -0.2167  0.1409  0.5477
  758TIP3    H123689   6.249   3.484  15.594  0.2950 -1.0549  0.7924
  758TIP3    H223690   6.398   3.464  15.606  0.5177  0.7537  1.1502
  759TIP3   OH223691   3.750   2.251  11.848  0.5300 -0.0345 -0.5154
  759TIP3    H123692   3.702   2.269  11.767  1.6198 -1.0682 -1.4196
  759TIP3    H223693   3.801   2.173  11.828  0.6017 -0.4683  1.2772
  760TIP3   OH223694   5.431   4.217   2.737 -0.1460 -0.3509  0.0192
  760TIP3    H123695   5.501   4.215   2.802  0.4645 -3.5776 -0.6455
  760TIP3    H223696   5.459   4.282   2.673  0.9450  0.3003  1.1243
  761TIP3   OH223697   5.519   4.312   3.480  0.2041 -0.1177 -0.4387
  761TIP3    H123698   5.585   4.267   3.426 -0.4905  0.2200 -1.5886
  761TIP3    H223699   5.478   4.242   3.530  0.0115 -0.5998 -1.2667
  762TIP3   OH223700   4.802   4.645   3.016 -0.3147 -0.1160 -0.5158
  762TIP3    H123701   4.792   4.664   3.109 -0.2244 -0.3996 -0.4488
  762TIP3    H223702   4.722   4.597   2.993 -0.8003  0.8141 -0.8090
  763TIP3   OH223703   0.686   4.728   3.465  0.4582  0.1534 -0.1162
  763TIP3    H123704   0.660   4.820   3.465 -0.0059  0.0247 -0.0225
  763TIP3    H223705   0.781   4.729   3.474  0.5555  0.6544 -1.2050
  764TIP3   OH223706   3.953   5.735  16.981 -0.4244 -0.1623  0.3083
  764TIP3    H123707   4.002   5.815  16.958  1.2782 -1.5291 -0.9579
  764TIP3    H223708   3.878   5.736  16.922 -0.2937  0.3814  0.1420
  765TIP3   OH223709   3.272   3.025   2.046 -0.5626 -0.0582  0.5354
  765TIP3    H123710   3.254   2.953   2.107 -1.2543 -1.0575 -0.8248
  765TIP3    H223711   3.194   3.029   1.991  0.4209  0.2718 -0.8444
  766TIP3   OH223712   2.955   0.215   3.633 -0.1361 -0.0522  0.0771
  766TIP3    H123713   3.050   0.209   3.629 -0.1461 -0.7251  0.7175
  766TIP3    H223714   2.937   0.309   3.629  0.6850  0.2253  2.0364
  767TIP3   OH223715   3.612   4.549  17.016 -0.3753  0.0736  0.2311
  767TIP3    H123716   3.607   4.640  16.988  1.2878 -0.0638 -0.5725
  767TIP3    H223717   3.680   4.548  17.083  0.2076 -0.7052 -0.3559
  768TIP3   OH223718   6.145   5.251   5.035  0.2981 -0.3876  0.3712
  768TIP3    H123719   6.132   5.336   5.077 -0.0587 -0.6797  0.8520
  768TIP3    H223720   6.085   5.192   5.080  0.2566 -0.8107 -0.2277
  769TIP3   OH223721   5.311   1.952   2.995  0.0009 -0.1343 -0.8410
  769TIP3    H123722   5.366   1.896   2.941 -0.2900 -0.0894 -1.1859
  769TIP3    H223723   5.224   1.911   2.992 -0.0024 -0.1572 -0.3714
  770TIP3   OH223724   5.215   2.893   5.449 -0.3046  0.9343 -0.2383
  770TIP3    H123725   5.252   2.859   5.367  1.4580 -0.0107  0.9260
  770TIP3    H223726   5.231   2.988   5.444  2.3622  0.5652  0.2345
  771TIP3   OH223727   1.964   6.250  12.057  0.2774 -0.4311  0.4776
  771TIP3    H123728   1.998   6.163  12.039  0.0589 -0.4524  0.1507
  771TIP3    H223729   2.039   6.299  12.090  0.2516 -0.9179  1.2552
  772TIP3   OH223730   0.414   4.805   1.525 -0.6994  0.2750  0.0132
  772TIP3    H123731   0.395   4.870   1.457  0.6208  0.4647 -0.2047
  772TIP3    H223732   0.379   4.843   1.606  0.6973  1.6100  0.0141
  773TIP3   OH223733   1.912   5.948  11.575  0.0295 -0.1924 -0.1102
  773TIP3    H123734   1.901   6.042  11.593  1.7085 -0.3133  1.8261
  773TIP3    H223735   1.849   5.905  11.632 -0.9154 -0.2561 -1.1816
  774TIP3   OH223736   5.704   1.552   5.823 -0.3437  0.3656  0.0131
  774TIP3    H123737   5.635   1.615   5.845  0.1391  1.1424 -0.6348
  774TIP3    H223738   5.726   1.511   5.906 -1.9640 -0.2821  0.1358
  775TIP3   OH223739   3.646   2.603   3.752 -0.1357 -0.1253 -0.3078
  775TIP3    H123740   3.635   2.691   3.790  1.8347  0.1406 -0.3044
  775TIP3    H223741   3.601   2.545   3.814 -1.4475  0.8583 -0.3036
  776TIP3   OH223742   4.954   5.276  16.039 -0.8033 -0.3444  0.7175
  776TIP3    H123743   5.010   5.200  16.027  2.0578  2.1140 -2.4144
  776TIP3    H223744   5.012   5.343  16.074 -2.0963  1.8010 -1.1118
  777TIP3   OH223745   1.542   0.366   4.276  0.2399 -0.1683  0.2663
  777TIP3    H123746   1.456   0.407   4.270  0.8057  0.9799 -0.1100
  777TIP3    H223747   1.541   0.321   4.361 -0.4489  0.4875  0.6119
  778TIP3   OH223748   1.928   6.225  11.209 -0.1579 -0.5174 -0.5101
  778TIP3    H123749   1.900   6.169  11.282 -1.7746 -0.8654 -1.3771
  778TIP3    H223750   2.023   6.227  11.216 -0.3326  0.0570  2.0497
  779TIP3   OH223751   6.661   6.555   1.756  0.4336  0.1613  0.4248
  779TIP3    H123752   6.682   6.648   1.761  0.7021  0.0518  1.6893
  779TIP3    H223753   6.746   6.511   1.751  0.3945 -0.0961  1.7255
  780TIP3   OH223754   1.516   0.983   0.709 -0.2662  0.3876  0.1137
  780TIP3    H123755   1.559   1.068   0.711 -0.7155  0.6467 -1.2384
  780TIP3    H223756   1.533   0.946   0.796  4.1962 -0.2422 -0.8942
  781TIP3   OH223757   1.370   0.387   4.536  0.2784 -0.2334  0.2851
  781TIP3    H123758   1.302   0.357   4.597  1.0721  0.5393  1.5842
  781TIP3    H223759   1.323   0.406   4.455 -1.1918  1.0043  1.3920
  782TIP3   OH223760   0.717   5.436   1.515  0.3779  0.2866 -0.1114
  782TIP3    H123761   0.642   5.390   1.476  1.5147 -1.6724 -0.0642
  782TIP3    H223762   0.707   5.421   1.610  0.0737  1.2062  0.0024
  783TIP3   OH223763   4.731   3.859  11.453 -0.0709 -0.4678 -0.0112
  783TIP3    H123764   4.653   3.831  11.405 -0.0026  0.8545 -0.9188
  783TIP3    H223765   4.716   3.828  11.542 -1.3326 -0.7877 -0.3178
  784TIP3   OH223766   0.707   5.942   5.855 -0.2728  0.0829  0.0250
  784TIP3    H123767   0.765   5.951   5.931  0.3207 -1.2419 -0.2480
  784TIP3    H223768   0.756   5.981   5.782  0.6409 -1.7097 -0.3629
  785TIP3   OH223769   2.791   5.044   1.751 -0.2411 -0.6421  0.0451
  785TIP3    H123770   2.767   5.131   1.782  0.5428 -0.3389 -0.1713
  785TIP3    H223771   2.731   4.985   1.796 -2.2912  0.1798 -1.5433
  786TIP3   OH223772   3.252   6.418   0.584  0.0137  0.0493  0.1525
  786TIP3    H123773   3.262   6.326   0.606 -1.7276 -0.0290  0.7398
  786TIP3    H223774   3.168   6.423   0.539  1.0849  1.0346 -1.8122
  787TIP3   OH223775   3.546   0.969   4.493  0.0988 -0.3651 -0.3297
  787TIP3    H123776   3.529   0.880   4.462  1.0974 -0.0795 -1.7763
  787TIP3    H223777   3.535   1.024   4.415 -0.7366  0.8145  0.5966
  788TIP3   OH223778   1.003   4.858  12.934  0.1772 -0.4574  0.3402
  788TIP3    H123779   0.943   4.918  12.891 -0.0017 -0.8348  0.0629
  788TIP3    H223780   1.085   4.906  12.940 -0.8403  1.1043  3.1260
  789TIP3   OH223781   5.540   2.109   3.403  0.0741  0.6232 -0.0071
  789TIP3    H123782   5.607   2.129   3.467 -1.1638 -0.7498  1.7916
  789TIP3    H223783   5.460   2.097   3.455 -0.8874 -0.8563 -1.7631
  790TIP3   OH223784   2.862   0.475  15.890  0.1401 -0.3797  0.4100
  790TIP3    H123785   2.915   0.552  15.912  1.6701 -1.2858 -0.0549
  790TIP3    H223786   2.821   0.450  15.973 -2.2499  2.2866  0.1313
  791TIP3   OH223787   2.828   1.658  13.570 -0.2430  0.2000  0.6124
  791TIP3    H123788   2.847   1.564  13.563  0.9075  0.5141 -1.0715
  791TIP3    H223789   2.743   1.663  13.613 -0.0796 -1.6028  1.1723
  792TIP3   OH223790   6.365   3.729  13.824 -0.4269 -0.1382  0.0053
  792TIP3    H123791   6.379   3.823  13.813  2.1008 -0.3877  0.7080
  792TIP3    H223792   6.441   3.688  13.781  0.5945 -1.6920  3.1641
  793TIP3   OH223793   4.650   5.006  12.233 -0.1791  0.6080  0.5562
  793TIP3    H123794   4.618   5.002  12.323  1.2008 -0.6235  1.0183
  793TIP3    H223795   4.615   5.088  12.198  1.1058  2.2110  2.9219
  794TIP3   OH223796   1.901   1.455   4.129 -0.3780 -0.3586  0.0915
  794TIP3    H123797   1.876   1.535   4.083 -0.9640  0.7506  2.2786
  794TIP3    H223798   1.995   1.464   4.144 -0.3349 -0.3498 -0.1844
  795TIP3   OH223799   0.901   0.049   3.865 -0.1884  0.6648  0.3166
  795TIP3    H123800   0.985   0.002   3.860  0.8921  2.5323  0.5903
  795TIP3    H223801   0.902   0.091   3.951 -0.7388  1.9427 -0.2928
  796TIP3   OH223802   3.284   4.994   3.388 -0.4778 -0.3230  0.7747
  796TIP3    H123803   3.328   5.037   3.315 -1.4993 -0.8186 -0.1543
  796TIP3    H223804   3.229   5.062   3.427 -0.1255 -0.1236  0.9214
  797TIP3   OH223805   4.175   2.416  12.394 -0.1873  0.1196  0.2348
  797TIP3    H123806   4.176   2.330  12.436 -1.2421 -0.5978 -1.1707
  797TIP3    H223807   4.227   2.404  12.315  1.1879  1.2698  0.9538
  798TIP3   OH223808   1.756   0.520  16.556  0.3925  0.1934  0.3200
  798TIP3    H123809   1.724   0.434  16.585  2.4719 -0.6295  0.2609
  798TIP3    H223810   1.760   0.514  16.461  1.4752 -0.0090  0.3690
  799TIP3   OH223811   5.054   6.002  16.192 -0.5673 -0.6161  0.5566
  799TIP3    H123812   4.992   5.943  16.149  0.3535 -1.4037  0.2785
  799TIP3    H223813   5.013   6.088  16.187 -0.4662 -0.6710 -1.9792
  800TIP3   OH223814   1.490   4.985  13.325  0.0889  0.3490 -0.0143
  800TIP3    H123815   1.427   4.976  13.254 -1.6282 -0.9619  1.6137
  800TIP3    H223816   1.572   5.007  13.282 -0.8131 -0.8474 -2.4353
  801TIP3   OH223817   3.543   0.508   3.379 -0.0527  0.3619  0.4486
  801TIP3    H123818   3.470   0.476   3.432  0.6125  2.5631  2.8121
  801TIP3    H223819   3.593   0.563   3.439  2.0154  1.0937 -1.8926
  802TIP3   OH223820   4.200   5.038  14.382  0.4808 -0.6822  0.6996
  802TIP3    H123821   4.203   5.126  14.344 -2.2306 -0.3776  1.0580
  802TIP3    H223822   4.250   5.045  14.463 -0.1867  0.6930  1.0134
  803TIP3   OH223823   0.475   5.331   1.408 -0.5383  0.4086  0.0907
  803TIP3    H123824   0.436   5.261   1.461  0.0363 -1.0827 -1.3883
  803TIP3    H223825   0.414   5.404   1.416 -2.0233 -0.8244  0.3475
  804TIP3   OH223826   5.375   3.228   2.459  1.3761 -0.2936  0.0132
  804TIP3    H123827   5.411   3.299   2.512  0.2540  1.1051 -1.0595
  804TIP3    H223828   5.309   3.187   2.516 -1.2726  2.4820 -0.9123
  805TIP3   OH223829   3.710   1.398   0.658  0.5881 -0.0868 -0.4309
  805TIP3    H123830   3.661   1.374   0.580 -0.8044 -0.9998  0.6933
  805TIP3    H223831   3.778   1.331   0.666  1.9743  1.0886 -1.8976
  806TIP3   OH223832   3.916   1.226   6.138 -0.1056  0.0006  0.0486
  806TIP3    H123833   3.971   1.300   6.165 -1.1961  1.2281 -1.0657
  806TIP3    H223834   3.876   1.195   6.219  1.1145  0.0099  0.6638
  807TIP3   OH223835   6.141   2.660  11.694  0.0782 -0.2555 -0.6339
  807TIP3    H123836   6.053   2.628  11.672 -0.3618  0.8229 -0.4797
  807TIP3    H223837   6.129   2.755  11.706  0.9895 -0.3127  0.7606
  808TIP3   OH223838   4.804   6.712   4.454  0.1049  0.0238  0.4279
  808TIP3    H123839   4.734   6.731   4.392  0.1904 -0.8869  0.0492
  808TIP3    H223840   4.884   6.735   4.407  0.1489 -0.3322  0.3292
  809TIP3   OH223841   2.574   0.896   4.047 -0.2191 -0.3953  0.4986
  809TIP3    H123842   2.532   0.881   4.131  0.1958 -0.8078  0.6322
  809TIP3    H223843   2.666   0.873   4.062 -0.2704 -1.0953 -0.2453
  810TIP3   OH223844   2.328   4.634  15.319 -0.2341  0.0504 -0.3639
  810TIP3    H123845   2.352   4.714  15.272 -0.3576 -0.5092 -1.4097
  810TIP3    H223846   2.384   4.566  15.281  0.3036 -0.2524  0.9469
  811TIP3   OH223847   5.854   6.716  16.082 -0.2588  0.1147  0.2754
  811TIP3    H123848   5.831   6.743  16.170 -0.4222 -0.9166  0.5541
  811TIP3    H223849   5.919   6.647  16.093  1.1804  1.3118 -0.4581
  812TIP3   OH223850   2.022   3.401  15.990 -0.3214  0.2584 -0.4741
  812TIP3    H123851   2.112   3.382  16.017 -0.8471  0.2737  1.3990
  812TIP3    H223852   1.983   3.315  15.975 -0.4465  0.1785  0.2889
  813TIP3   OH223853   4.885   6.771   2.604  0.3869 -0.4791 -0.1590
  813TIP3    H123854   4.855   6.714   2.533  0.4388  0.9307 -1.3480
  813TIP3    H223855   4.849   6.857   2.582  2.7988  0.6077 -0.0159
  814TIP3   OH223856   6.592   3.801  10.850  0.4393 -0.1042 -0.1019
  814TIP3    H123857   6.577   3.829  10.941 -1.4024 -0.1565 -0.3632
  814TIP3    H223858   6.515   3.832  10.803  0.1447 -2.3213 -1.1426
  815TIP3   OH223859   2.302   0.581  10.554  0.2892 -0.1077  0.5275
  815TIP3    H123860   2.384   0.553  10.513  1.2514 -0.5577  2.6726
  815TIP3    H223861   2.325   0.663  10.599 -0.6385  0.1564  0.5291
  816TIP3   OH223862   1.280   5.636  12.087 -0.4391  0.3538  0.2314
  816TIP3    H123863   1.332   5.716  12.078  0.1107  0.0461  0.6467
  816TIP3    H223864   1.283   5.616  12.181  1.2127 -1.3407 -0.1515
  817TIP3   OH223865   4.899   6.315  17.029  0.3949 -0.0063 -0.6808
  817TIP3    H123866   4.824   6.272  17.071  1.5246 -0.5366  0.8863
  817TIP3    H223867   4.861   6.378  16.969 -1.3114  0.3476  0.7306
  818TIP3   OH223868   1.333   1.391  15.158 -0.8061  0.2417  0.7054
  818TIP3    H123869   1.341   1.482  15.132 -0.9499  0.1730  0.4188
  818TIP3    H223870   1.238   1.375  15.160 -0.7699 -0.0042  0.4008
  819TIP3   OH223871   2.695   6.165  14.030 -0.1163 -0.5545  0.0781
  819TIP3    H123872   2.669   6.206  14.113  1.0632 -0.7986  0.5753
  819TIP3    H223873   2.779   6.206  14.008  1.0184 -2.5744  0.5194
  820TIP3   OH223874   0.942   5.130  11.448  0.0276 -0.1242 -0.1099
  820TIP3    H123875   1.036   5.115  11.438  0.1313 -0.3938  1.2023
  820TIP3    H223876   0.924   5.210  11.398  0.7131 -0.8096 -1.4567
  821TIP3   OH223877   0.503   1.163   2.278 -0.2375  0.2931 -0.4530
  821TIP3    H123878   0.487   1.251   2.246  0.1183  0.3233 -0.5505
  821TIP3    H223879   0.427   1.143   2.333 -1.1080  0.0228 -1.7464
  822TIP3   OH223880   1.123   4.196  16.676 -0.0308  0.0029 -0.1847
  822TIP3    H123881   1.183   4.270  16.673 -1.0921  0.8682 -0.1387
  822TIP3    H223882   1.038   4.234  16.698 -0.0149 -1.5338  2.8691
  823TIP3   OH223883   5.135   0.458  16.390 -0.4105 -0.1973 -0.4092
  823TIP3    H123884   5.172   0.520  16.327 -2.0233 -0.1953 -1.3670
  823TIP3    H223885   5.128   0.376  16.341 -1.4681 -0.2513 -0.1786
  824TIP3   OH223886   5.293   2.031  12.255 -0.3706  0.0399 -0.1788
  824TIP3    H123887   5.250   1.961  12.207 -0.9057  0.1812  0.0974
  824TIP3    H223888   5.269   2.017  12.347  1.7702 -1.0547  0.2516
  825TIP3   OH223889   2.418   5.372  17.090 -0.4956  0.0654  0.3583
  825TIP3    H123890   2.355   5.376  17.161 -1.3095 -0.3495 -0.3372
  825TIP3    H223891   2.375   5.416  17.017 -0.2441 -0.8044 -0.3196
  826TIP3   OH223892   5.802   2.429   1.618 -0.7031  0.5777  0.2935
  826TIP3    H123893   5.868   2.498   1.616 -0.4009  0.2734 -0.8129
  826TIP3    H223894   5.748   2.446   1.541 -0.9189 -0.1389  0.2799
  827TIP3   OH223895   3.083   1.152   5.449 -0.6128 -0.1596 -0.3445
  827TIP3    H123896   3.047   1.143   5.538  0.7908  1.6440  0.4515
  827TIP3    H223897   3.178   1.152   5.462 -0.4006  1.4583 -1.6849
  828TIP3   OH223898   1.268   1.105   3.001 -0.6454 -0.4043  0.2996
  828TIP3    H123899   1.347   1.052   2.996 -1.1666 -1.1551 -0.0907
  828TIP3    H223900   1.299   1.196   2.996  0.0342 -0.7255 -1.8586
  829TIP3   OH223901   0.468   0.316   3.722 -0.0934  0.1758 -0.4919
  829TIP3    H123902   0.549   0.272   3.696 -0.7578 -0.9944 -0.5956
  829TIP3    H223903   0.407   0.297   3.651 -0.7467  0.2474  0.0488
  830TIP3   OH223904   5.760   2.119   4.606 -0.3774  0.3524 -0.0133
  830TIP3    H123905   5.707   2.134   4.528 -0.2273  1.5313  0.0967
  830TIP3    H223906   5.849   2.112   4.573 -0.4195 -0.0854 -0.0389
  831TIP3   OH223907   3.475   1.630  16.682 -0.6666  0.0273 -0.8672
  831TIP3    H123908   3.387   1.666  16.668 -0.1901  1.8377  0.5814
  831TIP3    H223909   3.472   1.592  16.769 -0.1861 -0.4312 -1.0483
  832TIP3   OH223910   2.945   4.802  10.609 -0.2648 -0.6598  0.1011
  832TIP3    H123911   2.955   4.762  10.696  1.5958  0.0988  0.2688
  832TIP3    H223912   3.025   4.853  10.597 -2.2046  2.4732 -0.3859
  833TIP3   OH223913   3.151   5.970   0.789 -0.0867 -0.2713  0.1758
  833TIP3    H123914   3.142   6.052   0.837 -0.4664 -0.3878  0.3044
  833TIP3    H223915   3.245   5.954   0.786  0.1128  1.0315 -1.2992
  834TIP3   OH223916   0.082   3.643  15.466 -0.4520  0.2522 -1.1525
  834TIP3    H123917   0.165   3.597  15.454  0.2600  0.8007  1.3573
  834TIP3    H223918   0.015   3.575  15.453  0.5119 -0.9814  0.1576
  835TIP3   OH223919   4.100   4.695  15.855 -0.1746 -0.3531 -0.0749
  835TIP3    H123920   4.114   4.640  15.778  0.9354 -0.0092 -0.1421
  835TIP3    H223921   4.010   4.726  15.848 -1.1355 -2.9695  0.5017
  836TIP3   OH223922   0.312   5.083   1.954  0.3196 -0.9419 -0.0128
  836TIP3    H123923   0.220   5.066   1.976 -0.4448  1.2875 -1.4584
  836TIP3    H223924   0.337   5.008   1.899 -1.3781 -0.3060 -1.6996
  837TIP3   OH223925   2.821   2.578  12.504 -0.4009  0.3415  0.4426
  837TIP3    H123926   2.832   2.561  12.410 -1.7687  0.9413  0.1772
  837TIP3    H223927   2.781   2.498  12.538  0.2796  0.0456  0.5582
  838TIP3   OH223928   0.404   4.227  13.954 -0.3477  0.3019  0.1744
  838TIP3    H123929   0.392   4.133  13.964  1.7377  0.2412  2.5484
  838TIP3    H223930   0.330   4.266  14.001 -0.2572 -0.1449  0.6864
  839TIP3   OH223931   3.305   4.030   3.268 -0.2181 -0.0680  0.0628
  839TIP3    H123932   3.248   3.964   3.308  1.5459 -0.8011  1.4614
  839TIP3    H223933   3.335   3.989   3.186  0.3365 -0.7585  0.5992
  840TIP3   OH223934   1.673   3.032  15.057  0.1019 -0.3715  0.0821
  840TIP3    H123935   1.691   2.956  15.112  0.0095 -0.1553  0.4098
  840TIP3    H223936   1.758   3.075  15.047 -0.2118  0.6441  1.6167
  841TIP3   OH223937   6.412   3.087   3.812 -0.0154 -0.1243  0.2057
  841TIP3    H123938   6.436   2.995   3.813  0.7179  0.0617  0.5030
  841TIP3    H223939   6.471   3.128   3.876  0.3224  0.7062 -0.6196
  842TIP3   OH223940   3.250   5.867   1.786  0.1020  0.3231  0.3962
  842TIP3    H123941   3.264   5.897   1.876 -1.5168  1.8807  0.1587
  842TIP3    H223942   3.163   5.898   1.764  0.6302  0.2948 -1.8495
  843TIP3   OH223943   6.701   2.712   0.435  0.4010 -0.2174  0.0380
  843TIP3    H123944   6.706   2.617   0.447 -0.0385 -0.3467 -0.7472
  843TIP3    H223945   6.676   2.723   0.344 -1.2953  0.6034  0.5715
  844TIP3   OH223946   3.415   0.299   0.110  0.5703  0.0393  0.1147
  844TIP3    H123947   3.451   0.367   0.167  1.6825 -1.5631  1.3607
  844TIP3    H223948   3.483   0.232   0.107 -0.3342 -0.8323 -1.4445
  845TIP3   OH223949   0.275   0.968   2.844  0.3420 -0.0727  0.1786
  845TIP3    H123950   0.333   0.961   2.920 -0.6767 -0.2116  0.9461
  845TIP3    H223951   0.187   0.977   2.881 -0.1042  0.3958 -0.9769
  846TIP3   OH223952   2.689   5.016  15.749 -0.7049  0.7153 -0.5209
  846TIP3    H123953   2.755   5.010  15.818  0.5270  0.0171 -1.7480
  846TIP3    H223954   2.693   5.107  15.720  0.7995  0.3158 -1.6292
  847TIP3   OH223955   1.830   6.624  16.071  0.0315 -0.1303 -0.1444
  847TIP3    H123956   1.756   6.597  16.017 -0.2923 -1.3867  0.8773
  847TIP3    H223957   1.849   6.546  16.124  0.4599  1.0072  1.3881
  848TIP3   OH223958   5.285   1.289   2.494  0.3317  0.3389  0.5215
  848TIP3    H123959   5.327   1.324   2.573 -2.4288  0.6299  1.9053
  848TIP3    H223960   5.299   1.356   2.427  0.9942  0.9848  1.2964
  849TIP3   OH223961   2.308   5.716  16.697  0.8802 -0.6452  0.0626
  849TIP3    H123962   2.331   5.672  16.778  2.1421  1.3331  0.8078
  849TIP3    H223963   2.226   5.761  16.715  0.2636 -1.6123 -0.3019
  850TIP3   OH223964   5.428   5.072  13.451 -0.1528  0.4083  0.0365
  850TIP3    H123965   5.448   5.002  13.513 -0.7936 -0.1977 -0.4372
  850TIP3    H223966   5.514   5.111  13.431  0.1782 -0.0770  0.4956
  851TIP3   OH223967   2.529   1.681  13.254 -0.2832 -0.6139 -0.1606
  851TIP3    H123968   2.611   1.727  13.271  0.4750 -2.6839  1.9691
  851TIP3    H223969   2.514   1.694  13.160  0.7865  2.4335  0.0168
  852TIP3   OH223970   4.395   5.722  11.496  0.2062  0.2599  0.2871
  852TIP3    H123971   4.392   5.784  11.568 -0.2570 -0.0077  0.5024
  852TIP3    H223972   4.481   5.680  11.504  0.1783  0.2690  0.6512
  853TIP3   OH223973   5.611   0.022  11.816 -0.3854 -0.2897  0.3289
  853TIP3    H123974   5.557   0.091  11.775  1.1654 -0.6270 -2.4237
  853TIP3    H223975   5.557  -0.056  11.810 -0.3053 -0.2681 -0.8359
  854TIP3   OH223976   4.861   1.344   5.910  0.1807 -0.2953 -0.3023
  854TIP3    H123977   4.832   1.291   5.835 -1.0308  0.3294 -0.2951
  854TIP3    H223978   4.943   1.304   5.938  0.5809 -0.6199 -1.8923
  855TIP3   OH223979   3.162   3.947   4.642  0.2215  0.8936 -0.6517
  855TIP3    H123980   3.180   4.041   4.634 -2.4342  1.3820 -1.4564
  855TIP3    H223981   3.136   3.920   4.554 -1.1411 -0.1212  0.0479
  856TIP3   OH223982   2.978   4.308  11.559 -0.5777  0.7467  0.5143
  856TIP3    H123983   2.928   4.254  11.621  0.0399 -3.0410 -2.1485
  856TIP3    H223984   2.912   4.351  11.506 -1.0609  0.0309  0.5305
  857TIP3   OH223985   1.084   3.273  10.683  0.7389  0.2180  0.2427
  857TIP3    H123986   1.097   3.366  10.697  0.2581  0.0895  1.5930
  857TIP3    H223987   1.168   3.233  10.706  0.8878  0.2965 -0.1601
  858TIP3   OH223988   6.206   6.012  15.260  0.5301 -0.5104  0.3474
  858TIP3    H123989   6.111   6.001  15.266  0.1138  2.7476  0.7659
  858TIP3    H223990   6.235   5.943  15.200 -1.8499 -2.6256  1.5520
  859TIP3   OH223991   1.744   1.881  13.128  0.4854 -0.0527  0.4514
  859TIP3    H123992   1.699   1.801  13.157  2.2497 -1.6204 -0.9221
  859TIP3    H223993   1.831   1.874  13.167  1.4759 -0.0895 -1.6776
  860TIP3   OH223994   6.338   5.171  16.361  0.0841 -0.1032 -0.1193
  860TIP3    H123995   6.352   5.179  16.267  4.2948 -1.1134  0.2967
  860TIP3    H223996   6.400   5.233  16.400 -1.0470 -0.2564  1.9804
  861TIP3   OH223997   5.263   5.133  14.114 -0.4421 -0.1440  0.0074
  861TIP3    H123998   5.353   5.163  14.127  0.0509 -2.1400  1.3627
  861TIP3    H223999   5.261   5.105  14.022  0.6628 -1.1446  0.2661
  862TIP3   OH224000   0.848   5.872   2.925  0.1859  0.2986 -0.7128
  862TIP3    H124001   0.914   5.905   2.987 -0.9010  0.6010  0.3138
  862TIP3    H224002   0.838   5.780   2.948 -2.1115  0.9940  1.3724
  863TIP3   OH224003   1.548   1.965  15.661  0.0214 -0.1064  0.2652
  863TIP3    H124004   1.624   1.945  15.714 -0.1835 -0.5836  0.3865
  863TIP3    H224005   1.475   1.921  15.706 -0.2809  0.1460  0.0238
  864TIP3   OH224006   6.320   1.903  16.791  0.4417  0.3005  0.0871
  864TIP3    H124007   6.229   1.912  16.763  0.4588 -0.5877 -0.2687
  864TIP3    H224008   6.368   1.967  16.739  0.1328  0.2462 -0.2639
  865TIP3   OH224009   0.234   0.716   4.657  0.4408 -0.3800 -0.3964
  865TIP3    H124010   0.221   0.742   4.748 -0.0021 -0.8990 -0.3070
  865TIP3    H224011   0.289   0.637   4.662 -1.1648 -1.5397 -0.4566
  866TIP3   OH224012   0.532   4.466  10.772  0.1787  0.0996 -0.3725
  866TIP3    H124013   0.613   4.516  10.780  0.2868 -0.1769  0.2941
  866TIP3    H224014   0.510   4.470  10.679  0.4878  0.9077 -0.4111
  867TIP3   OH224015   3.941   1.963   1.877 -0.2927 -0.1583  0.4038
  867TIP3    H124016   3.959   1.888   1.934  2.0972 -1.0510 -1.4422
  867TIP3    H224017   4.017   2.021   1.889 -0.6202  0.4723 -0.5360
  868TIP3   OH224018   5.930   6.638  15.222 -0.3710  0.3873 -0.4307
  868TIP3    H124019   5.983   6.559  15.210  1.4232  1.5842 -0.5265
  868TIP3    H224020   5.928   6.651  15.316  0.5512  1.0394 -0.4998
  869TIP3   OH224021   2.512   6.655   1.876 -0.0724 -0.1772  0.3473
  869TIP3    H124022   2.519   6.581   1.936 -0.3173 -1.4104 -1.0827
  869TIP3    H224023   2.450   6.714   1.917  0.5046 -0.5367  1.7557
  870TIP3   OH224024   2.100   3.450   5.006  0.0559 -0.6553 -0.1272
  870TIP3    H124025   2.177   3.476   4.955 -1.0853 -0.8355 -1.9853
  870TIP3    H224026   2.036   3.422   4.941 -1.5039 -0.7594  1.4064
  871TIP3   OH224027   1.971   6.397  14.170 -0.1501  0.1391 -0.3403
  871TIP3    H124028   2.011   6.484  14.172  2.7468 -1.1133  0.1279
  871TIP3    H224029   1.983   6.363  14.258 -2.4455 -0.2635 -0.1619
  872TIP3   OH224030   4.700   2.475   6.541 -0.0747 -0.0187 -0.2290
  872TIP3    H124031   4.650   2.421   6.480  0.2328  0.3693 -0.8233
  872TIP3    H224032   4.746   2.411   6.596  1.4164 -0.3809 -1.8517
  873TIP3   OH224033   3.687   0.935   2.642 -0.1442  0.6129  0.8881
  873TIP3    H124034   3.668   0.847   2.673 -1.7971  0.5036 -0.3890
  873TIP3    H224035   3.615   0.989   2.674 -0.9643  0.8234 -1.2324
  874TIP3   OH224036   1.949   4.088  15.709 -0.0202  0.3901 -0.2742
  874TIP3    H124037   1.931   4.082  15.803 -0.1338 -1.8937 -0.4114
  874TIP3    H224038   1.940   4.181  15.689 -3.9394  0.4331  1.1917
  875TIP3   OH224039   6.688   5.669  17.182  0.3399 -0.2127  0.5053
  875TIP3    H124040   6.597   5.677  17.152  0.0523  0.5762  1.5693
  875TIP3    H224041   6.731   5.619  17.113  0.1268  3.1376 -2.1719
  876TIP3   OH224042   6.379   6.058   2.749 -0.1367 -0.1827 -0.4032
  876TIP3    H124043   6.290   6.093   2.756 -0.4186 -1.4336  2.5503
  876TIP3    H224044   6.432   6.134   2.723 -1.5610  1.2884  0.9055
  877TIP3   OH224045   1.127   6.508   6.031  0.2303  0.1506  0.0347
  877TIP3    H124046   1.084   6.462   6.104  1.4046  0.6470  1.0590
  877TIP3    H224047   1.070   6.583   6.014 -0.9944 -0.9358 -0.7661
  878TIP3   OH224048   5.554   3.003  16.550 -0.8037 -0.1102 -0.1368
  878TIP3    H124049   5.637   3.039  16.518 -0.2464 -0.2677  1.0945
  878TIP3    H224050   5.581   2.935  16.612 -1.8583  0.1004  0.5556
  879TIP3   OH224051   2.489   1.241   3.830  0.2081  0.0823  0.1980
  879TIP3    H124052   2.507   1.273   3.741  0.5558 -1.4565 -0.2870
  879TIP3    H224053   2.569   1.198   3.858  0.0344  0.3862  1.1959
  880TIP3   OH224054   0.086   0.104   2.175 -0.4093 -0.5411  0.4654
  880TIP3    H124055  -0.003   0.072   2.168 -0.4499 -0.1091 -1.5362
  880TIP3    H224056   0.131   0.065   2.099  0.7781  0.1866  0.7814
  881TIP3   OH224057   0.332   6.161  16.856  0.1845  0.4106 -0.2056
  881TIP3    H124058   0.358   6.225  16.790 -1.1840  2.7509  1.4489
  881TIP3    H224059   0.408   6.151  16.912  0.3487  0.7051 -0.3776
  882TIP3   OH224060   0.238   1.234  15.872 -0.6002  0.1359 -0.3159
  882TIP3    H124061   0.202   1.149  15.847  0.7189 -0.6631  0.4279
  882TIP3    H224062   0.162   1.287  15.896 -1.4316 -0.8100 -0.8573
  883TIP3   OH224063   4.772   2.192   4.159 -0.3761 -0.5255 -0.8714
  883TIP3    H124064   4.860   2.157   4.151 -0.5848 -1.0190 -1.0237
  883TIP3    H224065   4.777   2.280   4.121  0.1474 -0.3854 -0.4791
  884TIP3   OH224066   0.486   6.585  16.069  0.5047  0.6344  0.2245
  884TIP3    H124067   0.487   6.612  16.161  0.8485 -0.9228  0.6978
  884TIP3    H224068   0.397   6.551  16.055  0.5245  0.6525  0.0574
  885TIP3   OH224069   6.747   4.123  11.633 -0.2789 -0.0040 -0.6025
  885TIP3    H124070   6.675   4.096  11.691 -0.3201 -0.3233 -0.8015
  885TIP3    H224071   6.825   4.086  11.674 -0.1776  0.6832 -0.1689
  886TIP3   OH224072   0.097   3.053   4.572  0.0088 -0.4687 -0.3371
  886TIP3    H124073   0.129   3.109   4.501 -0.9850  0.1115 -0.3367
  886TIP3    H224074   0.173   3.043   4.630 -0.2211  2.3023  0.5401
  887TIP3   OH224075   3.648   6.365  14.445  0.4516 -0.2708  0.2564
  887TIP3    H124076   3.624   6.297  14.382  0.8025  2.6065 -3.1869
  887TIP3    H224077   3.567   6.416  14.456  0.7220 -0.0433  1.2106
  888TIP3   OH224078   2.389   3.930   3.124 -0.5526 -0.0797 -0.6811
  888TIP3    H124079   2.373   3.839   3.150 -0.0133 -0.2504 -0.9312
  888TIP3    H224080   2.434   3.968   3.199  0.6504 -0.4633 -1.1900
  889TIP3   OH224081   1.991   4.990   4.323 -0.0663  0.5760  0.2316
  889TIP3    H124082   2.058   4.977   4.256  0.5660  1.0732  0.7571
  889TIP3    H224083   2.037   5.034   4.394 -0.4245 -1.1199  1.5313
  890TIP3   OH224084   2.117   3.630  11.712 -0.2353 -0.4111 -0.2257
  890TIP3    H124085   2.039   3.654  11.662 -0.2744 -0.9710 -0.4405
  890TIP3    H224086   2.189   3.640  11.649  0.1649  2.2002  0.5594
  891TIP3   OH224087   3.652   3.315  13.746 -0.0420 -0.1351 -0.2415
  891TIP3    H124088   3.684   3.239  13.697  0.3512  0.0455 -0.2653
  891TIP3    H224089   3.698   3.390  13.709 -0.7588  0.1781 -0.5243
  892TIP3   OH224090   3.440   6.556   1.377  0.2127  0.3036 -0.1080
  892TIP3    H124091   3.440   6.587   1.286 -0.3815 -0.4663 -0.3727
  892TIP3    H224092   3.531   6.534   1.394  0.4561  1.1339 -0.2772
  893TIP3   OH224093   3.787   2.569   1.073  0.6324 -0.4681  0.3574
  893TIP3    H124094   3.819   2.582   1.162 -0.9680 -1.5015  1.1205
  893TIP3    H224095   3.792   2.474   1.059  0.2560 -0.3855 -0.4079
  894TIP3   OH224096   1.215   2.947   1.339 -0.1202  0.2340  0.1766
  894TIP3    H124097   1.267   3.013   1.385 -1.2381  2.0021 -1.0632
  894TIP3    H224098   1.271   2.869   1.340  1.2064  1.1615  1.6874
  895TIP3   OH224099   4.297   5.221  12.870 -0.5618 -0.0347 -0.2261
  895TIP3    H124100   4.290   5.150  12.806 -1.9843 -0.7385  0.6846
  895TIP3    H224101   4.212   5.222  12.914 -0.2283  1.6294  0.4170
  896TIP3   OH224102   6.438   2.526  14.359  0.2608 -0.2117 -0.0254
  896TIP3    H124103   6.443   2.442  14.406  4.1020 -0.6312 -1.0695
  896TIP3    H224104   6.498   2.583  14.407  0.3739  0.8686 -1.4569
  897TIP3   OH224105   5.435   4.348  12.913  0.5184 -0.0970  0.1341
  897TIP3    H124106   5.462   4.337  12.822  1.3329  0.1557  0.3432
  897TIP3    H224107   5.516   4.360  12.961 -0.0061  2.0117  0.5839
  898TIP3   OH224108   4.885   2.458   1.186 -0.1699 -0.3690 -0.4674
  898TIP3    H124109   4.834   2.538   1.172 -0.5050 -0.8595 -2.0728
  898TIP3    H224110   4.826   2.387   1.161  0.8241 -1.0170 -1.0055
  899TIP3   OH224111   4.342   3.037  12.593  0.2663 -0.3906 -0.1425
  899TIP3    H124112   4.253   3.007  12.573  0.7808 -1.5993 -0.6780
  899TIP3    H224113   4.365   2.993  12.675  0.3566 -0.0499  0.0174
  900TIP3   OH224114   6.468   3.038  17.120  0.2161 -0.4656 -0.0817
  900TIP3    H124115   6.452   2.948  17.094 -2.6441 -0.4696  1.5368
  900TIP3    H224116   6.531   3.032  17.192 -0.9646 -1.2605  0.8907
  901TIP3   OH224117   3.536   0.500   0.270  0.3933 -0.0348 -0.0438
  901TIP3    H124118   3.575   0.558   0.204 -0.4045  0.0629 -0.4360
  901TIP3    H224119   3.608   0.445   0.299  0.6805 -0.2912 -1.2273
  902TIP3   OH224120   6.424   5.009  11.661  0.7594  0.4216  0.1596
  902TIP3    H124121   6.421   5.037  11.569 -1.5626  3.6636  1.1477
  902TIP3    H224122   6.342   4.961  11.674  0.3829  1.2673  0.9215
  903TIP3   OH224123   5.359   1.803  14.357  0.6808 -0.1264 -0.3700
  903TIP3    H124124   5.271   1.840  14.364  0.0367 -1.3459 -1.8336
  903TIP3    H224125   5.408   1.845  14.428 -0.7628  1.4279 -0.2600
  904TIP3   OH224126   4.878   3.309   3.595 -0.1115 -0.5195 -1.3065
  904TIP3    H124127   4.908   3.391   3.558 -0.1309 -0.9201 -2.2157
  904TIP3    H224128   4.929   3.299   3.676  1.8183 -0.9147 -2.5253
  905TIP3   OH224129   2.613   6.335   5.213 -0.0418  0.2648 -0.2870
  905TIP3    H124130   2.616   6.329   5.117  0.7574  0.8566 -0.2988
  905TIP3    H224131   2.585   6.425   5.230  2.8673  1.1472  0.0647
  906TIP3   OH224132   4.904   4.101  14.921  0.3437 -0.1188 -0.2265
  906TIP3    H124133   4.846   4.031  14.892  0.3805 -0.6483  0.9409
  906TIP3    H224134   4.992   4.066  14.908  0.4008  0.3922 -1.2777
  907TIP3   OH224135   3.735   0.257   4.345  0.3715 -0.3682 -0.3964
  907TIP3    H124136   3.748   0.322   4.414 -1.0361 -1.2263  0.6931
  907TIP3    H224137   3.680   0.190   4.385  0.5947 -1.5164 -1.9641
  908TIP3   OH224138   0.701   6.382   3.521 -0.7955 -0.1427  0.3896
  908TIP3    H124139   0.766   6.415   3.459 -0.2915 -1.4163  0.2141
  908TIP3    H224140   0.622   6.368   3.468 -0.8689  0.3392  0.3731
  909TIP3   OH224141   6.109   1.750   0.035  0.2060  0.2699 -0.1753
  909TIP3    H124142   6.129   1.667  -0.007  1.3424  0.5798 -0.2786
  909TIP3    H224143   6.178   1.810   0.004 -0.0848  1.0088  0.5787
  910TIP3   OH224144   4.202   5.624   0.866 -0.3316  0.1302 -0.1380
  910TIP3    H124145   4.119   5.587   0.836 -0.0750 -1.1574  0.7026
  910TIP3    H224146   4.177   5.684   0.936 -0.6772  0.8790 -0.8970
  911TIP3   OH224147   6.228   4.122  12.716 -0.1011 -0.0047  0.0338
  911TIP3    H124148   6.287   4.156  12.783  0.9351  0.5141 -1.1262
  911TIP3    H224149   6.226   4.190  12.649  0.4494 -1.3789 -1.3933
  912TIP3   OH224150   6.778   5.991   2.659 -0.6694  0.1116  0.2104
  912TIP3    H124151   6.868   5.960   2.651 -0.5591  0.2461  0.9218
  912TIP3    H224152   6.741   5.979   2.572  0.0476  0.0895 -0.0927
  913TIP3   OH224153   1.336   4.721  16.172 -0.5718  0.6602 -0.3081
  913TIP3    H124154   1.255   4.713  16.223 -0.3713 -3.1020 -0.4138
  913TIP3    H224155   1.308   4.701  16.082  0.6086 -1.6159 -0.1887
  914TIP3   OH224156   2.764   5.462   0.854 -0.9011  0.3957  0.4645
  914TIP3    H124157   2.677   5.495   0.830 -1.0373  0.7940  1.4601
  914TIP3    H224158   2.792   5.412   0.778 -0.6805  2.8384 -1.1326
  915TIP3   OH224159   5.975   3.415  16.159 -0.0025 -0.4031  0.2457
  915TIP3    H124160   5.955   3.368  16.078 -1.3873  1.2079 -0.3594
  915TIP3    H224161   5.899   3.401  16.215 -1.0547  2.1842 -0.4532
  916TIP3   OH224162   4.517   3.480  14.232 -0.2919 -0.3307 -0.2689
  916TIP3    H124163   4.478   3.427  14.162 -0.8468 -0.7186  0.3260
  916TIP3    H224164   4.455   3.553  14.243 -0.3071 -0.3788 -0.0459
  917TIP3   OH224165   1.673   3.605   4.378  0.2221  0.1289 -0.0252
  917TIP3    H124166   1.735   3.628   4.309  0.0143 -0.5890 -0.4596
  917TIP3    H224167   1.710   3.525   4.417 -0.9467 -0.8792 -0.9589
  918TIP3   OH224168   2.938   0.525  11.777 -0.4637  0.4439 -0.6299
  918TIP3    H124169   3.015   0.556  11.731 -0.5923 -0.2886 -1.3343
  918TIP3    H224170   2.866   0.539  11.716 -0.5787 -0.8790 -0.8186
  919TIP3   OH224171   6.186   0.847  14.198  0.3584 -0.2445 -0.5621
  919TIP3    H124172   6.140   0.789  14.137 -0.9492  1.6698 -1.4630
  919TIP3    H224173   6.124   0.861  14.270  0.9496 -0.5569  0.0095
  920TIP3   OH224174   3.237   3.709   3.475 -0.4607 -0.4973  0.1157
  920TIP3    H124175   3.218   3.755   3.556 -1.8524  0.5771 -0.7935
  920TIP3    H224176   3.328   3.732   3.454 -0.5142  0.2478  0.7006
  921TIP3   OH224177   4.428   0.145   2.598  0.5466  0.0701  0.4662
  921TIP3    H124178   4.362   0.211   2.573 -1.2703 -1.5037  0.9724
  921TIP3    H224179   4.428   0.147   2.694  0.3398 -0.7996  0.4871
  922TIP3   OH224180   1.434   5.017   3.080 -0.3900 -0.0204  0.8893
  922TIP3    H124181   1.510   5.073   3.062 -1.4373  1.2183  0.2456
  922TIP3    H224182   1.444   4.943   3.021 -0.5040  0.9114 -0.3032
  923TIP3   OH224183   3.347   4.510  14.102  0.1864 -0.6710 -0.3608
  923TIP3    H124184   3.271   4.482  14.051 -0.0714 -1.7663  0.5969
  923TIP3    H224185   3.387   4.428  14.132  1.2389 -0.0783 -0.1212
  924TIP3   OH224186   0.034   4.126  13.356 -0.4408 -0.3095  0.2486
  924TIP3    H124187  -0.046   4.076  13.368 -1.7977  1.4082 -1.3848
  924TIP3    H224188   0.010   4.198  13.297  1.9467  1.0481  0.8283
  925TIP3   OH224189   3.179   3.141  14.215  0.2564  0.3418  0.5674
  925TIP3    H124190   3.256   3.156  14.271  0.3521  0.3521  0.4337
  925TIP3    H224191   3.206   3.072  14.156  0.2222  0.4678  0.4040
  926TIP3   OH224192   5.576   2.501  10.685 -0.1080 -0.6902 -0.1518
  926TIP3    H124193   5.530   2.419  10.702  0.0886 -0.9712 -0.9743
  926TIP3    H224194   5.666   2.484  10.712  0.0464 -0.9097 -0.8042
  927TIP3   OH224195   4.129   2.288   6.318  0.1833  0.5129  0.2804
  927TIP3    H124196   4.224   2.279   6.327  0.0016 -1.6394  0.2036
  927TIP3    H224197   4.093   2.224   6.379 -1.1886 -0.9960 -2.0188
  928TIP3   OH224198   5.190   5.739   5.255 -0.0059  0.4139  0.9366
  928TIP3    H124199   5.195   5.665   5.195 -1.4221  1.1208 -0.0841
  928TIP3    H224200   5.177   5.699   5.341  1.7053 -0.5962  0.7432
  929TIP3   OH224201   5.452   2.136   2.027 -0.4436 -0.1880 -0.0184
  929TIP3    H124202   5.470   2.220   2.069  1.1794 -0.4692 -0.1204
  929TIP3    H224203   5.441   2.074   2.099  1.4333 -0.4880  0.0431
  930TIP3   OH224204   4.623   4.683   2.200  0.0032  0.4068  0.1312
  930TIP3    H124205   4.673   4.624   2.257 -2.4582 -0.7819  1.1296
  930TIP3    H224206   4.571   4.625   2.145 -1.8847  1.6344  0.5912
  931TIP3   OH224207   0.496   1.720  13.976 -0.6663 -0.4559 -0.0090
  931TIP3    H124208   0.403   1.703  13.992 -0.8419  1.0144  0.6499
  931TIP3    H224209   0.537   1.711  14.062 -0.1860 -1.1059 -0.2983
  932TIP3   OH224210   6.185   5.390  11.663  0.1802 -0.1866 -0.2134
  932TIP3    H124211   6.225   5.331  11.727  0.9196  0.5017 -0.0239
  932TIP3    H224212   6.255   5.405  11.599  0.4498  1.5490  0.4728
  933TIP3   OH224213   2.844   4.634  14.221  0.3299  0.0199  0.0168
  933TIP3    H124214   2.763   4.660  14.267  0.0914  0.5071 -0.6639
  933TIP3    H224215   2.868   4.550  14.260 -0.4911 -0.1125  0.2566
  934TIP3   OH224216   1.214   3.551   2.341 -0.5485  0.2276 -0.0677
  934TIP3    H124217   1.267   3.475   2.363  1.9686  2.4850  2.0631
  934TIP3    H224218   1.217   3.556   2.245  0.5651 -1.4292 -0.1388
  935TIP3   OH224219   0.441   4.597   1.929  0.2679  0.1859 -0.0635
  935TIP3    H124220   0.534   4.608   1.949  0.8435 -2.1310 -1.3133
  935TIP3    H224221   0.431   4.505   1.907 -2.3530  0.3809  0.0451
  936TIP3   OH224222   6.588   2.281   5.460  0.2356 -0.0194 -0.5824
  936TIP3    H124223   6.537   2.358   5.484 -0.2821 -0.3641 -0.5552
  936TIP3    H224224   6.585   2.225   5.537  2.4546  0.8832  0.1809
  937TIP3   OH224225   6.360   2.771   0.254 -0.1345 -0.0911 -0.5255
  937TIP3    H124226   6.277   2.769   0.302 -0.1724  0.3975 -0.5659
  937TIP3    H224227   6.339   2.734   0.169 -0.6509  1.3601 -1.0474
  938TIP3   OH224228   0.654   0.067   2.315 -0.4161  0.8253 -0.1661
  938TIP3    H124229   0.685   0.142   2.366 -0.2543  0.0283  0.9259
  938TIP3    H224230   0.729   0.043   2.260 -0.0714  0.7329  0.3410
  939TIP3   OH224231   2.441   4.193  12.873  0.0494  0.3387  0.3778
  939TIP3    H124232   2.482   4.162  12.953  2.0388  0.5843 -0.5027
  939TIP3    H224233   2.405   4.279  12.896  1.0662  0.6397  0.8808
  940TIP3   OH224234   3.529   0.421   0.727 -0.1162  0.3007  0.1036
  940TIP3    H124235   3.487   0.348   0.773 -0.7453  1.4485  1.3944
  940TIP3    H224236   3.490   0.420   0.640  1.1643 -1.9707 -0.4855
  941TIP3   OH224237   1.031   0.116   4.135  0.4094  0.3394 -0.1753
  941TIP3    H124238   1.107   0.091   4.081  0.3656  2.5310 -1.3045
  941TIP3    H224239   1.028   0.049   4.203  1.6833 -1.3720 -1.7209
  942TIP3   OH224240   4.443   3.003  16.329  0.4045 -0.4414  0.4216
  942TIP3    H124241   4.527   2.961  16.342  1.0729  1.0741  1.1655
  942TIP3    H224242   4.383   2.956  16.388  1.1910 -0.1842  1.4303
  943TIP3   OH224243   3.106   2.489  11.687 -0.3982  0.1318 -0.1535
  943TIP3    H124244   3.065   2.488  11.774 -1.7806  1.7971 -0.7758
  943TIP3    H224245   3.033   2.481  11.626  0.4240  0.7001 -1.2175
  944TIP3   OH224246   2.538   0.794  13.455  0.0853 -0.0752  0.7136
  944TIP3    H124247   2.589   0.794  13.537  0.6775  0.1115  0.3470
  944TIP3    H224248   2.564   0.875  13.411  0.9005 -0.9074 -0.3568
  945TIP3   OH224249   2.066   4.647   3.082 -0.1890  0.2726  0.1994
  945TIP3    H124250   2.128   4.701   3.033 -0.1042  0.5889  0.6532
  945TIP3    H224251   2.085   4.666   3.174 -1.0940  0.5297  0.3346
  946TIP3   OH224252   4.384   3.792   0.987 -0.0743  0.6122  0.4857
  946TIP3    H124253   4.341   3.777   0.903  1.4175  0.0120 -0.1860
  946TIP3    H224254   4.312   3.812   1.047 -0.9786  2.9569 -1.3219
  947TIP3   OH224255   0.671   2.201   6.519 -0.0654  0.2013  0.1614
  947TIP3    H124256   0.613   2.155   6.458  0.3166  0.9223 -0.7481
  947TIP3    H224257   0.732   2.134   6.549 -0.2639 -0.1572 -0.2273
  948TIP3   OH224258   5.903   1.805   0.779 -0.1893  0.3571 -0.2878
  948TIP3    H124259   5.925   1.717   0.807 -1.6079  0.4077  1.0441
  948TIP3    H224260   5.825   1.795   0.726  0.0845  0.7395 -0.7748
  949TIP3   OH224261   6.093   3.369   1.017  0.0144  0.2313  0.0947
  949TIP3    H124262   6.116   3.277   1.029 -1.9954 -0.8817 -3.7350
  949TIP3    H224263   6.012   3.380   1.066  1.8802  0.8707  3.1696
  950TIP3   OH224264   1.156   5.725  13.781  0.0102 -0.3412  0.3785
  950TIP3    H124265   1.240   5.705  13.821  0.8173  0.7546 -0.7534
  950TIP3    H224266   1.165   5.699  13.690 -0.8305 -0.1015  0.2150
  951TIP3   OH224267   3.276   3.554  16.087  0.2811  0.5714 -0.2954
  951TIP3    H124268   3.364   3.587  16.069  1.7721 -3.1200 -0.1390
  951TIP3    H224269   3.242   3.525  16.002  0.3809 -0.6628  0.0722
  952TIP3   OH224270   5.712   1.619  16.310  0.0579 -0.5182 -0.5591
  952TIP3    H124271   5.692   1.528  16.334 -0.7338 -0.1309  0.2801
  952TIP3    H224272   5.656   1.636  16.234 -0.0819 -0.6100 -0.4762
  953TIP3   OH224273   6.569   4.375  15.727  0.1931  0.2262 -0.3530
  953TIP3    H124274   6.603   4.313  15.792 -0.0839  1.1447  0.6782
  953TIP3    H224275   6.637   4.441  15.718 -0.4644  1.0003  0.2482
  954TIP3   OH224276   2.723   2.308  15.001  0.3532  0.6482 -0.2274
  954TIP3    H124277   2.712   2.373  15.070 -0.0855  0.3125  0.0164
  954TIP3    H224278   2.816   2.314  14.977  1.2209 -1.3290  2.4620
  955TIP3   OH224279   1.971   0.995  14.909  0.4453  0.1795 -0.4395
  955TIP3    H124280   2.020   0.928  14.956 -0.1770  0.0427  0.0216
  955TIP3    H224281   2.026   1.073  14.915  0.6310  0.0179  0.0265
  956TIP3   OH224282   6.304   5.102   1.151  0.7019  0.0947 -0.6421
  956TIP3    H124283   6.299   5.024   1.206  1.2434 -0.9661 -2.0778
  956TIP3    H224284   6.214   5.134   1.146  0.1786 -1.4710 -1.5081
  957TIP3   OH224285   5.809   6.419  14.867  0.0519  0.2179  0.5629
  957TIP3    H124286   5.845   6.342  14.909  1.7863  1.0957  0.7180
  957TIP3    H224287   5.855   6.424  14.783 -1.0241  0.3327 -0.0340
  958TIP3   OH224288   2.708   3.127   0.865  0.5560 -0.7231  0.6101
  958TIP3    H124289   2.772   3.114   0.795 -2.6849  0.9030 -2.8179
  958TIP3    H224290   2.644   3.057   0.852  0.6876 -1.3099  2.9288
  959TIP3   OH224291   4.890   2.786   3.947  0.5282 -0.0254 -0.3347
  959TIP3    H124292   4.814   2.798   3.889  1.5687  0.5942 -1.5943
  959TIP3    H224293   4.932   2.871   3.950  0.9165 -0.2534  0.7358
  960TIP3   OH224294   2.914   0.443  12.057 -0.1749  0.0301 -0.7268
  960TIP3    H124295   2.923   0.522  12.003  2.5639  1.9551  2.3892
  960TIP3    H224296   2.986   0.387  12.029 -0.2627 -0.0616 -0.7718
  961TIP3   OH224297   3.768   3.846   2.643 -0.0123  0.2034  0.0481
  961TIP3    H124298   3.698   3.885   2.695  0.5375 -0.7773  1.5475
  961TIP3    H224299   3.763   3.891   2.558 -1.2314  1.4683  0.7773
  962TIP3   OH224300   6.580   0.012   3.165 -0.1189 -0.7637  0.1325
  962TIP3    H124301   6.491  -0.021   3.155 -0.0893 -1.5909  2.3371
  962TIP3    H224302   6.576   0.070   3.242  1.8735 -3.2628  2.2041
  963TIP3   OH224303   4.096   2.430   2.767  0.2048  0.1594 -1.1013
  963TIP3    H124304   4.155   2.483   2.820 -1.0913  1.2523 -0.7394
  963TIP3    H224305   4.154   2.377   2.712  1.5182  1.2787 -0.8056
  964TIP3   OH224306   1.947   2.526  12.362 -0.1859  0.3931  0.3529
  964TIP3    H124307   1.892   2.545  12.286  1.7364  0.1228 -1.1386
  964TIP3    H224308   1.908   2.576  12.434 -3.5151 -1.3094 -0.1784
  965TIP3   OH224309   3.370   0.702   1.719 -0.0323 -0.0048 -0.7221
  965TIP3    H124310   3.347   0.767   1.652 -0.4705 -0.0720 -0.6341
  965TIP3    H224311   3.294   0.644   1.724  0.2749 -0.3984 -0.6460
  966TIP3   OH224312   5.755   4.911  15.347 -0.5773 -0.3205 -0.1456
  966TIP3    H124313   5.769   4.859  15.268  0.7077  1.2462 -0.9859
  966TIP3    H224314   5.842   4.939  15.373 -1.1894  1.0500  0.5172
  967TIP3   OH224315   4.506   2.649  11.763  0.7369  0.1313  0.2378
  967TIP3    H124316   4.501   2.715  11.832  0.0745 -0.4729  0.7757
  967TIP3    H224317   4.579   2.677  11.708  0.3479  1.4050  0.3629
  968TIP3   OH224318   1.682   1.994   0.326 -0.3029  0.3959 -0.3339
  968TIP3    H124319   1.599   2.042   0.327 -1.1578 -1.0748 -0.1963
  968TIP3    H224320   1.662   1.908   0.362  1.6513  0.5766  1.2829
  969TIP3   OH224321   6.353   2.469  11.680  0.1904 -0.0875  0.0797
  969TIP3    H124322   6.424   2.518  11.639  0.2311  0.3232  0.6256
  969TIP3    H224323   6.282   2.533  11.688 -0.0738 -0.3661 -0.0228
  970TIP3   OH224324   2.565   3.136  15.185  0.5418 -0.3049 -0.1605
  970TIP3    H124325   2.553   3.056  15.134 -0.0924  0.5647 -1.3976
  970TIP3    H224326   2.605   3.107  15.267 -0.7574 -2.0257 -0.1261
  971TIP3   OH224327   2.997   2.095  14.711  0.8217 -0.0216 -0.4508
  971TIP3    H124328   2.947   2.108  14.791 -0.2198 -1.2163 -0.8769
  971TIP3    H224329   3.069   2.157  14.717 -0.9304  2.0202 -0.0043
  972TIP3   OH224330   3.334   5.751  13.138  0.2076  0.2926 -0.0176
  972TIP3    H124331   3.406   5.781  13.082  0.0564  0.2768 -0.2210
  972TIP3    H224332   3.322   5.821  13.202 -1.3058  1.4642 -1.5443
  973TIP3   OH224333   1.578   5.841   5.155  0.5907  0.4060  0.2364
  973TIP3    H124334   1.489   5.810   5.168  1.1289 -1.4192 -0.1714
  973TIP3    H224335   1.625   5.815   5.234  1.2228 -0.5172 -0.4222
  974TIP3   OH224336   3.127   0.198  13.034 -0.0337  0.0957 -0.6812
  974TIP3    H124337   3.177   0.118  13.019 -2.3247 -1.4147 -0.6536
  974TIP3    H224338   3.171   0.240  13.108 -0.7616 -2.9551  1.6384
  975TIP3   OH224339   4.850   0.459  15.310  0.9467  0.5489 -0.4395
  975TIP3    H124340   4.833   0.455  15.216 -0.8371 -0.0372 -0.1001
  975TIP3    H224341   4.773   0.502  15.347  1.6585  0.8242  0.7601
  976TIP3   OH224342   3.738   1.219   3.909 -0.2396 -0.4242 -0.5656
  976TIP3    H124343   3.721   1.251   3.997 -0.7040 -0.5635 -0.6013
  976TIP3    H224344   3.653   1.185   3.879  0.2657 -1.7565 -0.4953
  977TIP3   OH224345   6.047   0.660  14.006  0.0003 -0.0648  0.1372
  977TIP3    H124346   5.974   0.693  13.952  0.7990 -0.7890 -1.4206
  977TIP3    H224347   6.005   0.605  14.071 -1.0058  0.9204  0.3488
  978TIP3   OH224348   1.841   5.649  12.458  0.6989  0.0188  0.0466
  978TIP3    H124349   1.798   5.644  12.373 -0.0088  1.2909  0.3143
  978TIP3    H224350   1.914   5.709  12.444  0.4418  0.4172  0.3759
  979TIP3   OH224351   0.675   6.269  16.616 -0.2725 -0.4946 -0.1577
  979TIP3    H124352   0.769   6.252  16.610 -0.3667 -1.0205 -0.1463
  979TIP3    H224353   0.669   6.355  16.659  0.1719 -1.3175  1.5913
  980TIP3   OH224354   0.448   5.655   4.710  0.2204  0.0892  0.3401
  980TIP3    H124355   0.439   5.751   4.706  0.1984  0.1230  1.1160
  980TIP3    H224356   0.539   5.639   4.684  0.7357  0.4525  1.8942
  981TIP3   OH224357   2.836   6.682  13.178 -0.2250  0.1125 -0.0336
  981TIP3    H124358   2.745   6.703  13.201 -0.2254 -0.0103  0.0705
  981TIP3    H224359   2.840   6.699  13.084 -0.7253 -1.2038 -0.2988
  982TIP3   OH224360   3.443   4.370   0.134  0.2177  0.9390 -0.0251
  982TIP3    H124361   3.493   4.328   0.063 -0.0525  1.7154 -0.6863
  982TIP3    H224362   3.416   4.297   0.190  1.8467  0.4910  0.1906
  983TIP3   OH224363   3.662   3.238  13.340 -0.0384  0.3096 -0.4554
  983TIP3    H124364   3.568   3.256  13.343 -0.0675  0.1257 -0.2978
  983TIP3    H224365   3.676   3.199  13.253 -0.2772 -0.6326 -0.0746
  984TIP3   OH224366   5.325   1.576  13.361  0.1884  0.1881 -1.0761
  984TIP3    H124367   5.242   1.547  13.399  0.5240  0.6414  0.0224
  984TIP3    H224368   5.378   1.603  13.436  1.0986  0.5106 -1.8201
  985TIP3   OH224369   1.317   5.753   4.353 -0.3336 -0.9096 -0.2338
  985TIP3    H124370   1.317   5.671   4.402  0.6630 -0.0259  1.3237
  985TIP3    H224371   1.395   5.748   4.297  0.0170 -0.8378  0.2366
  986TIP3   OH224372   2.129   0.721  16.119 -0.3329 -0.2029  0.6178
  986TIP3    H124373   2.130   0.771  16.037 -0.1186  1.2837  1.4955
  986TIP3    H224374   2.143   0.630  16.092  1.4019  0.4651 -0.8704
  987TIP3   OH224375   3.947   2.655   1.297 -0.5782  0.2805  0.3637
  987TIP3    H124376   3.893   2.610   1.361  0.4098 -0.9861  0.3273
  987TIP3    H224377   4.016   2.697   1.349 -1.2121  1.3313  0.3529
  988TIP3   OH224378   6.497   5.909   2.973  0.1577  0.3899 -0.4399
  988TIP3    H124379   6.569   5.856   2.936 -0.7498 -0.7524 -0.6166
  988TIP3    H224380   6.465   5.960   2.899  1.7101  1.9963 -0.0434
  989TIP3   OH224381   2.562   5.568  16.742  0.7695  0.1181  0.4625
  989TIP3    H124382   2.535   5.615  16.662 -1.8530  1.0407  1.8320
  989TIP3    H224383   2.575   5.637  16.807  2.2239 -0.6820  1.0352
  990TIP3   OH224384   1.598   5.270  16.883 -0.1350  0.1078 -0.1008
  990TIP3    H124385   1.634   5.330  16.949 -1.0612  0.1112  0.4002
  990TIP3    H224386   1.576   5.327  16.809  0.0696  0.2234 -0.0756
  991TIP3   OH224387   0.693   6.106  13.380  0.2380 -0.1026 -0.0151
  991TIP3    H124388   0.604   6.073  13.388  0.2655 -0.0291  0.6224
  991TIP3    H224389   0.736   6.045  13.320  0.1415 -0.9215  0.7509
  992TIP3   OH224390   2.478   2.388  16.892  0.3249 -0.1773 -0.3557
  992TIP3    H124391   2.452   2.338  16.815 -1.4383 -1.4847  1.0395
  992TIP3    H224392   2.400   2.389  16.948  1.5530  0.7422  1.4059
  993TIP3   OH224393   0.800   4.021   5.173 -0.3246  0.3358  0.0050
  993TIP3    H124394   0.768   4.096   5.223 -3.8300 -1.4896  0.7141
  993TIP3    H224395   0.802   3.950   5.237  0.5274 -0.7490 -1.2136
  994TIP3   OH224396   5.123   0.859  12.736  0.4464  0.0506 -0.5661
  994TIP3    H124397   5.213   0.858  12.705  0.4877  0.1331 -0.4494
  994TIP3    H224398   5.071   0.887  12.660  0.3220 -1.7006 -1.1509
  995TIP3   OH224399   2.127   1.510   5.020  0.2596  0.1142  0.5146
  995TIP3    H124400   2.158   1.471   4.938 -0.0872 -0.5216  0.6828
  995TIP3    H224401   2.033   1.521   5.008  0.4087  1.2125  0.3422
  996TIP3   OH224402   6.487   4.341   4.208 -0.1212  0.1889 -0.4495
  996TIP3    H124403   6.539   4.408   4.251  0.2335 -0.9699  0.9850
  996TIP3    H224404   6.398   4.376   4.208 -0.1153  0.2577  1.1924
  997TIP3   OH224405   6.454   4.427  16.525  0.1510  0.5402  0.0855
  997TIP3    H124406   6.462   4.372  16.603 -1.2152 -0.1801 -0.2628
  997TIP3    H224407   6.452   4.516  16.559 -0.5196  0.2259  0.8939
  998TIP3   OH224408   6.416   3.859  15.181 -0.4320  0.3004 -0.3668
  998TIP3    H124409   6.509   3.847  15.164 -0.7765  0.6749 -2.6885
  998TIP3    H224410   6.404   3.831  15.272  2.4542  3.1212  0.9749
  999TIP3   OH224411   4.832   3.723   2.587  0.1142  0.1020  0.0725
  999TIP3    H124412   4.807   3.731   2.495 -0.1596  1.3370  0.2497
  999TIP3    H224413   4.905   3.661   2.586 -1.1018 -1.3810 -0.7635
 1000TIP3   OH224414   5.656   3.415  12.788 -0.0270 -0.8969  0.0587
 1000TIP3    H124415   5.637   3.474  12.860  1.3091 -1.1215  0.6093
 1000TIP3    H224416   5.740   3.374  12.812  1.0602 -0.0700 -2.1796
 1001TIP3   OH224417   2.879   3.909  12.976  0.1274 -0.4351 -0.1861
 1001TIP3    H124418   2.871   3.942  13.065 -1.2181 -0.2167 -0.3757
 1001TIP3    H224419   2.870   3.814  12.985 -0.4019 -0.3827 -0.1190
 1002TIP3   OH224420   5.017   0.193   0.506 -0.2117 -1.0184 -0.0605
 1002TIP3    H124421   4.954   0.219   0.574 -0.3208  1.0464 -0.9135
 1002TIP3    H224422   4.975   0.119   0.462 -1.3617 -0.6169  0.3439
 1003TIP3   OH224423   2.445   6.475   2.753  0.2688 -0.0578  0.4062
 1003TIP3    H124424   2.417   6.389   2.722 -1.1984  0.3654  0.5327
 1003TIP3    H224425   2.540   6.466   2.766  0.5033 -0.9754 -1.7633
 1004TIP3   OH224426   5.024   5.228   2.674 -0.4093  0.1851 -0.1862
 1004TIP3    H124427   5.000   5.167   2.604 -1.5219  2.4727 -1.8810
 1004TIP3    H224428   5.119   5.236   2.666 -0.4974  0.2387 -1.2918
 1005TIP3   OH224429   6.590   4.238  12.251  0.1960 -0.0439 -0.5719
 1005TIP3    H124430   6.563   4.282  12.170 -0.1193 -1.0097 -1.0000
 1005TIP3    H224431   6.676   4.275  12.271 -0.0621  0.7568 -0.9333
 1006TIP3   OH224432   1.821   4.997  16.667 -0.2314  0.3513 -0.3954
 1006TIP3    H124433   1.907   4.988  16.709 -0.2595  1.8674 -0.0108
 1006TIP3    H224434   1.832   4.954  16.582  0.4766 -0.7557  0.2290
 1007TIP3   OH224435   6.726   2.598  11.065  0.1225  0.4640  0.1263
 1007TIP3    H124436   6.632   2.603  11.052  0.1536 -0.9330 -0.7346
 1007TIP3    H224437   6.763   2.607  10.977  0.8430  2.0731  0.5818
 1008TIP3   OH224438   0.949   2.597  15.556  0.6160  0.0229  0.0201
 1008TIP3    H124439   0.874   2.654  15.541  0.6850 -0.1339 -0.9238
 1008TIP3    H224440   0.911   2.509  15.566  0.3878  0.3774  2.7325
 1009TIP3   OH224441   5.559   5.847   0.218 -0.5145 -0.2904 -0.1295
 1009TIP3    H124442   5.482   5.831   0.164 -0.4611  0.1213 -0.3339
 1009TIP3    H224443   5.617   5.900   0.162  0.1368 -1.0303 -0.1600
 1010TIP3   OH224444   1.753   3.948  13.051 -0.0103  0.0594 -0.0519
 1010TIP3    H124445   1.718   4.021  13.103  0.4123 -0.3957  0.8869
 1010TIP3    H224446   1.681   3.886  13.048  0.5742 -0.7360  1.6089
 1011TIP3   OH224447   0.362   2.757   0.134  0.3072 -0.0490 -0.7611
 1011TIP3    H124448   0.440   2.804   0.105  1.3174  0.1264  2.0715
 1011TIP3    H224449   0.396   2.685   0.188 -1.3923 -1.5146 -1.6094
 1012TIP3   OH224450   5.692   4.381  13.000  0.2454 -0.1328 -0.3134
 1012TIP3    H124451   5.763   4.338  12.952  0.8580  0.4201  0.1004
 1012TIP3    H224452   5.730   4.403  13.085 -0.1469  0.9876 -0.4195
 1013TIP3   OH224453   5.294   5.934  13.070 -0.3416  0.3911  0.6705
 1013TIP3    H124454   5.232   5.872  13.031 -0.4071  0.2640  0.9781
 1013TIP3    H224455   5.335   5.976  12.995 -1.0846  0.7553  0.4680
 1014TIP3   OH224456   0.212   6.327  14.990  0.5530  0.5930  0.0505
 1014TIP3    H124457   0.199   6.317  15.085 -1.9437 -0.5458 -0.3734
 1014TIP3    H224458   0.261   6.249  14.965  0.4823  0.4798  0.2592
 1015TIP3   OH224459   1.233   2.399  13.994 -0.0882  0.2370 -0.4993
 1015TIP3    H124460   1.151   2.366  13.958  0.1442  0.4526 -1.2335
 1015TIP3    H224461   1.295   2.327  13.985 -0.5780 -0.4569  1.4491
 1016TIP3   OH224462   5.920   6.739  13.249  0.7026 -0.3310  0.1216
 1016TIP3    H124463   5.884   6.699  13.169 -0.8821 -0.1344  0.7414
 1016TIP3    H224464   5.852   6.727  13.315  0.5754  2.6035  0.5713
 1017TIP3   OH224465   6.175   6.120   1.951 -0.5181 -0.6198  0.5383
 1017TIP3    H124466   6.186   6.078   1.865 -2.0330  0.1516 -0.0568
 1017TIP3    H224467   6.151   6.210   1.930  2.0503  0.3900  1.8009
 1018TIP3   OH224468   2.319   0.620   3.103 -0.1291 -0.6967  0.5010
 1018TIP3    H124469   2.402   0.621   3.055  0.0298  1.1032  0.7686
 1018TIP3    H224470   2.325   0.543   3.159  2.3524  0.6051  2.1612
 1019TIP3   OH224471   6.214   6.029   3.504  0.0108 -0.6609 -0.1744
 1019TIP3    H124472   6.169   6.035   3.589  1.3079  0.0628  0.4642
 1019TIP3    H224473   6.242   5.938   3.498  0.8113 -0.4705  0.6370
 1020TIP3   OH224474   2.524   5.946   6.078 -0.7747  0.5170 -0.1126
 1020TIP3    H124475   2.601   5.986   6.118  0.3564 -0.0409 -1.7197
 1020TIP3    H224476   2.504   5.871   6.135  1.7930 -1.2263 -1.4244
 1021TIP3   OH224477   2.637   4.223   4.561  0.6888 -0.0099 -0.5321
 1021TIP3    H124478   2.693   4.234   4.484 -0.7404 -0.0353 -1.6050
 1021TIP3    H224479   2.573   4.157   4.534 -0.1332  0.3564  0.5077
 1022TIP3   OH224480   5.242   0.640  16.590 -0.1492 -0.5843 -0.2956
 1022TIP3    H124481   5.321   0.592  16.614 -0.8910 -0.7059  2.0691
 1022TIP3    H224482   5.190   0.577  16.540 -0.1190 -1.5239  0.8364
 1023TIP3   OH224483   2.333   2.437   5.734  0.3141  0.2152  0.8278
 1023TIP3    H124484   2.291   2.453   5.819 -0.0868 -2.2574  1.1533
 1023TIP3    H224485   2.417   2.397   5.756 -0.1991 -1.3147  0.0686
 1024TIP3   OH224486   5.181   5.117  16.163  0.7474 -0.6946  0.1630
 1024TIP3    H124487   5.237   5.080  16.095  0.4946  1.4819 -1.2705
 1024TIP3    H224488   5.238   5.175  16.213  0.0162  0.9164 -0.8138
 1025TIP3   OH224489   2.870   5.708   4.727 -0.3793 -0.5431 -0.1156
 1025TIP3    H124490   2.958   5.743   4.716 -0.6467 -0.3256 -1.6336
 1025TIP3    H224491   2.850   5.722   4.820  1.6158 -1.6157  0.5024
 1026TIP3   OH224492   3.149   1.593  14.353 -0.1095  0.1103  0.2380
 1026TIP3    H124493   3.173   1.685  14.347 -0.4398  0.2313  0.6937
 1026TIP3    H224494   3.068   1.585  14.303  0.2565 -0.0625 -0.3299
 1027TIP3   OH224495   5.239   5.760  15.154 -0.7253 -0.0424 -0.0055
 1027TIP3    H124496   5.249   5.685  15.213  0.4168 -0.1870 -0.3657
 1027TIP3    H224497   5.323   5.805  15.158  0.0512 -1.1473 -3.0021
 1028TIP3   OH224498   6.412   3.285  17.019 -0.5774 -0.8103 -0.1576
 1028TIP3    H124499   6.453   3.203  17.047 -0.2735 -1.0785 -1.3597
 1028TIP3    H224500   6.350   3.306  17.089  0.9853 -0.8527  1.2714
 1029TIP3   OH224501   5.549   2.198   4.803  0.1849  0.5644  0.1645
 1029TIP3    H124502   5.560   2.187   4.897  0.8434  0.5567  0.0847
 1029TIP3    H224503   5.632   2.168   4.765 -1.1921 -2.5057 -0.6340
 1030TIP3   OH224504   2.744   3.583  12.735 -0.0677  0.1114  0.1129
 1030TIP3    H124505   2.819   3.640  12.722 -0.6783  0.3666 -2.5327
 1030TIP3    H224506   2.774   3.497  12.705 -0.5039  0.0076 -0.0320
 1031TIP3   OH224507   3.643   2.820   3.936 -0.2225  0.4395 -0.0791
 1031TIP3    H124508   3.648   2.909   3.902 -0.7331  0.2907 -0.5372
 1031TIP3    H224509   3.719   2.813   3.994  1.5459  0.1990 -2.3558
 1032TIP3   OH224510   6.022   1.017  13.450 -0.0884 -0.5943 -0.4257
 1032TIP3    H124511   5.938   0.971  13.449  1.0377 -2.7298 -0.0655
 1032TIP3    H224512   6.030   1.051  13.539  0.7010 -2.8863  0.4225
 1033TIP3   OH224513   0.219   1.927  16.909  0.3064 -0.2373 -0.2637
 1033TIP3    H124514   0.237   1.955  16.999  2.5596 -2.0637 -0.0913
 1033TIP3    H224515   0.149   1.863  16.918 -0.6877  0.8692 -0.0120
 1034TIP3   OH224516   4.664   6.456  15.274 -0.0712 -0.5640 -0.7715
 1034TIP3    H124517   4.737   6.396  15.258  1.2436  0.4749  1.1824
 1034TIP3    H224518   4.650   6.453  15.368 -2.2350 -0.3184 -1.0450
 1035TIP3   OH224519   6.690   3.683   3.123 -0.1533  0.4310 -0.0927
 1035TIP3    H124520   6.595   3.693   3.137 -0.7583 -0.0920 -3.4036
 1035TIP3    H224521   6.701   3.694   3.029  3.3605  2.2612  0.4673
 1036TIP3   OH224522   2.317   0.344  13.569 -0.6049  0.1812  0.7843
 1036TIP3    H124523   2.324   0.436  13.594  0.1434  0.0647  0.9899
 1036TIP3    H224524   2.267   0.303  13.640 -1.5785  0.5694  0.3388
 1037TIP3   OH224525   1.672   0.843  17.008 -0.2435  0.1518  0.0833
 1037TIP3    H124526   1.677   0.812  16.918 -2.4927  1.2300 -0.4381
 1037TIP3    H224527   1.659   0.763  17.060  0.6340 -0.4285 -0.5906
 1038TIP3   OH224528   3.162   3.979   4.109 -0.1059  0.0787 -0.1626
 1038TIP3    H124529   3.242   3.952   4.153  0.8794  2.1006 -0.6787
 1038TIP3    H224530   3.184   3.979   4.016 -1.0964 -0.5999 -0.4111
 1039TIP3   OH224531   4.541   5.266  16.378 -0.4902  0.0690  0.7164
 1039TIP3    H124532   4.599   5.293  16.306 -2.8076  0.5499 -1.0523
 1039TIP3    H224533   4.567   5.176  16.397  0.0500 -0.1450 -0.8938
 1040TIP3   OH224534   6.269   0.464   1.086  0.2738  0.6270 -0.1525
 1040TIP3    H124535   6.340   0.401   1.103  0.1322  0.0674 -1.6028
 1040TIP3    H224536   6.282   0.492   0.995 -0.8795  1.1565 -0.1684
 1041TIP3   OH224537   2.675   1.141   2.728 -0.1424 -0.8096 -0.7666
 1041TIP3    H124538   2.753   1.093   2.699 -1.0677 -2.3609 -0.7300
 1041TIP3    H224539   2.706   1.197   2.799  1.0449 -1.0230 -1.1076
 1042TIP3   OH224540   1.830   3.723  12.873  0.3752  0.0025  0.2937
 1042TIP3    H124541   1.818   3.783  12.946 -1.0207  0.9180 -0.6466
 1042TIP3    H224542   1.811   3.637  12.909 -0.4107  0.4652  0.9939
 1043TIP3   OH224543   3.145   4.094   0.100  0.5350  0.6705 -0.4158
 1043TIP3    H124544   3.087   4.149   0.152  0.7971  2.7226 -2.2051
 1043TIP3    H224545   3.093   4.017   0.078  0.4738 -0.2958  2.9265
 1044TIP3   OH224546   1.321   4.180   6.105 -0.2201 -0.6531  0.2524
 1044TIP3    H124547   1.258   4.226   6.162  2.0064  2.2370  0.5076
 1044TIP3    H224548   1.403   4.181   6.155  0.8434 -1.4464 -1.4346
 1045TIP3   OH224549   0.685   4.164  14.118  0.2785 -0.3340 -0.3281
 1045TIP3    H124550   0.738   4.097  14.075  0.8809  0.2451 -0.4927
 1045TIP3    H224551   0.738   4.191  14.193 -0.2602 -0.5157  0.1258
 1046TIP3   OH224552   3.955   6.023   6.198 -0.4786  0.3132 -0.7369
 1046TIP3    H124553   3.881   6.021   6.260 -1.3278 -0.7425 -1.7636
 1046TIP3    H224554   4.012   5.951   6.227 -1.3167 -0.7604 -1.6788
 1047TIP3   OH224555   2.871   6.462  16.302 -0.0902 -0.3620  0.2344
 1047TIP3    H124556   2.871   6.478  16.207 -0.6369  1.5459  0.5364
 1047TIP3    H224557   2.889   6.368  16.310  0.2529 -0.4984 -1.7454
 1048TIP3   OH224558   3.738   3.844  11.864 -0.0434  0.3887  0.4255
 1048TIP3    H124559   3.788   3.925  11.851 -0.8313  0.9487  0.7857
 1048TIP3    H224560   3.702   3.824  11.778  1.2772 -0.3451  0.0368
 1049TIP3   OH224561   6.290   2.961  12.622 -0.2750  0.2257  0.1532
 1049TIP3    H124562   6.281   2.966  12.527 -0.7761 -2.6315 -0.0112
 1049TIP3    H224563   6.376   2.998  12.641  0.2535 -0.1193 -1.5224
 1050TIP3   OH224564   0.567   6.518   1.143 -0.1318 -0.4409  1.3236
 1050TIP3    H124565   0.557   6.477   1.057  0.2204 -0.6649  1.3878
 1050TIP3    H224566   0.651   6.486   1.175  0.0253  0.1242  1.4892
 1051TIP3   OH224567   0.980   1.452  14.262  0.3282 -0.3421 -0.3933
 1051TIP3    H124568   1.039   1.509  14.211  0.7388 -0.2341  0.2000
 1051TIP3    H224569   0.914   1.424  14.199  0.2628  0.5945 -0.7543
 1052TIP3   OH224570   3.835   0.112   5.502  0.0872 -0.1497  0.0214
 1052TIP3    H124571   3.830   0.020   5.475  0.9764 -0.1440 -0.1783
 1052TIP3    H224572   3.765   0.122   5.566 -0.3479 -0.8398 -0.3393
 1053TIP3   OH224573   1.218   4.792  12.322 -0.1276  0.0423 -0.1200
 1053TIP3    H124574   1.144   4.732  12.336 -0.2806 -0.0739 -1.3854
 1053TIP3    H224575   1.181   4.865  12.272  0.2377  0.8153  0.7215
 1054TIP3   OH224576   4.059   5.237   1.626 -0.1929 -0.0477 -0.3349
 1054TIP3    H124577   4.010   5.309   1.587  1.6382 -0.5944 -3.8766
 1054TIP3    H224578   4.122   5.279   1.685 -2.6031  0.8294  1.7183
 1055TIP3   OH224579   1.554   4.496   5.572 -0.1086  0.1426 -0.0717
 1055TIP3    H124580   1.579   4.437   5.644 -1.8910 -0.2138  0.2715
 1055TIP3    H224581   1.588   4.581   5.599 -0.9603  0.0649  1.3452
 1056TIP3   OH224582   6.726   0.084  16.085  0.0170 -0.6986  0.2332
 1056TIP3    H124583   6.697   0.176  16.082  2.5490  0.1665  0.8395
 1056TIP3    H224584   6.750   0.069  16.176 -0.0164 -1.8378  0.0615
 1057TIP3   OH224585   5.204   3.337   0.910  0.1991  0.0606  0.3429
 1057TIP3    H124586   5.109   3.345   0.910  0.2428  0.6143 -0.1749
 1057TIP3    H224587   5.230   3.361   0.999 -0.0356  1.3375  0.0835
 1058TIP3   OH224588   6.634   1.789  14.245  0.1763 -0.2526  0.1738
 1058TIP3    H124589   6.662   1.842  14.319  0.6746 -0.4436  0.1259
 1058TIP3    H224590   6.668   1.835  14.168 -1.1653  0.4609 -0.0000
 1059TIP3   OH224591   1.463   3.463   4.657 -0.7728 -0.2237  0.0331
 1059TIP3    H124592   1.395   3.411   4.614 -0.1589 -1.2340  0.2635
 1059TIP3    H224593   1.472   3.540   4.602 -2.2721  0.0353  0.1327
 1060TIP3   OH224594   4.140   5.922  16.521 -0.1454 -0.6442 -0.0125
 1060TIP3    H124595   4.085   5.951  16.447 -0.1005 -0.2073  0.1192
 1060TIP3    H224596   4.169   5.835  16.497 -0.7877 -0.8252 -0.1549
 1061TIP3   OH224597   3.079   0.310   5.896 -0.1503 -0.5073  0.1487
 1061TIP3    H124598   3.146   0.359   5.943  0.5590  0.1131 -1.4477
 1061TIP3    H224599   3.104   0.319   5.803 -1.4644 -1.7191 -0.3441
 1062TIP3   OH224600   2.853   3.448   2.941  0.5832  0.1318  0.5934
 1062TIP3    H124601   2.798   3.521   2.913  0.7390  0.4249  1.0344
 1062TIP3    H224602   2.886   3.475   3.027  0.6902 -0.4314  0.7341
 1063TIP3   OH224603   1.203   4.854  11.458  0.0020 -0.1194  0.1469
 1063TIP3    H124604   1.235   4.836  11.369 -0.6652  0.9885 -0.3298
 1063TIP3    H224605   1.281   4.850  11.513  0.2935 -1.6527 -0.3562
 1064TIP3   OH224606   4.370   3.910  13.705 -0.1922  0.0642  0.1367
 1064TIP3    H124607   4.342   3.820  13.690  0.9131 -0.8411  3.0336
 1064TIP3    H224608   4.450   3.919  13.654  0.0140 -0.7820  0.3020
 1065TIP3   OH224609   2.666   0.212   0.704  0.5135  0.0565  0.3652
 1065TIP3    H124610   2.573   0.234   0.701  1.0142  2.1694 -0.1012
 1065TIP3    H224611   2.686   0.202   0.797 -0.0755  0.0777  0.4925
 1066TIP3   OH224612   3.179   2.659  16.223 -0.7297  0.3472 -0.1001
 1066TIP3    H124613   3.211   2.685  16.137  0.6392 -0.6478  0.0896
 1066TIP3    H224614   3.251   2.682  16.283  0.1641 -2.9823  0.1831
 1067TIP3   OH224615   0.169   1.413  10.900 -0.5551  0.3621  0.2080
 1067TIP3    H124616   0.175   1.453  10.813  1.9689 -1.4304 -0.4897
 1067TIP3    H224617   0.114   1.335  10.887  0.0062 -0.0286  0.1662
 1068TIP3   OH224618   3.760   5.221   2.726  0.4971  0.0879  0.0602
 1068TIP3    H124619   3.717   5.143   2.762  0.5779  0.5491  1.1805
 1068TIP3    H224620   3.688   5.279   2.702  0.4600  0.4591  1.0335
 1069TIP3   OH224621   2.327   3.627   4.832  0.0353  0.0069 -0.2071
 1069TIP3    H124622   2.396   3.605   4.895 -1.1476 -2.2518  0.3463
 1069TIP3    H224623   2.357   3.589   4.750 -0.9254 -1.7301  0.2278
 1070TIP3   OH224624   4.414   2.855   2.673 -0.6052 -0.3368 -0.3682
 1070TIP3    H124625   4.428   2.796   2.599 -0.9320 -1.1008  0.1671
 1070TIP3    H224626   4.499   2.894   2.691 -1.0914  2.1204 -3.0275
 1071TIP3   OH224627   2.030   2.279  12.502 -0.6495 -0.2867 -0.0596
 1071TIP3    H124628   2.033   2.204  12.443 -0.1352  0.1806 -0.6391
 1071TIP3    H224629   1.989   2.349  12.451  2.7120  1.0975 -1.0463
 1072TIP3   OH224630   2.561   0.370  14.716 -0.2578  0.7333 -0.1942
 1072TIP3    H124631   2.521   0.435  14.773  1.8148  2.4788 -0.6702
 1072TIP3    H224632   2.641   0.343  14.761  1.4717  2.2331 -2.2409
 1073TIP3   OH224633   5.320   2.996  14.068  0.4287  0.2827 -0.0259
 1073TIP3    H124634   5.279   2.938  14.004  1.3411 -1.5929  1.0367
 1073TIP3    H224635   5.412   2.969  14.070  0.5037  0.5981  1.7495
 1074TIP3   OH224636   6.357   6.229  16.205  0.5958 -0.2485 -0.6386
 1074TIP3    H124637   6.363   6.240  16.299  1.2598  0.3293 -0.7454
 1074TIP3    H224638   6.392   6.141  16.188  0.5500 -0.3196 -0.3560
 1075TIP3   OH224639   4.542   3.175  15.879  0.0665 -0.6034 -0.4098
 1075TIP3    H124640   4.457   3.134  15.888 -0.6107  0.8234 -0.1428
 1075TIP3    H224641   4.554   3.224  15.961  0.7371 -0.0634 -0.8239
 1076TIP3   OH224642   4.639   2.119  14.394  0.0645 -0.3956  0.1051
 1076TIP3    H124643   4.596   2.205  14.394 -0.2185 -0.5383 -0.4107
 1076TIP3    H224644   4.731   2.139  14.413  0.2432  0.1465 -1.2465
 1077TIP3   OH224645   0.457   3.413   3.030  0.0133  0.0982  0.0222
 1077TIP3    H124646   0.447   3.497   3.075  0.6316  0.1260  0.1119
 1077TIP3    H224647   0.472   3.350   3.101  0.2491  0.0212 -0.0966
 1078TIP3   OH224648   4.165   2.672  14.972 -0.0040 -0.5312  0.1930
 1078TIP3    H124649   4.179   2.579  14.986  2.6248  0.0680  1.8566
 1078TIP3    H224650   4.252   2.711  14.974 -0.9092  1.7992 -2.0352
 1079TIP3   OH224651   3.861   1.121   2.756 -0.6419 -0.5091 -0.1573
 1079TIP3    H124652   3.954   1.115   2.733 -0.5866  0.4913 -0.2213
 1079TIP3    H224653   3.821   1.044   2.717  0.3260 -1.4372  0.6693
 1080TIP3   OH224654   2.387   5.066   5.155 -0.1404  0.0160  0.1260
 1080TIP3    H124655   2.425   5.149   5.127  3.4059 -1.2000  1.0901
 1080TIP3    H224656   2.401   5.063   5.249 -1.2910 -1.1775  0.2760
 1081TIP3   OH224657   3.508   2.597   1.033  0.1825  0.1980  0.4528
 1081TIP3    H124658   3.536   2.672   0.980 -1.3899  0.3459 -0.1772
 1081TIP3    H224659   3.589   2.548   1.049  1.2422  2.0877  0.9819
 1082TIP3   OH224660   2.655   3.974  15.073  0.7753 -0.5082  0.3350
 1082TIP3    H124661   2.633   3.916  15.146  1.7054  1.0002  1.8623
 1082TIP3    H224662   2.750   3.971  15.068  0.7638  0.0526 -0.2674
 1083TIP3   OH224663   2.256   4.748  13.214  0.4225  0.0468  0.1554
 1083TIP3    H124664   2.166   4.717  13.203  0.6151 -0.6808  0.6047
 1083TIP3    H224665   2.263   4.822  13.153  0.0651 -1.0206 -1.2309
 1084TIP3   OH224666   0.121   1.504   4.468 -0.5245 -0.0491  0.9629
 1084TIP3    H124667   0.157   1.548   4.545  0.6267 -1.0886  1.0458
 1084TIP3    H224668   0.062   1.568   4.428  1.0169  1.5135  1.1381
 1085TIP3   OH224669   6.526   3.298  15.118  0.3155 -0.8214 -0.2018
 1085TIP3    H124670   6.558   3.227  15.173 -1.1008 -2.8554 -1.9716
 1085TIP3    H224671   6.543   3.270  15.028 -0.3530  1.0182 -0.9439
 1086TIP3   OH224672   3.477   2.480   6.289  0.1460  0.3693 -0.3142
 1086TIP3    H124673   3.509   2.390   6.297  0.8871  0.4968 -1.6908
 1086TIP3    H224674   3.391   2.478   6.331  0.6272 -0.7069  0.6761
 1087TIP3   OH224675   4.692   4.633  12.371 -0.6085  0.8544 -0.0248
 1087TIP3    H124676   4.780   4.661  12.346 -0.1117  0.3351  1.1433
 1087TIP3    H224677   4.659   4.587  12.293  0.4309  0.3817 -0.1965
 1088TIP3   OH224678   2.969   0.706  15.971  0.1800 -0.1095 -0.5751
 1088TIP3    H124679   2.938   0.755  15.895 -3.2987 -1.8763 -0.4121
 1088TIP3    H224680   2.920   0.742  16.045 -0.8091 -2.3152 -0.1248
 1089TIP3   OH224681   6.286   3.026   3.463 -0.5569  0.0929  0.2281
 1089TIP3    H124682   6.267   2.952   3.405  0.0380  0.3654 -0.3241
 1089TIP3    H224683   6.262   2.996   3.550 -1.4149 -0.3413 -0.1561
 1090TIP3   OH224684   6.140   4.053  14.755  0.4209  0.3299 -0.2896
 1090TIP3    H124685   6.158   4.075  14.663 -1.2788  2.0594 -0.2474
 1090TIP3    H224686   6.202   3.984  14.776  1.6646  0.7712 -2.3819
 1091TIP3   OH224687   0.526   1.823  12.293 -0.2306  0.0341 -0.0488
 1091TIP3    H124688   0.576   1.742  12.302 -2.5645 -1.3191  1.2617
 1091TIP3    H224689   0.514   1.835  12.199  1.1793 -0.4740 -0.2969
 1092TIP3   OH224690   5.875   5.796   3.356  0.3106 -0.6038 -0.2989
 1092TIP3    H124691   5.850   5.803   3.264  0.3372  0.3316 -0.2368
 1092TIP3    H224692   5.971   5.799   3.355  0.3170 -0.7584 -0.2475
 1093TIP3   OH224693   5.673   4.103   0.423 -0.7914 -0.8119 -0.1986
 1093TIP3    H124694   5.766   4.083   0.439  0.4338  2.2837 -2.7575
 1093TIP3    H224695   5.642   4.139   0.506  0.5044 -1.2849  0.5042
 1094TIP3   OH224696   1.528   3.899  14.361 -0.1199  0.2521 -0.0179
 1094TIP3    H124697   1.536   3.851  14.444  0.2475  0.3115 -0.0194
 1094TIP3    H224698   1.616   3.935  14.346  0.6886 -2.3936 -2.0360
 1095TIP3   OH224699   6.714   3.240  10.459 -0.2485 -0.1304 -0.0353
 1095TIP3    H124700   6.636   3.285  10.426 -0.0397 -0.0163 -0.3626
 1095TIP3    H224701   6.719   3.159  10.408  0.0862  0.0575 -0.2983
 1096TIP3   OH224702   1.428   5.551   6.122 -1.0229  0.0693  0.0781
 1096TIP3    H124703   1.444   5.607   6.046  0.2468 -0.3996  0.0021
 1096TIP3    H224704   1.450   5.606   6.198  1.7242 -0.8166 -0.0511
 1097TIP3   OH224705   1.608   6.012   0.426 -0.4443  0.1260  0.2129
 1097TIP3    H124706   1.677   6.046   0.369 -0.3067 -0.4753  0.0119
 1097TIP3    H224707   1.586   6.085   0.484 -1.5868  1.2168 -1.5365
 1098TIP3   OH224708   0.731   1.380   4.590 -0.6204 -0.4752 -0.2048
 1098TIP3    H124709   0.677   1.429   4.652 -0.3695  0.1525 -0.4821
 1098TIP3    H224710   0.818   1.418   4.598 -0.9552  0.7867 -2.1727
 1099TIP3   OH224711   6.542   5.950  12.323  0.0966  0.1973  0.1340
 1099TIP3    H124712   6.540   6.046  12.329  1.3683  0.0705  3.0569
 1099TIP3    H224713   6.635   5.927  12.332 -0.2869 -1.3778  0.2358
 1100TIP3   OH224714   6.220   0.734  15.567  0.0246 -0.1233  0.3600
 1100TIP3    H124715   6.257   0.646  15.570 -1.4267 -0.7670 -0.1964
 1100TIP3    H224716   6.134   0.725  15.609 -0.3457  0.9107 -0.1603
 1101TIP3   OH224717   4.969   4.132   5.600 -0.0616 -0.1014 -0.1023
 1101TIP3    H124718   4.958   4.219   5.638 -1.1707  0.6234 -1.9985
 1101TIP3    H224719   4.955   4.145   5.506 -1.4679 -2.5239 -0.2780
 1102TIP3   OH224720   1.067   0.437   6.449 -0.9681  0.1524 -0.0304
 1102TIP3    H124721   1.145   0.484   6.419 -1.7188  1.6608  0.3487
 1102TIP3    H224722   1.095   0.346   6.457  0.0526  0.2000 -2.4961
 1103TIP3   OH224723   1.703   0.386  15.668  0.3033  0.1140  0.1296
 1103TIP3    H124724   1.620   0.371  15.622  0.7907  1.8999 -1.3867
 1103TIP3    H224725   1.703   0.321  15.738 -2.4770  0.1806  0.2793
 1104TIP3   OH224726   1.463   2.636   0.593 -0.4526  0.4669 -0.6905
 1104TIP3    H124727   1.500   2.624   0.506  1.8183  1.4580  0.1098
 1104TIP3    H224728   1.538   2.650   0.650 -1.7602 -2.0951  1.7944
 1105TIP3   OH224729   2.207   0.745  12.068  0.0137 -0.0360 -0.1266
 1105TIP3    H124730   2.277   0.700  12.117 -1.8101 -3.0326 -0.1105
 1105TIP3    H224731   2.251   0.817  12.024  2.8264 -0.8658  1.1849
 1106TIP3   OH224732   4.226   2.178   4.944 -0.3607 -0.2402 -0.2061
 1106TIP3    H124733   4.300   2.136   4.988  0.7660 -0.3315 -2.1469
 1106TIP3    H224734   4.152   2.119   4.960  0.1956 -0.6461  0.9210
 1107TIP3   OH224735   0.400   4.997  13.746 -0.5517 -0.4097 -0.2650
 1107TIP3    H124736   0.369   5.076  13.789 -1.6217 -0.8077 -0.2864
 1107TIP3    H224737   0.488   4.984  13.780 -0.3060  0.8745 -0.3844
 1108TIP3   OH224738   5.524   3.258  17.100 -0.3522  0.5253 -0.1445
 1108TIP3    H124739   5.594   3.241  17.162 -0.9293  0.2183  0.4210
 1108TIP3    H224740   5.490   3.344  17.126 -0.5369  0.4364 -0.0949
 1109TIP3   OH224741   0.722   2.091  10.669  0.0075 -0.2121 -0.3739
 1109TIP3    H124742   0.667   2.020  10.636 -0.3435 -0.1887  0.1584
 1109TIP3    H224743   0.662   2.164  10.684  0.3388  0.1377 -0.7393
 1110TIP3   OH224744   3.322   4.170  15.507 -0.1795 -0.0574  0.5264
 1110TIP3    H124745   3.359   4.256  15.487 -0.4104  0.4116  2.0713
 1110TIP3    H224746   3.389   4.108  15.477 -0.0779  0.6429 -0.7320
 1111TIP3   OH224747   5.960   2.671   3.319  0.0314  0.1871  0.4701
 1111TIP3    H124748   5.943   2.708   3.406 -0.6215 -1.1966  0.9347
 1111TIP3    H224749   5.875   2.670   3.276  0.2703  0.4183 -0.0159
 1112TIP3   OH224750   5.719   1.872  16.412 -0.3689  0.0842  0.0311
 1112TIP3    H124751   5.789   1.885  16.476  0.2527 -0.1379 -0.5887
 1112TIP3    H224752   5.732   1.782  16.381 -1.1726 -0.0951  0.1955
 1113TIP3   OH224753   4.103   6.725   5.339  0.1858 -0.2266 -0.9556
 1113TIP3    H124754   4.167   6.688   5.400  0.4788  0.6413 -0.7324
 1113TIP3    H224755   4.145   6.717   5.253  0.7872  0.7453 -0.7598
 1114TIP3   OH224756   2.358   6.368  14.874 -0.3024 -0.0340 -0.0062
 1114TIP3    H124757   2.440   6.383  14.827  0.2338  1.3208  1.3345
 1114TIP3    H224758   2.333   6.454  14.906 -0.9681 -0.8458  1.6841
 1115TIP3   OH224759   2.375   6.325  15.511 -0.0798  0.0474  0.7489
 1115TIP3    H124760   2.282   6.313  15.489 -0.2378  0.6447  1.0729
 1115TIP3    H224761   2.416   6.243  15.485 -0.4659  0.2741 -0.6543
 1116TIP3   OH224762   0.206   1.211  16.929  0.0952  0.2932 -0.3451
 1116TIP3    H124763   0.216   1.135  16.871 -0.1505 -0.3885  0.5032
 1116TIP3    H224764   0.197   1.285  16.869 -1.4166 -0.5574 -1.1972
 1117TIP3   OH224765   2.627   6.144  13.236  0.2138  0.5029  0.1632
 1117TIP3    H124766   2.599   6.148  13.327  0.4550 -2.2227  0.4134
 1117TIP3    H224767   2.547   6.160  13.186 -0.1584  0.8200  0.8551
 1118TIP3   OH224768   3.962   6.407  16.088  0.5105 -0.3258  0.1436
 1118TIP3    H124769   3.971   6.379  16.179 -0.5354 -2.5569 -0.4206
 1118TIP3    H224770   3.969   6.327  16.037 -0.3804  0.7145 -1.6624
 1119TIP3   OH224771   5.905   3.951  13.298  0.0804 -0.4895 -0.4109
 1119TIP3    H124772   5.866   3.904  13.371 -2.4744  1.3855 -0.5190
 1119TIP3    H224773   5.995   3.968  13.326 -1.0559  0.8942  2.6880
 1120TIP3   OH224774   3.244   6.603  13.882 -0.3868 -1.1904  0.1554
 1120TIP3    H124775   3.211   6.563  13.802  0.2313 -0.2191 -0.5873
 1120TIP3    H224776   3.335   6.574  13.888 -0.0584 -0.2347 -0.1669
 1121TIP3   OH224777   1.862   4.521   4.419  0.1248  0.1917  0.3244
 1121TIP3    H124778   1.767   4.529   4.409 -0.0284 -2.7362 -1.0836
 1121TIP3    H224779   1.891   4.608   4.447 -2.5772  1.9797 -2.2240
 1122TIP3   OH224780   0.794   3.017  12.855 -0.2418 -0.1225  0.3728
 1122TIP3    H124781   0.724   3.038  12.916 -0.6561 -0.2103 -0.0603
 1122TIP3    H224782   0.859   2.969  12.907 -0.1859  0.5598  0.9247
 1123TIP3   OH224783   1.594   6.719  15.596 -0.1607  0.4211 -0.1882
 1123TIP3    H124784   1.579   6.799  15.646  0.0740 -0.3005  1.0755
 1123TIP3    H224785   1.663   6.741  15.534  1.9382  0.4311  2.0699
 1124TIP3   OH224786   2.435   0.559  14.911 -0.3306 -0.0056 -0.2794
 1124TIP3    H124787   2.438   0.653  14.892  1.2371  0.0057  0.0166
 1124TIP3    H224788   2.398   0.555  15.000  1.4325  0.4420  0.4885
 1125TIP3   OH224789   4.213   1.371   1.836 -1.1107 -0.2783  0.2972
 1125TIP3    H124790   4.305   1.342   1.830  0.2292  3.9572 -2.0133
 1125TIP3    H224791   4.167   1.318   1.771  0.2910 -0.4729 -0.5565
 1126TIP3   OH224792   0.304   1.447   6.397 -0.0911  0.2492 -0.4893
 1126TIP3    H124793   0.281   1.422   6.487 -0.7290 -0.1984 -0.7679
 1126TIP3    H224794   0.222   1.480   6.360  0.0080 -0.1831 -1.1053
 1127TIP3   OH224795   3.440   4.366  16.933 -0.2586  0.7356 -0.3592
 1127TIP3    H124796   3.374   4.435  16.933 -0.6247  0.4209  1.6949
 1127TIP3    H224797   3.514   4.404  16.979  0.6397  0.7318 -1.7581
 1128TIP3   OH224798   6.577   6.666  14.525 -0.3596  0.2837 -0.2218
 1128TIP3    H124799   6.561   6.742  14.581  1.5945  1.0545 -0.6325
 1128TIP3    H224800   6.559   6.591  14.580  0.2627  1.0433  1.0543
 1129TIP3   OH224801   0.957   5.259   2.842 -0.1171  0.5260 -0.4615
 1129TIP3    H124802   1.007   5.297   2.769 -0.8989  2.4674 -0.0092
 1129TIP3    H224803   0.866   5.269   2.817 -0.3753  0.5314  0.4766
 1130TIP3   OH224804   2.072   3.086  11.633 -0.0030 -0.1550 -0.7295
 1130TIP3    H124805   2.096   3.018  11.570  0.6234  0.2802 -0.9661
 1130TIP3    H224806   2.061   3.039  11.716 -0.5281 -0.6813 -1.0983
 1131TIP3   OH224807   2.337   0.501   1.653  0.1606  0.1150  0.0572
 1131TIP3    H124808   2.300   0.545   1.576  1.9114  0.5700 -0.5611
 1131TIP3    H224809   2.431   0.520   1.648  0.6611 -2.0408  0.8818
 1132TIP3   OH224810   4.051   6.032  12.415  0.2490 -0.3420 -0.0895
 1132TIP3    H124811   4.064   5.940  12.390 -0.5709 -0.6834  0.6943
 1132TIP3    H224812   4.014   6.027  12.503  1.1608  0.7707  0.3664
 1133TIP3   OH224813   5.541   4.042  11.893  0.8173  0.0875 -0.6123
 1133TIP3    H124814   5.502   4.054  11.979  0.5310  1.1873 -0.8820
 1133TIP3    H224815   5.617   3.987  11.908  0.9340  0.5150  0.3906
 1134TIP3   OH224816   1.712   6.146  15.883  0.4367  0.2642 -0.3379
 1134TIP3    H124817   1.619   6.131  15.899  0.4989  0.6140  0.3948
 1134TIP3    H224818   1.721   6.147  15.788 -0.5180  1.5508 -0.4228
 1135TIP3   OH224819   5.604   4.676  13.239  0.5900  0.3261  0.3389
 1135TIP3    H124820   5.589   4.757  13.191  0.4122  0.3703  0.4683
 1135TIP3    H224821   5.516   4.637  13.248  0.7438 -0.1565 -0.2084
 1136TIP3   OH224822   2.420   5.774   5.806  0.2750  0.1434  0.1740
 1136TIP3    H124823   2.460   5.719   5.874  0.4993 -0.2484 -0.2682
 1136TIP3    H224824   2.329   5.785   5.834  0.3531 -0.0600  0.5099
 1137TIP3   OH224825   6.030   3.300   2.244 -0.8828 -0.4623  0.3830
 1137TIP3    H124826   5.971   3.252   2.302  1.0679 -0.9699  2.0365
 1137TIP3    H224827   6.090   3.233   2.210  0.2870  0.3933  0.7085
 1138TIP3   OH224828   1.416   5.088  13.790 -0.1379  0.2935  0.3451
 1138TIP3    H124829   1.347   5.147  13.760  0.0190 -0.4415 -1.5541
 1138TIP3    H224830   1.493   5.114  13.739  0.2441 -0.7270  0.4026
 1139TIP3   OH224831   0.916   6.236  12.938 -0.1660 -0.1104  0.3163
 1139TIP3    H124832   0.979   6.291  12.985  0.9417  0.2641 -1.5615
 1139TIP3    H224833   0.831   6.261  12.974  0.5979  0.6198  1.6583
 1140TIP3   OH224834   0.491   0.832  13.443 -0.2528 -0.4670 -0.0462
 1140TIP3    H124835   0.488   0.928  13.441 -0.5790 -0.4685  0.4609
 1140TIP3    H224836   0.399   0.805  13.455 -0.1908 -0.8488 -0.3993
 1141TIP3   OH224837   1.044   1.107   0.401  0.2282  0.0211  0.5078
 1141TIP3    H124838   1.115   1.156   0.443  0.3315  0.0214  0.3313
 1141TIP3    H224839   1.085   1.066   0.325 -0.1272  0.6326 -0.0184
 1142TIP3   OH224840   5.312   6.422   1.011  0.1399 -0.4944 -0.1501
 1142TIP3    H124841   5.277   6.384   1.091  0.4133 -0.8599 -0.2066
 1142TIP3    H224842   5.399   6.453   1.034  0.6164 -1.5028 -0.5595
 1143TIP3   OH224843   5.096   2.239   3.089 -0.0163  0.0391  0.1459
 1143TIP3    H124844   5.150   2.318   3.096 -0.5425  0.3112  1.3802
 1143TIP3    H224845   5.141   2.174   3.144  1.2881 -1.0417 -2.1440
 1144TIP3   OH224846   3.212   1.710  16.206 -0.3767  0.2837 -0.3347
 1144TIP3    H124847   3.191   1.800  16.181  2.7120  1.1353 -0.0597
 1144TIP3    H224848   3.261   1.675  16.131  3.6582  0.8777  1.8666
 1145TIP3   OH224849   1.028   1.883  11.689 -0.2786 -0.3399  0.0993
 1145TIP3    H124850   1.106   1.929  11.719 -1.7000  1.2507  1.3556
 1145TIP3    H224851   1.019   1.909  11.597  0.1791  0.1240  0.1842
 1146TIP3   OH224852   4.816   1.102  12.341  0.2799 -0.0338  0.2344
 1146TIP3    H124853   4.849   1.037  12.278 -1.0638 -0.8829  0.3822
 1146TIP3    H224854   4.760   1.159  12.288  0.4529  0.2386  0.3462
 1147TIP3   OH224855   1.219   1.479  15.654 -0.1923  0.3240  0.2604
 1147TIP3    H124856   1.143   1.533  15.633 -0.9475 -0.3973  1.1202
 1147TIP3    H224857   1.220   1.474  15.750 -0.3190 -1.4368  0.1903
 1148TIP3   OH224858   6.273   3.464   1.924  0.1680  0.1701 -0.3998
 1148TIP3    H124859   6.350   3.409   1.931  0.4028  0.3681 -1.3135
 1148TIP3    H224860   6.307   3.553   1.918 -0.2013  0.4052  0.8886
 1149TIP3   OH224861   6.451   2.602  12.401  0.0505 -0.7351  0.2265
 1149TIP3    H124862   6.410   2.662  12.339  2.2204  0.5970  0.0336
 1149TIP3    H224863   6.415   2.516  12.378 -1.5833  0.1810 -0.7828
 1150TIP3   OH224864   1.268   5.671  15.025 -0.7677 -0.1411  0.1520
 1150TIP3    H124865   1.345   5.726  15.013 -0.9203  0.1503  0.4894
 1150TIP3    H224866   1.196   5.733  15.037 -0.6225 -0.3874  2.6243
 1151TIP3   OH224867   2.091   6.354  14.428 -0.3563 -0.3990 -0.3777
 1151TIP3    H124868   2.166   6.403  14.395 -0.6841  0.4457  0.0907
 1151TIP3    H224869   2.127   6.298  14.497 -0.0131 -0.6550 -0.7628
 1152TIP3   OH224870   4.626   1.420  12.962 -0.6291  0.1622 -0.1664
 1152TIP3    H124871   4.667   1.338  12.934  0.0955  1.1484 -2.0598
 1152TIP3    H224872   4.698   1.472  12.998 -0.6420  0.9327 -1.2394
 1153TIP3   OH224873   2.840   4.970   2.612  0.4219  0.2045  0.1504
 1153TIP3    H124874   2.924   4.931   2.637  0.0631 -0.4631  0.3133
 1153TIP3    H224875   2.776   4.900   2.625 -0.3499  1.1002  1.2744
 1154TIP3   OH224876   6.038   6.425  14.066 -0.3081 -0.2559  0.3504
 1154TIP3    H124877   5.956   6.456  14.028 -0.3128 -1.1173 -0.3333
 1154TIP3    H224878   6.092   6.504  14.073 -0.3118 -0.0876 -1.4158
 1155TIP3   OH224879   0.603   4.504   6.156  0.2303 -0.8196  0.0451
 1155TIP3    H124880   0.662   4.534   6.225  1.0516  2.6213 -2.0410
 1155TIP3    H224881   0.649   4.429   6.117  2.0308  0.1868  0.1587
 1156TIP3   OH224882   5.798   5.586   2.255  0.1862 -0.0811  0.1946
 1156TIP3    H124883   5.709   5.556   2.268  0.6226 -1.4486  0.0450
 1156TIP3    H224884   5.849   5.507   2.242  1.6058  0.6139  1.3167
 1157TIP3   OH224885   3.447   0.991  12.036 -0.1460  0.2254  0.6030
 1157TIP3    H124886   3.490   0.992  11.951 -0.2917 -0.3992  0.5199
 1157TIP3    H224887   3.444   1.083  12.063 -3.0611  0.8143 -1.5107
 1158TIP3   OH224888   3.868   5.391  16.090 -1.0027  1.2001  0.4145
 1158TIP3    H124889   3.779   5.422  16.104 -0.9514  0.7620  1.7768
 1158TIP3    H224890   3.890   5.344  16.170 -0.0727  0.0436 -0.4942
 1159TIP3   OH224891   4.219   0.310   1.687  0.1094 -0.3297  0.1428
 1159TIP3    H124892   4.252   0.399   1.695  0.3040 -0.5311  1.9740
 1159TIP3    H224893   4.171   0.295   1.768  0.3848 -2.0049  0.0264
 1160TIP3   OH224894   2.011   2.455  16.222  0.1960  0.7878 -0.2166
 1160TIP3    H124895   1.937   2.516  16.219 -0.7878 -0.4696 -1.3636
 1160TIP3    H224896   1.997   2.395  16.150  1.6797 -0.2458  0.3271
 1161TIP3   OH224897   1.352   3.398  12.266 -0.3595 -0.2120  0.7037
 1161TIP3    H124898   1.350   3.304  12.247 -2.0444  0.1171 -0.9256
 1161TIP3    H224899   1.397   3.437  12.191 -2.9121  0.6230 -0.4593
 1162TIP3   OH224900   6.681   4.116  16.912 -0.7065 -0.1958 -0.2887
 1162TIP3    H124901   6.633   4.034  16.918 -1.8911  0.5477  0.5934
 1162TIP3    H224902   6.709   4.134  17.002 -1.5149  0.9768 -0.2580
 1163TIP3   OH224903   3.891   1.168   0.656  0.3179  0.5777  0.2050
 1163TIP3    H124904   3.851   1.122   0.582 -0.2362  0.6806  0.4417
 1163TIP3    H224905   3.914   1.098   0.718  1.7211  0.3929 -0.5061
 1164TIP3   OH224906   5.865   1.932  16.039 -0.0418  0.2415 -0.2770
 1164TIP3    H124907   5.823   1.984  16.108  0.3936  0.0891  0.1047
 1164TIP3    H224908   5.845   1.979  15.958 -3.0441 -1.1284 -0.3981
 1165TIP3   OH224909   1.244   5.751  14.706  0.4000  0.2355 -0.2783
 1165TIP3    H124910   1.288   5.798  14.776 -0.8105  0.7772  0.1333
 1165TIP3    H224911   1.183   5.692  14.751 -0.6852  0.8891 -0.8684
 1166TIP3   OH224912   5.811   0.236  11.325  0.0506 -0.5842 -0.1608
 1166TIP3    H124913   5.769   0.318  11.301 -1.2674 -0.8337  1.2229
 1166TIP3    H224914   5.848   0.203  11.243 -1.9161 -0.0367 -1.3014
 1167TIP3   OH224915   4.821   3.359  15.487 -0.4791 -0.0136 -0.3165
 1167TIP3    H124916   4.905   3.405  15.490 -0.0003 -0.9432  1.5454
 1167TIP3    H224917   4.769   3.400  15.556 -1.5064  0.4321 -1.3414
 1168TIP3   OH224918   3.730   4.572   5.180  0.1310 -0.3057  0.1148
 1168TIP3    H124919   3.782   4.503   5.221 -0.5571  0.0270  1.5953
 1168TIP3    H224920   3.756   4.652   5.226 -4.5437 -0.6681  3.7832
 1169TIP3   OH224921   6.557   6.276   0.311  0.7312 -0.4924  0.1276
 1169TIP3    H124922   6.628   6.239   0.258  0.1085  0.0881 -1.1414
 1169TIP3    H224923   6.515   6.340   0.253  1.0838  1.3982  1.8785
 1170TIP3   OH224924   5.192   4.853   3.527 -0.2420 -0.1541 -0.7458
 1170TIP3    H124925   5.217   4.894   3.444 -0.2995  0.1698 -0.6023
 1170TIP3    H224926   5.185   4.926   3.589  0.3155 -0.4492 -0.3271
 1171TIP3   OH224927   0.924   5.399   0.443  0.2061 -0.0046  0.6175
 1171TIP3    H124928   0.995   5.383   0.505  1.0991  0.3038 -0.3113
 1171TIP3    H224929   0.880   5.478   0.475 -0.4437 -0.8492  1.8317
 1172TIP3   OH224930   1.270   4.695   2.707 -0.4349  0.9144  0.4725
 1172TIP3    H124931   1.272   4.780   2.663 -1.3060  0.8139  0.2277
 1172TIP3    H224932   1.359   4.682   2.738  0.4047  0.6489 -1.9348
 1173TIP3   OH224933   1.264   5.663   2.754 -0.5044  0.3915  0.4008
 1173TIP3    H124934   1.360   5.666   2.754 -0.4487 -1.1537  1.3798
 1173TIP3    H224935   1.240   5.652   2.662  0.3060 -0.4863  0.2931
 1174TIP3   OH224936   5.951   6.296   6.328  0.1250 -0.8028 -0.4452
 1174TIP3    H124937   5.879   6.312   6.267 -0.6590  2.0229  1.1154
 1174TIP3    H224938   5.922   6.223   6.382 -1.0430 -0.4912 -0.6481
 1175TIP3   OH224939   5.550   0.597   3.228  0.7253 -0.6598  0.0527
 1175TIP3    H124940   5.528   0.511   3.192  1.1926  0.0769 -2.0726
 1175TIP3    H224941   5.635   0.584   3.270  0.4233 -1.4046  0.4589
 1176TIP3   OH224942   2.970   1.814  14.658 -0.1084  0.4615 -0.4195
 1176TIP3    H124943   2.917   1.811  14.579  1.1618  1.3738 -1.3102
 1176TIP3    H224944   2.966   1.905  14.686 -0.1041  0.2519  0.2742
 1177TIP3   OH224945   4.769   6.141  14.666 -0.1885  0.0897 -0.6591
 1177TIP3    H124946   4.862   6.147  14.642 -0.2832  1.4963 -0.7589
 1177TIP3    H224947   4.760   6.055  14.706  1.7119  0.8372  1.5550
 1178TIP3   OH224948   1.454   1.922  15.147 -0.0896 -0.2603 -0.0395
 1178TIP3    H124949   1.411   1.905  15.232 -0.6148  0.1235 -0.2240
 1178TIP3    H224950   1.461   2.017  15.142  1.0733 -0.3326  0.1174
 1179TIP3   OH224951   2.611   6.345  15.290 -0.6576 -0.3792  0.3185
 1179TIP3    H124952   2.612   6.376  15.199  0.3178 -0.4342  0.3079
 1179TIP3    H224953   2.550   6.404  15.335  0.6266  1.1153  0.1411
 1180TIP3   OH224954   3.194   6.323  13.122  0.0036  0.0198  0.3526
 1180TIP3    H124955   3.250   6.361  13.054 -0.5203 -1.2467 -0.8094
 1180TIP3    H224956   3.142   6.397  13.154  0.6983  0.7504 -0.1799
 1181TIP3   OH224957   4.821   6.502  13.435 -0.7141 -0.1608  0.9136
 1181TIP3    H124958   4.808   6.595  13.415  1.0187 -0.2692 -0.8859
 1181TIP3    H224959   4.738   6.475  13.475 -1.4181  2.0413  1.0572
 1182TIP3   OH224960   1.425   1.621   6.505  0.2896 -0.3785 -0.0038
 1182TIP3    H124961   1.497   1.568   6.537  0.0654 -1.4974 -1.3098
 1182TIP3    H224962   1.465   1.679   6.440 -0.2225 -2.1411 -1.9592
 1183TIP3   OH224963   5.077   2.855   2.708 -0.0571 -0.6549  0.0177
 1183TIP3    H124964   5.004   2.815   2.661  0.3101 -0.7763 -0.4582
 1183TIP3    H224965   5.155   2.826   2.661  0.3637 -1.3215  1.1095
 1184TIP3   OH224966   3.381   3.035  15.501 -0.8065  0.3536 -0.4436
 1184TIP3    H124967   3.452   3.029  15.565 -1.6248  0.6180  0.4988
 1184TIP3    H224968   3.315   2.973  15.533 -0.4567 -0.8717 -2.0307
 1185TIP3   OH224969   4.906   1.244  15.107 -0.0542 -0.2301  0.4011
 1185TIP3    H124970   4.835   1.279  15.162 -0.4172  0.5628 -0.5685
 1185TIP3    H224971   4.889   1.150  15.103  0.5417 -0.4512  2.4627
 1186TIP3   OH224972   6.392   2.905  13.723 -0.0739 -0.3841  0.1931
 1186TIP3    H124973   6.435   2.899  13.638 -0.3292  3.3307 -0.2903
 1186TIP3    H224974   6.299   2.904  13.703 -0.1404  2.5148  0.1812
 1187TIP3   OH224975   6.127   1.513  14.263  0.1436  0.2581 -0.2945
 1187TIP3    H124976   6.198   1.550  14.315  0.6732  0.4201 -1.1303
 1187TIP3    H224977   6.104   1.582  14.201 -0.3141 -0.0295 -0.4475
 1188TIP3   OH224978   1.781   4.211  14.013 -0.6569 -0.0545  0.4611
 1188TIP3    H124979   1.717   4.183  14.079 -0.2295  1.1184  1.3909
 1188TIP3    H224980   1.849   4.143  14.015 -0.2500  0.3882  1.7949
 1189TIP3   OH224981   6.662   1.490  13.811 -0.7784 -0.4102 -0.1620
 1189TIP3    H124982   6.597   1.560  13.804 -2.0597 -1.6421 -0.7194
 1189TIP3    H224983   6.638   1.428  13.742  0.1982 -1.5103  0.4772
 1190TIP3   OH224984   4.892   4.977   1.074  0.3950  0.1744 -0.3911
 1190TIP3    H124985   4.941   5.026   1.141 -2.9596  1.9688  0.8403
 1190TIP3    H224986   4.933   4.890   1.074  3.2182  1.4368  0.9574
 1191TIP3   OH224987   0.725   5.270   3.653  0.3290  0.4130 -0.6954
 1191TIP3    H124988   0.771   5.350   3.678  0.6854 -0.1487  0.4938
 1191TIP3    H224989   0.783   5.227   3.590 -0.2440  1.4871 -1.9708
 1192TIP3   OH224990   4.281   4.760  13.628 -0.1790 -0.0470 -0.4762
 1192TIP3    H124991   4.325   4.697  13.686  0.3509  0.6850 -0.0760
 1192TIP3    H224992   4.321   4.746  13.542 -0.1923 -0.3740 -0.4326
 1193TIP3   OH224993   2.145   4.663   2.591 -0.0086 -0.1016 -0.0679
 1193TIP3    H124994   2.204   4.711   2.649  0.5199 -1.3470  0.4246
 1193TIP3    H224995   2.076   4.629   2.648 -0.1064 -0.3668 -0.3406
 1194TIP3   OH224996   1.026   1.968   5.240 -0.1335  0.3776  0.3000
 1194TIP3    H124997   1.062   2.051   5.270 -0.9444  0.6988  0.4069
 1194TIP3    H224998   1.034   1.910   5.316 -0.5594  0.6755  0.5731
 1195TIP3   OH224999   3.875   1.041   4.945 -0.9862  0.0015 -0.2147
 1195TIP3    H125000   3.874   1.120   4.999  0.3068  0.5289 -0.9585
 1195TIP3    H225001   3.797   0.992   4.973 -1.2207  1.0400  0.9737
 1196TIP3   OH225002   0.019   5.618   2.706 -0.5478 -0.6260  0.1094
 1196TIP3    H125003   0.064   5.650   2.627  1.9156 -2.2378  0.7951
 1196TIP3    H225004  -0.017   5.533   2.681  0.5413 -1.3010  0.7983
 1197TIP3   OH225005   0.018   1.927  13.476 -0.0730 -0.0328 -0.5894
 1197TIP3    H125006  -0.016   2.010  13.510  0.3957 -0.2423  0.4334
 1197TIP3    H225007   0.082   1.899  13.542  0.8380 -0.4788 -1.6535
 1198TIP3   OH225008   6.529   4.117   2.442 -0.0173 -0.1504  0.3425
 1198TIP3    H125009   6.467   4.051   2.410  0.3437 -0.5189  0.4038
 1198TIP3    H225010   6.534   4.181   2.371  2.5243 -2.1296 -1.3416
 1199TIP3   OH225011   1.959   4.364  11.474 -0.2779 -0.3132 -0.5603
 1199TIP3    H125012   1.902   4.441  11.479 -0.3228 -0.3967  0.3710
 1199TIP3    H225013   1.992   4.353  11.563  0.9298 -0.4717 -1.0159
 1200TIP3   OH225014   1.016   5.155  16.082 -0.2715  0.2976  0.2400
 1200TIP3    H125015   0.923   5.137  16.093 -0.1513 -0.5319 -0.0747
 1200TIP3    H225016   1.047   5.087  16.022  0.5633  0.4895  0.4493
 1201TIP3   OH225017   4.468   0.781   2.025  1.1328  0.2730 -0.5048
 1201TIP3    H125018   4.440   0.867   1.994  0.5130 -0.0993 -1.0043
 1201TIP3    H225019   4.404   0.759   2.094  1.2084  0.1547 -0.4729
 1202TIP3   OH225020   6.516   3.120   5.244  0.6496  0.0556 -0.0151
 1202TIP3    H125021   6.462   3.170   5.182  0.2773 -0.6200 -0.2438
 1202TIP3    H225022   6.522   3.176   5.321  0.8980  0.7965 -0.5643
 1203TIP3   OH225023   2.147   6.446  12.208  0.8108  0.4079 -0.9310
 1203TIP3    H125024   2.193   6.442  12.124  1.4876  1.5589 -0.6248
 1203TIP3    H225025   2.141   6.539  12.228 -0.8184  0.2313 -0.4933
 1204TIP3   OH225026   5.319   5.036   4.105 -0.4096 -0.5148 -0.1021
 1204TIP3    H125027   5.240   4.984   4.118 -0.4083 -1.0516 -2.0555
 1204TIP3    H225028   5.346   5.061   4.193 -1.0705 -2.8417  0.8112
 1205TIP3   OH225029   4.679   1.986   4.352  0.3545 -0.1200 -0.5216
 1205TIP3    H125030   4.765   1.963   4.386 -0.8341 -2.9293  0.7144
 1205TIP3    H225031   4.692   1.995   4.257  2.7469  3.3004  0.0474
 1206TIP3   OH225032   5.531   4.271  14.496 -0.0198 -0.3870 -0.2650
 1206TIP3    H125033   5.499   4.218  14.570 -0.1424 -0.7096 -0.5452
 1206TIP3    H225034   5.594   4.332  14.535  0.6318 -1.1897 -0.0272
 1207TIP3   OH225035   2.357   4.918  13.838  0.7231  0.2919 -0.0692
 1207TIP3    H125036   2.356   5.004  13.798  0.3219  0.4352  0.2543
 1207TIP3    H225037   2.351   4.935  13.932  0.0992 -0.1132 -0.0364
 1208TIP3   OH225038   4.494   1.153   2.955 -0.5839 -0.0654 -0.0957
 1208TIP3    H125039   4.546   1.117   3.026 -0.1562 -0.7674 -0.7488
 1208TIP3    H225040   4.555   1.160   2.881 -0.9152  1.0254 -0.2881
 1209TIP3   OH225041   2.930   1.822   1.936  0.5493 -0.0366  0.6723
 1209TIP3    H125042   2.987   1.879   1.987 -1.0677  0.9873  1.3566
 1209TIP3    H225043   2.941   1.851   1.846  0.9477  0.2851  0.8232
 1210TIP3   OH225044   2.881   0.185  13.917 -0.2413  0.0478 -0.5188
 1210TIP3    H125045   2.797   0.219  13.887  0.1695  1.4759 -0.0738
 1210TIP3    H225046   2.943   0.209  13.849  0.3612  1.7046  0.5890
 1211TIP3   OH225047   3.368   4.720  14.280  0.0148 -0.2474 -0.2190
 1211TIP3    H125048   3.340   4.659  14.212 -2.6331  0.1563  0.4738
 1211TIP3    H225049   3.291   4.734  14.334  1.2939  1.6810  1.1965
 1212TIP3   OH225050   0.999   4.115   1.458 -0.6417 -0.4808  0.1552
 1212TIP3    H125051   1.069   4.058   1.427  0.6563  0.0485  2.0867
 1212TIP3    H225052   0.999   4.188   1.396 -0.4066 -1.1532 -0.6429
 1213TIP3   OH225053   2.694   5.691   3.772  0.1114  0.7607 -0.0822
 1213TIP3    H125054   2.759   5.735   3.717  0.0619  0.5826 -0.2839
 1213TIP3    H225055   2.670   5.612   3.724 -0.2888  0.8459 -0.0318
 1214TIP3   OH225056   4.799   4.302   1.541  0.6855  0.7901  0.1711
 1214TIP3    H125057   4.763   4.323   1.455  0.6034  0.7376  0.1925
 1214TIP3    H225058   4.824   4.210   1.535  1.5034  1.0257 -0.0795
 1215TIP3   OH225059   3.439   0.040   3.298 -0.3370  0.2752  0.4486
 1215TIP3    H125060   3.476   0.035   3.210  0.5826 -0.8130  0.8793
 1215TIP3    H225061   3.495   0.103   3.344 -0.6637  0.6543  0.3252
 1216TIP3   OH225062   0.839   2.110  10.386  0.8220  0.4505  0.0044
 1216TIP3    H125063   0.819   2.096  10.479  1.0820 -1.0708 -0.1583
 1216TIP3    H225064   0.757   2.140  10.348  0.3384 -0.3195  0.4441
 1217TIP3   OH225065   1.852   3.207  15.225 -0.3906 -0.0178  0.1673
 1217TIP3    H125066   1.892   3.292  15.240 -1.1131  0.7731 -2.1019
 1217TIP3    H225067   1.824   3.177  15.312  0.7795  1.5853  1.1120
 1218TIP3   OH225068   4.519   4.767  13.124 -0.3834 -0.2872 -0.1234
 1218TIP3    H125069   4.610   4.791  13.135 -0.4746  1.2952 -2.5651
 1218TIP3    H225070   4.471   4.850  13.125 -1.8485 -1.1144  1.4525
 1219TIP3   OH225071   2.912   1.284  12.808 -0.1406  0.1814  0.0317
 1219TIP3    H125072   2.862   1.248  12.734  1.0617  0.1390 -0.7686
 1219TIP3    H225073   2.977   1.217  12.829 -0.5906  0.1116  1.2624
 1220TIP3   OH225074   5.068   6.687   4.033 -0.2961  0.0108 -0.6099
 1220TIP3    H125075   4.998   6.675   3.969 -0.6900 -0.7636 -0.0440
 1220TIP3    H225076   5.133   6.622   4.009  0.5461  1.1611 -1.5339
 1221TIP3   OH225077   0.228   2.872  13.226 -0.2946 -0.5657  0.9063
 1221TIP3    H125078   0.244   2.842  13.316  1.3812  0.4134  0.9491
 1221TIP3    H225079   0.305   2.845  13.177  0.6883  2.4551  0.6632
 1222TIP3   OH225080   4.999   2.487  16.303 -0.0799  0.0741 -0.4179
 1222TIP3    H125081   4.968   2.464  16.391  0.2693  0.2286 -0.2542
 1222TIP3    H225082   5.077   2.540  16.319  0.1796 -0.1846 -0.8291
 1223TIP3   OH225083   4.181   1.745  10.750 -0.3725 -0.1407  0.2782
 1223TIP3    H125084   4.105   1.801  10.763  1.3845  3.3232 -2.9150
 1223TIP3    H225085   4.162   1.697  10.669  0.0665 -0.5932  0.4417
 1224TIP3   OH225086   5.796   3.572   2.230  0.3356 -0.2085 -0.1760
 1224TIP3    H125087   5.734   3.532   2.169 -1.9772 -0.2265  2.1255
 1224TIP3    H225088   5.793   3.666   2.210 -0.0756 -0.2682 -0.3885
 1225TIP3   OH225089   6.236   4.730   1.098  0.4165 -0.0069 -0.2672
 1225TIP3    H125090   6.283   4.647   1.083 -0.2493 -0.2792 -0.8589
 1225TIP3    H225091   6.144   4.708   1.087  0.3053  1.0842 -1.7466
 1226TIP3   OH225092   0.793   6.159   0.236  1.4845  0.2669  0.3730
 1226TIP3    H125093   0.760   6.210   0.162 -0.3210  0.0425  0.9937
 1226TIP3    H225094   0.797   6.069   0.202 -1.0800 -0.1331  1.0698
 1227TIP3   OH225095   0.151   3.524  14.280 -0.1410  0.2425  0.3238
 1227TIP3    H125096   0.167   3.439  14.239 -0.6799  0.3850 -0.1860
 1227TIP3    H225097   0.213   3.527  14.353  0.5913 -0.1578 -0.2619
 1228TIP3   OH225098   2.623   5.700  17.003 -0.1444 -0.3517 -0.0270
 1228TIP3    H125099   2.702   5.748  17.027 -0.5211  0.5398 -0.5255
 1228TIP3    H225100   2.568   5.703  17.081 -0.4895  0.7127 -0.3043
 1229TIP3   OH225101   6.632   0.323   3.070  0.3587  0.0084 -0.5521
 1229TIP3    H125102   6.569   0.389   3.101  0.8136  0.4113 -0.4831
 1229TIP3    H225103   6.715   0.369   3.067  0.7201 -0.6292 -0.3035
 1230TIP3   OH225104   2.770   1.817  14.458  0.4017  0.4438  0.3163
 1230TIP3    H125105   2.735   1.733  14.428  0.3349  0.3638  0.6124
 1230TIP3    H225106   2.743   1.880  14.391  0.4091  0.2380  0.1212
 1231TIP3   OH225107   5.602   6.271   4.564  0.2282  0.2315  0.0676
 1231TIP3    H125108   5.554   6.188   4.557 -1.0946  1.0382 -0.6414
 1231TIP3    H225109   5.659   6.272   4.487  0.1823  0.0238  0.0294
 1232TIP3   OH225110   3.571   5.256   1.222 -0.2901 -0.1368  0.7655
 1232TIP3    H125111   3.586   5.174   1.174  1.9756  0.8234 -0.1861
 1232TIP3    H225112   3.493   5.237   1.275 -1.2885 -2.0797 -1.2926
 1233TIP3   OH225113   4.626   6.658   0.111 -0.3415 -0.0865  0.5437
 1233TIP3    H125114   4.708   6.706   0.105 -0.2303 -0.2594  0.6871
 1233TIP3    H225115   4.650   6.567   0.092 -0.3449 -0.2923  1.5167
 1234TIP3   OH225116   4.744   2.855  10.940 -0.0367  0.3625  0.6508
 1234TIP3    H125117   4.800   2.830  10.866  0.4402  0.9215  0.8167
 1234TIP3    H225118   4.787   2.932  10.977 -0.7912  0.6542  0.9283
 1235TIP3   OH225119   5.507   5.572   1.881 -0.0702  0.0407  0.4856
 1235TIP3    H125120   5.481   5.539   1.967 -2.2957 -0.6559 -0.4319
 1235TIP3    H225121   5.603   5.565   1.882 -0.2138 -2.7569  1.8195
 1236TIP3   OH225122   3.808   6.141  14.790 -0.3466 -0.5298 -0.1617
 1236TIP3    H125123   3.777   6.227  14.817 -2.5871 -1.7155  1.1359
 1236TIP3    H225124   3.842   6.154  14.702 -1.1354  1.5763 -0.1676
 1237TIP3   OH225125   1.663   4.637  15.790 -0.3305  0.2969 -0.5746
 1237TIP3    H125126   1.590   4.624  15.850  0.5611 -0.5135  0.3386
 1237TIP3    H225127   1.714   4.708  15.829  1.3745 -1.5903  0.7476
 1238TIP3   OH225128   3.157   4.668  16.612  0.2749  0.1888  0.0499
 1238TIP3    H125129   3.250   4.688  16.620  0.3335 -0.1060  0.0909
 1238TIP3    H225130   3.152   4.600  16.544 -0.0696  1.4762 -1.2434
 1239TIP3   OH225131   6.660   2.609   1.265  0.1739 -0.2211 -0.3781
 1239TIP3    H125132   6.659   2.531   1.209  0.6322  0.1116 -0.8524
 1239TIP3    H225133   6.636   2.681   1.206 -3.2923 -0.4148  0.6942
 1240TIP3   OH225134   1.012   3.464  10.937 -0.7675 -0.1061 -0.0995
 1240TIP3    H125135   1.015   3.368  10.943 -1.0961 -0.0823  0.4750
 1240TIP3    H225136   1.080   3.486  10.873 -0.3884 -0.6961  0.0930
 1241TIP3   OH225137   6.581   5.290   2.641  0.4316  0.0895  0.2227
 1241TIP3    H125138   6.507   5.306   2.583  1.9857 -0.0284 -1.8779
 1241TIP3    H225139   6.557   5.211   2.689  0.1800 -1.4015 -2.2343
 1242TIP3   OH225140   1.503   5.609   1.074 -0.1491  0.4344  0.6456
 1242TIP3    H125141   1.423   5.659   1.090 -0.6969  0.4564 -2.0059
 1242TIP3    H225142   1.472   5.519   1.061  0.2767  0.4082 -0.1799
 1243TIP3   OH225143   2.404   5.896  15.276  0.2327 -0.1083 -0.2636
 1243TIP3    H125144   2.471   5.874  15.211  0.2711  0.0683 -0.2834
 1243TIP3    H225145   2.323   5.902  15.225  0.2774  0.1134 -0.3089
 1244TIP3   OH225146   0.281   5.851  13.386 -0.1293 -0.5001  0.1109
 1244TIP3    H125147   0.241   5.850  13.473  0.9689  1.5185  0.6602
 1244TIP3    H225148   0.375   5.854  13.403  0.1247 -0.9898 -1.1559
 1245TIP3   OH225149   1.483   5.985   5.648  0.3750  0.2523 -0.0322
 1245TIP3    H125150   1.437   6.018   5.726 -0.4958 -0.8021 -0.0849
 1245TIP3    H225151   1.496   6.063   5.594 -1.0474  0.6487  0.1562
 1246TIP3   OH225152   4.796   1.592  14.188 -0.3173 -0.0256 -0.2663
 1246TIP3    H125153   4.715   1.631  14.221  0.6514  1.8299 -0.0013
 1246TIP3    H225154   4.858   1.602  14.260  0.2205 -1.2110 -0.5591
 1247TIP3   OH225155   5.133   3.556  11.254  0.2817 -0.0993 -0.1180
 1247TIP3    H125156   5.079   3.516  11.185  1.2532  1.5265 -1.8873
 1247TIP3    H225157   5.078   3.624  11.291  0.5535  0.5467 -0.8811
 1248TIP3   OH225158   4.993   3.536   4.672 -0.3614  0.1791  0.1075
 1248TIP3    H125159   4.971   3.534   4.579  1.9400 -2.4766 -0.4452
 1248TIP3    H225160   5.085   3.561   4.675 -0.5812  0.8785  1.7218
 1249TIP3   OH225161   2.427   2.441   2.501  0.1810  0.1775 -0.2216
 1249TIP3    H125162   2.492   2.511   2.499 -0.0444  0.3633 -1.1397
 1249TIP3    H225163   2.402   2.428   2.409  0.7020 -1.5428 -0.1422
 1250TIP3   OH225164   2.849   4.152  16.716 -0.1469  0.8507 -0.0761
 1250TIP3    H125165   2.856   4.075  16.773 -0.9765  0.4682 -0.4832
 1250TIP3    H225166   2.927   4.203  16.735  0.3025  0.0084  0.3562
 1251TIP3   OH225167   3.255   1.418  13.776 -0.0383  0.1793  0.2337
 1251TIP3    H125168   3.221   1.443  13.690 -1.9796 -0.0840  0.8973
 1251TIP3    H225169   3.334   1.471  13.787 -1.5468  2.6501 -0.3638
 1252TIP3   OH225170   1.396   0.940  13.748 -0.4025 -0.4805  0.3031
 1252TIP3    H125171   1.364   1.024  13.781 -1.5385 -1.0433  0.6717
 1252TIP3    H225172   1.479   0.927  13.792 -0.7800 -0.0985  1.1422
 1253TIP3   OH225173   0.410   4.289   2.414  0.9491  0.0545  0.0229
 1253TIP3    H125174   0.480   4.231   2.442 -0.3598 -0.7042  1.8221
 1253TIP3    H225175   0.407   4.357   2.481 -0.1948 -0.0718  0.1119
 1254TIP3   OH225176   4.685   3.310   1.216 -0.2396  0.2622 -0.7233
 1254TIP3    H125177   4.625   3.320   1.142  0.7517 -0.4565 -1.6353
 1254TIP3    H225178   4.760   3.365   1.194  0.6265 -0.9473 -0.8751
 1255TIP3   OH225179   1.626   6.566  12.143 -0.1233  0.6249 -0.5094
 1255TIP3    H125180   1.687   6.541  12.212 -0.1438  1.2072 -0.2824
 1255TIP3    H225181   1.672   6.634  12.093 -1.0206  1.8891  0.3483
 1256TIP3   OH225182   1.791   4.777  11.655  0.2001 -0.4771 -0.3249
 1256TIP3    H125183   1.821   4.816  11.737  1.4438 -1.5811 -0.2321
 1256TIP3    H225184   1.734   4.705  11.682  1.2485 -1.3405 -0.4165
 1257TIP3   OH225185   2.099   0.239  11.920  0.3496 -0.1385 -0.6780
 1257TIP3    H125186   2.089   0.335  11.921 -1.8246 -0.3353  1.2844
 1257TIP3    H225187   2.177   0.224  11.866 -0.0818  2.6554 -2.2025
 1258TIP3   OH225188   6.443   1.225   6.003  0.2822  0.4592  0.1565
 1258TIP3    H125189   6.447   1.214   5.908  2.2883  2.1909  0.0002
 1258TIP3    H225190   6.350   1.224   6.023 -0.1506 -0.6205 -1.7240
 1259TIP3   OH225191   0.833   3.828  12.441 -0.2009  0.4110 -0.1463
 1259TIP3    H125192   0.798   3.911  12.475  0.6079  0.6191  0.1951
 1259TIP3    H225193   0.766   3.763  12.464 -1.6540  1.2166 -1.9363
 1260TIP3   OH225194   3.096   4.263   3.056  0.0270  0.3658  0.1829
 1260TIP3    H125195   3.009   4.273   3.095 -0.9366  2.3034 -2.3036
 1260TIP3    H225196   3.082   4.207   2.979  1.0159  0.4514 -0.0693
 1261TIP3   OH225197   1.055   6.614  11.440 -0.3060 -0.1233 -0.2156
 1261TIP3    H125198   1.047   6.709  11.439  1.2438  0.0106 -0.4476
 1261TIP3    H225199   1.061   6.589  11.348 -0.8971 -0.4812 -0.1655
 1262TIP3   OH225200   3.037   4.728   6.100  0.4488  0.3711  0.2269
 1262TIP3    H125201   3.108   4.769   6.148 -0.3113  1.1441  0.6983
 1262TIP3    H225202   2.966   4.719   6.164 -0.0735  0.1078 -0.3779
 1263TIP3   OH225203   4.347   2.271   4.691 -0.6679 -0.4184 -0.0539
 1263TIP3    H125204   4.303   2.242   4.770 -0.2990 -0.9643 -0.0475
 1263TIP3    H225205   4.381   2.191   4.651 -1.0410 -0.1802 -0.8807
 1264TIP3   OH225206   4.619   1.821   2.466 -0.1842 -0.2212  0.7466
 1264TIP3    H125207   4.627   1.762   2.391  1.1282  1.1342 -0.1996
 1264TIP3    H225208   4.601   1.907   2.427  1.8991  0.7583  1.9033
 1265TIP3   OH225209   2.241   0.081  14.951 -0.1205 -0.3993  0.6193
 1265TIP3    H125210   2.156   0.091  14.908  1.1197  0.6574 -1.6763
 1265TIP3    H225211   2.272   0.171  14.965  0.8724 -0.7790  0.9274
 1266TIP3   OH225212   6.530   5.213   3.540  0.6168  0.1144 -0.4109
 1266TIP3    H125213   6.608   5.179   3.496 -0.2600 -0.8525 -1.2486
 1266TIP3    H225214   6.562   5.286   3.593  2.0984 -0.3092 -0.6959
 1267TIP3   OH225215   2.875   2.908   0.423 -0.2926  0.2775 -0.1894
 1267TIP3    H125216   2.943   2.841   0.429 -1.8525 -1.2141  1.5428
 1267TIP3    H225217   2.800   2.862   0.386 -1.0270  1.3673 -0.0651
 1268TIP3   OH225218   5.153   2.258  13.483  0.2434 -0.5678  0.4965
 1268TIP3    H125219   5.134   2.303  13.566  0.7867 -0.2992  0.4725
 1268TIP3    H225220   5.234   2.296  13.452  0.4614 -1.2323  0.2322
 1269TIP3   OH225221   3.955   5.506  11.438 -0.4095  0.0634 -0.1457
 1269TIP3    H125222   3.904   5.516  11.357 -1.0453 -1.0922  0.0996
 1269TIP3    H225223   4.028   5.568  11.428 -0.7417  0.2743 -1.3893
 1270TIP3   OH225224   6.650   3.659  12.358 -0.1855  0.1186  0.3723
 1270TIP3    H125225   6.636   3.750  12.331 -0.5338 -0.3664 -1.0961
 1270TIP3    H225226   6.563   3.629  12.386  0.0825  0.4704  1.6344
 1271TIP3   OH225227   5.939   6.339  14.349 -0.2006  0.1362 -0.1863
 1271TIP3    H125228   5.884   6.274  14.305 -0.0120  0.1414 -0.4327
 1271TIP3    H225229   5.976   6.390  14.278  0.4997 -0.1691 -0.0400
 1272TIP3   OH225230   5.315   6.108  13.856  0.0938 -0.2094 -0.0449
 1272TIP3    H125231   5.327   6.013  13.847 -2.7006 -0.5180 -0.8713
 1272TIP3    H225232   5.280   6.118  13.945 -1.9511 -0.2208 -0.8289
 1273TIP3   OH225233   3.369   3.047   1.725 -0.2450  0.3717  0.3744
 1273TIP3    H125234   3.391   3.138   1.706 -0.1788  0.0138 -1.3419
 1273TIP3    H225235   3.275   3.047   1.739 -0.2735  0.6822  0.1836
 1274TIP3   OH225236   2.444   6.303   5.674  0.5082 -0.4175 -0.7061
 1274TIP3    H125237   2.426   6.216   5.711  1.2129  0.3322  1.4723
 1274TIP3    H225238   2.524   6.332   5.719 -0.5084  1.9644 -0.3756
 1275TIP3   OH225239   4.537   4.495  16.242  0.1096  0.1604 -0.2139
 1275TIP3    H125240   4.485   4.429  16.288 -1.3778  1.1588 -0.4187
 1275TIP3    H225241   4.623   4.454  16.229 -0.3257 -1.1651  0.9714
 1276TIP3   OH225242   2.971   6.057   4.316 -0.0217 -0.0967 -0.4107
 1276TIP3    H125243   3.040   6.013   4.265  0.2521 -0.4691  0.2742
 1276TIP3    H225244   2.889   6.031   4.272  0.3649  1.6921 -2.2279
 1277TIP3   OH225245   5.002   1.848  10.503  0.4781  0.0158 -0.2118
 1277TIP3    H125246   4.918   1.895  10.510  0.6872  0.4649 -0.6167
 1277TIP3    H225247   4.982   1.758  10.529 -0.1772  0.0737 -0.5059
 1278TIP3   OH225248   6.359   4.260   3.212 -0.1270 -0.2714 -0.5511
 1278TIP3    H125249   6.265   4.258   3.231  0.0773  2.1787  0.8855
 1278TIP3    H225250   6.363   4.271   3.117 -1.3139  0.5566 -0.5209
 1279TIP3   OH225251   4.837   1.580  17.119  0.2196 -0.4605  0.3412
 1279TIP3    H125252   4.816   1.664  17.078  2.6909  0.3389  0.6354
 1279TIP3    H225253   4.788   1.581  17.201 -1.2480 -0.1437 -0.5179
 1280TIP3   OH225254   6.760   1.736   4.429 -0.1767  0.8087 -0.1945
 1280TIP3    H125255   6.771   1.831   4.430 -1.3197  0.9594  2.1707
 1280TIP3    H225256   6.687   1.720   4.369 -0.0937  1.4257 -0.4574
 1281TIP3   OH225257   6.661   0.853   2.085  0.5647  0.9271  0.6976
 1281TIP3    H125258   6.649   0.944   2.113  0.2575  1.0399  0.1968
 1281TIP3    H225259   6.629   0.850   1.995  0.5206  0.3109  0.7260
 1282TIP3   OH225260   2.428   1.835  14.448 -0.3073 -0.1786  0.6931
 1282TIP3    H125261   2.474   1.919  14.457 -1.2092  0.2979  0.9489
 1282TIP3    H225262   2.442   1.810  14.357  0.7619 -0.2169  0.8686
 1283TIP3   OH225263   4.195   6.238   2.640  0.2676 -0.1509  0.6504
 1283TIP3    H125264   4.236   6.172   2.695 -1.5387 -1.1473  0.8465
 1283TIP3    H225265   4.239   6.230   2.555  0.8824 -0.7624  1.0217
 1284TIP3   OH225266   1.659   2.201  15.575  0.0501 -0.0434 -0.4227
 1284TIP3    H125267   1.685   2.195  15.483  0.3856 -1.2161 -0.2663
 1284TIP3    H225268   1.607   2.122  15.590  1.2148 -0.5988  0.7719
 1285TIP3   OH225269   0.922   3.596   5.104  0.0607  0.6050  0.7363
 1285TIP3    H125270   0.860   3.580   5.176 -0.0346  2.1677  1.0222
 1285TIP3    H225271   0.884   3.550   5.029 -0.6550  0.2790  1.2900
 1286TIP3   OH225272   4.351   0.533   5.359  0.4449 -0.0833  0.2068
 1286TIP3    H125273   4.324   0.442   5.374 -0.0868 -0.0042 -0.2512
 1286TIP3    H225274   4.279   0.585   5.395  0.0420  0.1317 -0.9060
 1287TIP3   OH225275   0.384   6.500  17.228  0.1594 -0.1402  0.6133
 1287TIP3    H125276   0.293   6.524  17.206  1.0405  0.0482 -3.2234
 1287TIP3    H225277   0.388   6.406  17.211 -0.2843 -0.9320  4.5790
 1288TIP3   OH225278   1.613   1.517   5.130 -0.2708  0.3005  0.2687
 1288TIP3    H125279   1.538   1.575   5.144 -0.4619 -0.1193  1.0529
 1288TIP3    H225280   1.633   1.483   5.217  1.3159  0.9912  0.1851
 1289TIP3   OH225281   4.549   4.689   5.026 -0.2688 -0.5677 -0.0421
 1289TIP3    H125282   4.544   4.603   4.983  1.5242  0.1603 -1.7771
 1289TIP3    H225283   4.640   4.716   5.014 -1.1615  2.2131 -0.7859
 1290TIP3   OH225284   1.217   1.652   1.672 -0.4823 -0.1452  0.4466
 1290TIP3    H125285   1.239   1.693   1.588  1.6506 -0.9682  0.5733
 1290TIP3    H225286   1.263   1.704   1.738 -2.1701  0.5105  1.1342
 1291TIP3   OH225287   3.845   1.578  11.588 -0.4528 -0.1565  0.2259
 1291TIP3    H125288   3.771   1.617  11.636 -0.4428 -0.6985  0.6837
 1291TIP3    H225289   3.912   1.646  11.590 -0.7141  0.1001  0.3568
 1292TIP3   OH225290   4.819   3.470   0.028  0.4979  0.5634 -0.4250
 1292TIP3    H125291   4.799   3.384  -0.009  0.3684  0.3822  0.0733
 1292TIP3    H225292   4.905   3.459   0.069  0.2603  0.5445  0.0631
 1293TIP3   OH225293   6.676   6.687  11.633  0.3798  0.6690  0.4324
 1293TIP3    H125294   6.768   6.663  11.637  0.3260  0.6175  1.4267
 1293TIP3    H225295   6.650   6.700  11.724 -0.8344 -0.2234  0.2278
 1294TIP3   OH225296   4.649   0.892   5.530 -0.4795 -0.2059 -0.1715
 1294TIP3    H125297   4.675   0.807   5.565  0.6197 -0.2648 -1.0820
 1294TIP3    H225298   4.677   0.955   5.597  1.8437 -0.2936 -1.0213
 1295TIP3   OH225299   1.857   0.772   5.322  0.2018 -0.0363 -0.1921
 1295TIP3    H125300   1.939   0.819   5.308  0.3369 -0.7962 -2.0950
 1295TIP3    H225301   1.883   0.693   5.369  0.5930 -0.3553 -0.9336
 1296TIP3   OH225302   0.459   2.861   5.577  0.1885  0.2403 -0.1704
 1296TIP3    H125303   0.418   2.936   5.534 -0.2408 -0.0098 -0.1996
 1296TIP3    H225304   0.441   2.873   5.670  0.1473  0.1877 -0.1720
 1297TIP3   OH225305   2.238   1.883   3.531  0.2914  0.0660 -0.3363
 1297TIP3    H125306   2.209   1.949   3.593  1.7068  0.8284 -0.4606
 1297TIP3    H225307   2.327   1.860   3.559 -0.4618 -2.3803  0.1972
 1298TIP3   OH225308   3.674   2.524  14.277  0.0903 -0.5378  0.6400
 1298TIP3    H125309   3.601   2.461  14.278  0.3696 -0.8551  1.3491
 1298TIP3    H225310   3.734   2.491  14.344  0.3465  0.3608  0.8512
 1299TIP3   OH225311   0.364   5.971   0.821  0.2953  0.3455 -0.4313
 1299TIP3    H125312   0.278   5.991   0.783 -0.4962 -0.0663  1.0774
 1299TIP3    H225313   0.406   5.915   0.756 -1.2734 -0.8572 -0.4424
 1300TIP3   OH225314   4.456   2.726   1.419 -0.1207 -0.3649  0.4672
 1300TIP3    H125315   4.516   2.661   1.382 -0.7370 -0.7622  0.1655
 1300TIP3    H225316   4.400   2.677   1.479  0.6347  0.2191  1.6580
 1301TIP3   OH225317   5.893   0.330  15.007 -0.0216  0.6956 -0.0959
 1301TIP3    H125318   5.977   0.302  15.042 -0.5715  1.4910  1.9202
 1301TIP3    H225319   5.894   0.301  14.916  0.2284 -4.1338  1.3248
 1302TIP3   OH225320   0.476   0.578   3.814  0.3238 -0.0850 -0.1153
 1302TIP3    H125321   0.519   0.492   3.812  1.2104  0.3416  0.7284
 1302TIP3    H225322   0.420   0.578   3.736 -0.7054 -1.9518  0.5771
 1303TIP3   OH225323   3.224   0.775   1.995 -0.6029  0.2557 -0.1932
 1303TIP3    H125324   3.131   0.754   2.010 -0.9246  0.9504 -1.1839
 1303TIP3    H225325   3.242   0.740   1.908 -0.3722  1.5659 -0.6758
 1304TIP3   OH225326   1.077   0.646  12.416  0.1508  0.0204  0.0984
 1304TIP3    H125327   1.014   0.718  12.410  0.6216  0.5675  1.5378
 1304TIP3    H225328   1.140   0.675  12.481  1.7436 -0.6463 -1.1143
 1305TIP3   OH225329   1.670   6.326   6.566  0.0782  0.0939 -0.4393
 1305TIP3    H125330   1.648   6.316   6.473 -0.5439 -0.1762 -0.2637
 1305TIP3    H225331   1.589   6.357   6.606  0.0784 -0.6919  0.1770
 1306TIP3   OH225332   1.583   2.243   0.902  0.0320  0.5095 -0.0497
 1306TIP3    H125333   1.597   2.232   0.808  1.0532  2.9409 -0.2252
 1306TIP3    H225334   1.668   2.221   0.941  0.6699  2.8498 -0.0291
 1307TIP3   OH225335   4.976   5.203  13.011  0.0459  0.3394  0.3603
 1307TIP3    H125336   4.939   5.205  13.099 -0.1329  1.6074  0.2689
 1307TIP3    H225337   5.018   5.289  13.001 -0.5052  0.4523 -1.0297
 1308TIP3   OH225338   2.171   6.088   0.173  0.8880 -0.5453 -0.7309
 1308TIP3    H125339   2.168   6.107   0.267 -3.3802 -0.3244 -0.7972
 1308TIP3    H225340   2.211   6.167   0.135  0.2098  0.5079  0.6693
 1309TIP3   OH225341   4.629   3.966   0.158  0.0614 -0.2494  0.1164
 1309TIP3    H125342   4.541   3.993   0.130  0.3446  0.5964  0.0328
 1309TIP3    H225343   4.650   4.026   0.229  1.9181  1.6889 -2.0165
 1310TIP3   OH225344   0.413   3.035   4.915  0.1070 -0.5295  0.1026
 1310TIP3    H125345   0.403   3.027   4.820 -1.1467 -2.7965  0.4050
 1310TIP3    H225346   0.387   2.950   4.950  0.3747  0.3321  2.5056
 1311TIP3   OH225347   6.572   1.490   3.098 -0.4103  0.2159  0.2772
 1311TIP3    H125348   6.664   1.492   3.127  0.0142  1.3775 -1.1399
 1311TIP3    H225349   6.530   1.560   3.148 -0.2999  0.3654  0.1609
 1312TIP3   OH225350   1.511   1.708   1.849  0.1321 -0.2855  0.4574
 1312TIP3    H125351   1.496   1.613   1.846 -0.3818 -0.2406  1.4574
 1312TIP3    H225352   1.427   1.746   1.823  0.9438 -0.0968 -2.1074
 1313TIP3   OH225353   5.849   3.671  16.018 -0.3154 -0.0554  0.3179
 1313TIP3    H125354   5.937   3.668  16.053 -0.2467 -2.0909  0.0478
 1313TIP3    H225355   5.859   3.647  15.926 -1.0799  0.2366  0.1524
 1314TIP3   OH225356   5.472   4.362   1.517  0.0720 -0.2244 -0.0112
 1314TIP3    H125357   5.396   4.419   1.506  0.8147  0.4290 -2.0129
 1314TIP3    H225358   5.436   4.280   1.550 -1.0199  1.3640  2.9553
 1315TIP3   OH225359   1.083   3.551  14.123  0.0877  0.2749  0.0044
 1315TIP3    H125360   0.997   3.586  14.148 -0.6106 -1.1119 -0.4026
 1315TIP3    H225361   1.144   3.588  14.186 -0.6476  2.1337 -0.3367
 1316TIP3   OH225362   0.278   0.717  12.536 -0.0941 -0.4068  0.3970
 1316TIP3    H125363   0.218   0.690  12.467  0.4860 -0.2954 -0.1541
 1316TIP3    H225364   0.233   0.694  12.618 -1.2625  0.4618  0.0189
 1317TIP3   OH225365   1.150   3.160   6.552 -0.0096 -0.2709 -0.3115
 1317TIP3    H125366   1.216   3.142   6.619 -1.7326  1.2048  1.8565
 1317TIP3    H225367   1.075   3.107   6.577  0.2527 -1.7843 -2.6463
 1318TIP3   OH225368   1.563   5.456   4.686  0.2801  0.4051 -0.2202
 1318TIP3    H125369   1.546   5.548   4.705  1.0436  0.2977  1.0153
 1318TIP3    H225370   1.655   5.454   4.659  0.7407 -0.2243  1.3519
 1319TIP3   OH225371   3.956   1.459   5.921  0.6535  0.4053  0.3681
 1319TIP3    H125372   3.947   1.380   5.973  0.5289 -0.0054 -0.2725
 1319TIP3    H225373   4.021   1.437   5.855  1.4119  1.1827  0.8400
 1320TIP3   OH225374   5.827   2.533  15.264  0.3966 -0.0244  0.3339
 1320TIP3    H125375   5.857   2.592  15.195  1.7610 -1.9436 -0.7479
 1320TIP3    H225376   5.733   2.550  15.271 -0.1961 -1.2448 -3.5082
 1321TIP3   OH225377   2.093   4.527   1.620 -0.2784 -0.3031  0.0446
 1321TIP3    H125378   2.099   4.621   1.603 -2.9563 -0.4939 -2.2931
 1321TIP3    H225379   2.048   4.520   1.704 -1.1358  0.5037 -0.3449
 1322TIP3   OH225380   4.326   3.765  11.940 -0.2141  0.7329 -0.4713
 1322TIP3    H125381   4.368   3.844  11.976 -2.8341  0.8617  2.5759
 1322TIP3    H225382   4.386   3.694  11.962 -0.6303  1.1418  2.2405
 1323TIP3   OH225383   0.839   4.542   4.775  0.8634 -0.2183 -0.0406
 1323TIP3    H125384   0.864   4.622   4.821  0.0902  0.4099 -0.6935
 1323TIP3    H225385   0.757   4.515   4.817  0.1766  0.3332 -0.9756
 1324TIP3   OH225386   1.406   3.183  15.433 -0.3954 -0.8968 -0.2327
 1324TIP3    H125387   1.474   3.250  15.436 -1.8396  0.5393  1.9152
 1324TIP3    H225388   1.380   3.180  15.341  2.0934 -1.0312 -0.9681
 1325TIP3   OH225389   0.417   3.118  12.896  0.2822  0.0450  0.1949
 1325TIP3    H125390   0.355   3.184  12.865  0.2946  0.2009  0.4927
 1325TIP3    H225391   0.489   3.169  12.934  0.0595 -0.1389  0.8826
 1326TIP3   OH225392   6.677   5.422   0.687 -0.8397  0.4314  0.0193
 1326TIP3    H125393   6.671   5.408   0.592 -3.4604 -1.2918  0.3785
 1326TIP3    H225394   6.601   5.476   0.708 -1.1629 -0.5147  1.3456
 1327TIP3   OH225395   5.739   1.320   5.384  0.3440 -0.0198 -0.3609
 1327TIP3    H125396   5.787   1.348   5.462 -0.1274  2.0461 -0.7572
 1327TIP3    H225397   5.680   1.394   5.366 -1.9886 -1.9007 -0.6865
 1328TIP3   OH225398   0.401   4.880  12.634  0.1890  0.0775 -0.3550
 1328TIP3    H125399   0.377   4.961  12.679 -0.3262 -0.3123  0.0848
 1328TIP3    H225400   0.484   4.855  12.673 -0.3777 -0.3920  0.5761
 1329TIP3   OH225401   1.198   3.895   1.364  0.3059  0.4832  0.1061
 1329TIP3    H125402   1.187   3.808   1.404  0.1963 -0.7741 -2.5315
 1329TIP3    H225403   1.277   3.930   1.406  1.0384 -1.3840  0.3758
 1330TIP3   OH225404   6.612   4.937  13.658 -0.1161  0.0264  0.2333
 1330TIP3    H125405   6.620   4.846  13.630 -0.4612 -0.3952  1.4832
 1330TIP3    H225406   6.557   4.933  13.736 -0.3971  1.3433  0.1072
 1331TIP3   OH225407   5.573   2.450  11.644 -0.1866  0.0764  0.3742
 1331TIP3    H125408   5.594   2.357  11.653  1.7601  0.4868  0.3637
 1331TIP3    H225409   5.511   2.453  11.571  0.4323 -1.1429 -0.2353
 1332TIP3   OH225410   6.443   1.814   1.899 -0.3004  0.1514 -0.1046
 1332TIP3    H125411   6.426   1.797   1.806 -0.7720 -1.7914  0.3232
 1332TIP3    H225412   6.411   1.904   1.912  0.2839  0.6528 -1.9343
 1333TIP3   OH225413   5.140   2.433   6.329  0.2733 -0.6080  0.2350
 1333TIP3    H125414   5.180   2.505   6.377 -0.2412 -0.0662 -0.1392
 1333TIP3    H225415   5.189   2.427   6.247  0.5715 -0.9438  0.4376
 1334TIP3   OH225416   5.784   0.864  16.909 -0.5078 -0.2868  0.1072
 1334TIP3    H125417   5.711   0.915  16.945 -1.1439  0.2878 -1.8855
 1334TIP3    H225418   5.755   0.773  16.915 -0.8352 -0.1555  0.5218
 1335TIP3   OH225419   0.861   0.660   3.285 -0.1684 -0.0388  0.1146
 1335TIP3    H125420   0.818   0.673   3.370 -1.6727  0.5970 -0.7257
 1335TIP3    H225421   0.948   0.699   3.296 -0.7084  0.9310  1.0679
 1336TIP3   OH225422   5.117   0.248  16.198 -0.5014 -0.1017  0.5619
 1336TIP3    H125423   5.059   0.296  16.139 -0.8671  0.1798  1.1467
 1336TIP3    H225424   5.131   0.164  16.155  0.8411  0.8348 -0.8999
 1337TIP3   OH225425   2.634   3.984  11.333  0.3609  0.0265  0.4900
 1337TIP3    H125426   2.667   4.029  11.255 -1.9379 -0.0044 -0.5193
 1337TIP3    H225427   2.644   4.049  11.403 -1.0001  1.3958 -0.5599
 1338TIP3   OH225428   2.031   0.071  16.496  0.0230 -0.4605  0.1632
 1338TIP3    H125429   2.069   0.019  16.425 -0.0905 -0.2293 -0.0675
 1338TIP3    H225430   2.033   0.013  16.572 -1.2522 -1.2363 -0.3768
 1339TIP3   OH225431   5.226   1.601  12.062  0.2320  0.1553 -0.1467
 1339TIP3    H125432   5.134   1.604  12.037  0.5503  0.7703 -1.2683
 1339TIP3    H225433   5.230   1.532  12.129 -1.2185  0.8386  0.6765
 1340TIP3   OH225434   1.889   6.782   4.011  0.0512 -0.5727 -0.0412
 1340TIP3    H125435   1.833   6.854   4.041 -1.2552 -1.8283  0.5889
 1340TIP3    H225436   1.928   6.747   4.091  1.8587  0.3712 -0.4890
 1341TIP3   OH225437   6.019   0.337   0.411 -0.1448 -0.1857 -0.7288
 1341TIP3    H125438   5.933   0.296   0.418  0.4123 -1.1778  0.7591
 1341TIP3    H225439   6.015   0.412   0.469  0.3189 -0.8429  0.1631
 1342TIP3   OH225440   3.890   3.387  12.212  0.4847  0.2267 -0.0380
 1342TIP3    H125441   3.864   3.462  12.158 -0.2576 -0.5527 -0.7825
 1342TIP3    H225442   3.898   3.315  12.149  1.2174 -0.3119  0.6698
 1343TIP3   OH225443   2.189   3.056   1.345 -0.0390 -0.9003  0.6787
 1343TIP3    H125444   2.152   3.083   1.261 -1.8556  0.6076  1.9161
 1343TIP3    H225445   2.117   3.013   1.390  0.3934 -0.0354  2.2106
 1344TIP3   OH225446   0.589   5.246   3.097 -1.1435 -0.0329  0.0952
 1344TIP3    H125447   0.633   5.326   3.127 -0.0582 -0.2312 -0.9290
 1344TIP3    H225448   0.646   5.175   3.125 -0.0448 -0.2191 -2.4905
 1345TIP3   OH225449   6.528   0.180   3.447  0.6037 -0.3925 -0.1448
 1345TIP3    H125450   6.450   0.230   3.422 -0.8475 -2.7057 -0.4820
 1345TIP3    H225451   6.590   0.245   3.479 -0.6728  1.7430 -1.8806
 1346TIP3   OH225452   0.280   5.916  12.129 -0.0898  0.1444 -0.3626
 1346TIP3    H125453   0.252   5.829  12.103 -0.5842  0.1331  0.1994
 1346TIP3    H225454   0.344   5.901  12.199 -0.0434  0.2266 -0.3880
 1347TIP3   OH225455   6.434   1.489   3.468 -0.5728 -0.4315  0.0949
 1347TIP3    H125456   6.431   1.393   3.463 -0.6077 -0.3788 -0.8973
 1347TIP3    H225457   6.527   1.510   3.464 -0.6227 -0.3677 -0.7472
 1348TIP3   OH225458   2.712   6.391   2.790 -0.2104 -0.7114 -0.0898
 1348TIP3    H125459   2.743   6.433   2.710 -2.1641  0.6975 -0.1563
 1348TIP3    H225460   2.786   6.339   2.821  1.3432  0.6169 -1.5171
 1349TIP3   OH225461   2.970   0.975  16.390  0.0779 -0.1616 -0.0595
 1349TIP3    H125462   3.037   0.965  16.322  0.9768 -1.7703  1.0363
 1349TIP3    H225463   2.928   1.059  16.370  1.9831  0.5587 -1.1594
 1350TIP3   OH225464   4.223   2.309  16.259 -0.5505  0.0440 -0.6436
 1350TIP3    H125465   4.228   2.403  16.241 -1.3341  0.0019 -1.0675
 1350TIP3    H225466   4.310   2.287  16.294 -0.3008  0.8815 -0.7326
 1351TIP3   OH225467   1.976   0.961   0.636 -0.6560 -1.0012  0.0650
 1351TIP3    H125468   1.969   0.927   0.725 -0.3371  1.0360  0.8995
 1351TIP3    H225469   2.062   0.934   0.607 -0.1314 -0.3411  0.9734
 1352TIP3   OH225470   2.124   0.968  12.330  0.5379 -0.1501  0.3731
 1352TIP3    H125471   2.132   0.885  12.283  1.5762  0.5363 -0.6929
 1352TIP3    H225472   2.103   1.032  12.262  1.8812  0.8323  0.8663
 1353TIP3   OH225473   4.373   1.959  11.440  0.3587 -0.0922 -0.2301
 1353TIP3    H125474   4.382   2.047  11.404  0.1091  0.3184  0.6954
 1353TIP3    H225475   4.308   1.968  11.510 -0.0353 -1.1085 -0.4503
 1354TIP3   OH225476   3.830   0.236  13.264  0.5209 -0.4155 -0.3964
 1354TIP3    H125477   3.802   0.322  13.233  0.5984 -0.3586 -0.3093
 1354TIP3    H225478   3.788   0.225  13.349  1.3891  0.0067  0.0969
 1355TIP3   OH225479   1.383   4.646   5.089 -0.0781 -0.0591  0.2341
 1355TIP3    H125480   1.316   4.601   5.038 -0.8681  2.1901 -0.8135
 1355TIP3    H225481   1.418   4.579   5.148 -1.2431 -1.9743 -1.1863
 1356TIP3   OH225482   3.861   3.799  14.515 -0.7383 -0.6511 -0.0316
 1356TIP3    H125483   3.777   3.838  14.488 -1.2285 -2.0945 -0.6001
 1356TIP3    H225484   3.920   3.817  14.442 -0.8637 -0.6656 -0.1368
 1357TIP3   OH225485   0.603   5.391  15.308 -0.2287  0.0795 -0.5287
 1357TIP3    H125486   0.605   5.308  15.357 -1.4566 -0.0730 -0.7223
 1357TIP3    H225487   0.609   5.458  15.376  1.0779 -0.1676 -0.3918
 1358TIP3   OH225488   6.531   4.849   6.047 -0.3152 -0.0584  0.0121
 1358TIP3    H125489   6.491   4.930   6.015 -0.5756 -0.7006 -1.3079
 1358TIP3    H225490   6.621   4.853   6.015  0.0800  0.3721  1.1570
 1359TIP3   OH225491   2.281   5.841  13.795 -0.9111  0.0735  0.1598
 1359TIP3    H125492   2.229   5.921  13.795 -1.5381 -0.3352 -0.1149
 1359TIP3    H225493   2.294   5.820  13.703  0.6284  0.7336  0.1931
 1360TIP3   OH225494   2.009   0.626  16.645  0.0260  0.2661  0.6828
 1360TIP3    H125495   1.926   0.592  16.613  0.1311 -0.3125  1.0001
 1360TIP3    H225496   1.993   0.718  16.665 -0.5095  0.1776  0.6504
 1361TIP3   OH225497   0.038   4.038   6.476  0.0517  0.4560  0.1300
 1361TIP3    H125498   0.132   4.026   6.466 -0.1083 -0.1192 -0.7489
 1361TIP3    H225499   0.012   3.979   6.547 -0.0458 -1.2807 -1.3132
 1362TIP3   OH225500   2.521   5.361   3.838  0.1787 -0.2366 -0.0707
 1362TIP3    H125501   2.557   5.386   3.753  0.6290  1.5122  0.6113
 1362TIP3    H225502   2.427   5.377   3.831  0.2191 -0.0827 -0.2234
 1363TIP3   OH225503   5.537   3.029   5.240  0.1543  0.2086 -0.4438
 1363TIP3    H125504   5.595   3.088   5.193  1.2836 -0.4392  0.0999
 1363TIP3    H225505   5.589   2.950   5.254 -1.1579 -0.7316 -0.7164
 1364TIP3   OH225506   3.661   4.797   3.394 -0.1772 -0.5178  0.1727
 1364TIP3    H125507   3.612   4.754   3.324 -1.1935  0.0323  0.5451
 1364TIP3    H225508   3.646   4.741   3.471 -1.4079  0.4293  0.6305
 1365TIP3   OH225509   1.621   3.358  11.729  0.5120 -0.5271 -1.0328
 1365TIP3    H125510   1.667   3.436  11.761  1.2044 -1.9187  1.5386
 1365TIP3    H225511   1.528   3.379  11.739  0.6713  0.5149 -1.7413
 1366TIP3   OH225512   5.011   3.314   4.827  0.3046 -0.3742 -0.1870
 1366TIP3    H125513   4.997   3.381   4.760  1.3875  0.3312  0.2802
 1366TIP3    H225514   5.036   3.235   4.778  1.1868  0.1629 -0.6136
 1367TIP3   OH225515   1.896   4.826   0.194 -0.3268 -0.3159 -0.1841
 1367TIP3    H125516   1.902   4.920   0.207 -0.8564 -0.0525 -1.6607
 1367TIP3    H225517   1.809   4.803   0.225 -0.6786 -0.0941 -0.9860
 1368TIP3   OH225518   0.040   2.262   3.099 -0.0861  0.2882  0.1230
 1368TIP3    H125519   0.065   2.172   3.078  2.3563  1.5299 -2.7217
 1368TIP3    H225520  -0.025   2.254   3.168  0.8139 -3.6123  0.6137
 1369TIP3   OH225521   3.363   2.555  11.649  0.7869 -0.0311 -0.2023
 1369TIP3    H125522   3.384   2.552  11.556  1.2378  0.9760 -0.1347
 1369TIP3    H225523   3.268   2.543  11.652  0.6238  1.0206 -0.8698
 1370TIP3   OH225524   1.509   4.720   0.514  0.0394  0.3631 -0.4551
 1370TIP3    H125525   1.486   4.809   0.542 -0.3526  0.2639 -0.4580
 1370TIP3    H225526   1.465   4.663   0.578 -0.9316  0.1323 -1.3093
 1371TIP3   OH225527   4.054   2.519  16.583 -0.0893 -0.3027 -0.2135
 1371TIP3    H125528   3.970   2.523  16.537 -0.0246 -2.2512 -0.5236
 1371TIP3    H225529   4.120   2.522  16.513  0.0386 -1.4279 -0.1518
 1372TIP3   OH225530   5.068   6.455  11.463 -0.1094  0.6434  0.2536
 1372TIP3    H125531   5.108   6.369  11.450  0.8336  1.1078  0.0828
 1372TIP3    H225532   4.979   6.445  11.428  0.0422 -0.2225  0.1036
 1373TIP3   OH225533   6.185   0.518   4.926 -0.4628  0.1662  0.1142
 1373TIP3    H125534   6.197   0.611   4.941  0.8456  0.2840 -1.3802
 1373TIP3    H225535   6.274   0.485   4.913 -1.1124 -0.6849 -2.5166
 1374TIP3   OH225536   3.863   2.333   1.670  0.6901 -0.3534  0.3520
 1374TIP3    H125537   3.841   2.419   1.707 -0.1092  0.8501 -2.7399
 1374TIP3    H225538   3.957   2.324   1.684  0.7519  0.9676  0.8347
 1375TIP3   OH225539   4.357   4.100   3.163  0.6401 -0.0349 -0.7054
 1375TIP3    H125540   4.357   4.182   3.213  2.6962  0.6566 -1.8064
 1375TIP3    H225541   4.317   4.122   3.079  1.9795  0.0491 -1.3264
 1376TIP3   OH225542   1.428   3.910  14.109 -0.4009  0.0579  0.1193
 1376TIP3    H125543   1.472   3.909  14.195 -0.3522  1.8061  0.1327
 1376TIP3    H225544   1.448   3.997  14.073 -2.1164  0.0939 -0.7837
 1377TIP3   OH225545   1.933   6.303   3.076 -0.3123  0.4582 -0.5261
 1377TIP3    H125546   1.959   6.212   3.065 -1.3150  0.3419 -2.0592
 1377TIP3    H225547   2.000   6.340   3.133  0.1295 -1.2170  0.0737
 1378TIP3   OH225548   5.298   3.914  13.255  0.0171  0.1258 -0.5160
 1378TIP3    H125549   5.255   3.970  13.320 -1.6034 -1.5699 -0.0773
 1378TIP3    H225550   5.298   3.966  13.175 -0.9858  0.9588  0.0187
 1379TIP3   OH225551   4.532   3.834  15.152  0.0742  0.5725  0.4250
 1379TIP3    H125552   4.468   3.836  15.224  0.2038  0.2971  0.5502
 1379TIP3    H225553   4.482   3.860  15.075 -0.0277  1.0366  0.6469
 1380TIP3   OH225554   0.423   5.884   1.791  0.3855  0.3627  0.0708
 1380TIP3    H125555   0.344   5.883   1.736  0.7807  1.4167 -0.5325
 1380TIP3    H225556   0.494   5.857   1.732  0.1449 -2.9713  1.2030
 1381TIP3   OH225557   0.828   2.446   4.215 -0.3705  0.3487  0.1995
 1381TIP3    H125558   0.769   2.500   4.162 -1.2979 -0.2592  0.5950
 1381TIP3    H225559   0.774   2.372   4.243  0.6497 -0.3414  0.3787
 1382TIP3   OH225560   1.876   4.333  10.696  0.7496  0.3091  0.1652
 1382TIP3    H125561   1.893   4.395  10.625 -1.2001 -1.3844 -1.8761
 1382TIP3    H225562   1.955   4.279  10.700  1.5263  1.4586  0.3928
 1383TIP3   OH225563   2.782   5.471  14.819 -0.4402  0.2888  0.3593
 1383TIP3    H125564   2.749   5.550  14.861  1.3461  1.4915 -0.4237
 1383TIP3    H225565   2.871   5.494  14.791 -1.2275 -0.7269 -3.2357
 1384TIP3   OH225566   3.571   1.972  15.947 -0.1900  0.6927  0.2496
 1384TIP3    H125567   3.552   1.946  15.857 -1.5426 -0.2394  0.7819
 1384TIP3    H225568   3.643   1.914  15.974 -1.3337 -0.6171  0.5175
 1385TIP3   OH225569   2.605   5.021  12.319  0.0373 -0.2070  0.2215
 1385TIP3    H125570   2.592   4.937  12.364 -1.4498  0.3903  0.9448
 1385TIP3    H225571   2.553   5.083  12.370  0.6766  1.0387 -0.6455
 1386TIP3   OH225572   5.206   2.862  15.650 -0.1013  0.6896  0.1537
 1386TIP3    H125573   5.184   2.926  15.719 -1.5696  0.4751 -0.0992
 1386TIP3    H225574   5.123   2.819  15.630  0.1831  1.1843 -2.2140
 1387TIP3   OH225575   1.375   5.085  12.067  0.6165  0.0728  0.2741
 1387TIP3    H125576   1.467   5.110  12.078  1.0117 -0.6222 -1.3176
 1387TIP3    H225577   1.357   5.100  11.975 -1.3022  1.5423  0.8497
 1388TIP3   OH225578   2.512   3.569  14.952  0.0195  0.0071  0.0096
 1388TIP3    H125579   2.586   3.509  14.958 -1.6109 -1.8471  1.9307
 1388TIP3    H225580   2.490   3.590  15.043 -0.1924  2.6084 -0.5979
 1389TIP3   OH225581   2.122   4.953  15.042 -0.7796 -0.5687  0.5870
 1389TIP3    H125582   2.102   4.970  15.134  0.5372 -0.4485  0.8602
 1389TIP3    H225583   2.194   5.013  15.022 -2.4500  0.9249 -1.1142
 1390TIP3   OH225584   3.387   4.631   1.862  0.5519  1.4252 -0.2842
 1390TIP3    H125585   3.304   4.668   1.892  1.0621  1.5920  0.9199
 1390TIP3    H225586   3.371   4.610   1.769 -0.8903  1.2707 -0.0156
 1391TIP3   OH225587   2.094   0.324  15.442 -0.0092  0.0034 -0.5571
 1391TIP3    H125588   2.095   0.241  15.394  0.4216  1.0492 -2.4314
 1391TIP3    H225589   2.181   0.361  15.427  0.1716  0.3190  1.1578
 1392TIP3   OH225590   2.296   3.347   3.250 -0.2402 -0.0275 -0.5161
 1392TIP3    H125591   2.251   3.262   3.254  1.2438 -0.7817  0.2027
 1392TIP3    H225592   2.256   3.391   3.174 -1.9025 -0.8466 -0.1347
 1393TIP3   OH225593   5.755   6.346   5.850  0.5131  0.1110 -0.2927
 1393TIP3    H125594   5.813   6.282   5.892  0.4459  0.4802  0.3756
 1393TIP3    H225595   5.667   6.310   5.863  0.4474  0.5229  0.4092
 1394TIP3   OH225596   0.672   2.440   4.516  0.5232 -0.0107  0.3641
 1394TIP3    H125597   0.678   2.351   4.483 -0.0786  0.6300 -1.5220
 1394TIP3    H225598   0.600   2.438   4.579 -0.0346 -0.6699 -0.2886
 1395TIP3   OH225599   1.713   3.018   1.196  0.4922 -0.7657 -0.2514
 1395TIP3    H125600   1.764   3.099   1.193  0.6612 -0.8325  0.6063
 1395TIP3    H225601   1.695   2.998   1.105  0.3329  0.3176 -0.4685
 1396TIP3   OH225602   1.034   3.285  16.403 -0.0845  0.5015  0.6517
 1396TIP3    H125603   0.958   3.254  16.354 -0.0239  0.0325  0.8552
 1396TIP3    H225604   1.080   3.342  16.341 -0.3634  0.4391  0.3824
 1397TIP3   OH225605   5.859   0.112  14.803  0.2623  0.5984 -0.3683
 1397TIP3    H125606   5.917   0.071  14.866 -0.0372  0.7735  0.0217
 1397TIP3    H225607   5.877   0.067  14.720 -0.1043 -0.3501  0.0657
 1398TIP3   OH225608   3.335   4.369  12.000 -0.5536 -0.2329  0.1732
 1398TIP3    H125609   3.284   4.406  12.072  1.0612  0.7542  0.8430
 1398TIP3    H225610   3.304   4.417  11.923 -1.0949 -0.1079  0.4641
 1399TIP3   OH225611   3.726   3.285   6.229 -0.5847 -0.1134  0.3790
 1399TIP3    H125612   3.694   3.279   6.319 -1.3991 -2.3952 -0.0254
 1399TIP3    H225613   3.821   3.292   6.237 -0.7399  0.9370  1.4286
 1400TIP3   OH225614   5.242   2.176  14.319 -0.3150  0.2944 -0.0423
 1400TIP3    H125615   5.328   2.211  14.339  0.1604 -0.4228 -0.7784
 1400TIP3    H225616   5.209   2.143  14.402  0.8155 -0.9049 -0.0463
 1401TIP3   OH225617   0.900   0.572  11.607 -0.4338 -0.5679  0.1290
 1401TIP3    H125618   0.860   0.623  11.677 -1.4569 -4.4514  2.5028
 1401TIP3    H225619   0.827   0.525  11.566  0.7205 -1.8701 -0.4909
 1402TIP3   OH225620   1.993   1.789   4.668 -0.4220  0.5717 -0.0087
 1402TIP3    H125621   1.960   1.770   4.756 -0.8292  1.4435  0.0247
 1402TIP3    H225622   1.922   1.836   4.625  0.0523  0.7750 -0.5706
 1403TIP3   OH225623   2.521   0.118   1.208  0.1363  0.4842  0.0079
 1403TIP3    H125624   2.495   0.042   1.156 -1.9596  0.7857  0.5288
 1403TIP3    H225625   2.577   0.083   1.277 -0.8791 -0.6152  0.2911
 1404TIP3   OH225626   6.242   1.726  15.300 -0.0192 -0.0141 -0.0466
 1404TIP3    H125627   6.329   1.686  15.290 -0.3514 -0.3199 -1.8654
 1404TIP3    H225628   6.189   1.657  15.341  0.2188 -0.3733 -0.3334
 1405TIP3   OH225629   2.809   1.660  16.181  0.0588  0.0705 -0.2392
 1405TIP3    H125630   2.772   1.616  16.105  0.3452  1.1578 -1.0304
 1405TIP3    H225631   2.794   1.600  16.254 -0.7672 -0.7143 -1.0423
 1406TIP3   OH225632   0.050   3.990   3.230 -0.2705 -0.4406  0.0931
 1406TIP3    H125633  -0.037   3.988   3.270 -0.5693  0.5121 -0.4992
 1406TIP3    H225634   0.107   4.023   3.299 -0.8357  1.4810 -0.3308
 1407TIP3   OH225635   0.561   4.007   2.767 -0.1717 -0.1249  0.4834
 1407TIP3    H125636   0.538   3.933   2.822 -2.0453 -0.7078 -1.0230
 1407TIP3    H225637   0.610   3.969   2.694 -0.8648  0.1460 -0.1295
 1408TIP3   OH225638   2.184   3.849  11.463 -0.3376 -0.1711  0.0707
 1408TIP3    H125639   2.187   3.760  11.428  0.0375 -0.4370  0.7661
 1408TIP3    H225640   2.134   3.898  11.398 -0.0431 -0.7539 -0.6107
 1409TIP3   OH225641   4.173   5.324  10.405  0.1076 -0.7591 -0.1938
 1409TIP3    H125642   4.113   5.281  10.344  0.6496  0.4443 -1.6301
 1409TIP3    H225643   4.175   5.415  10.376  2.7894 -0.8190 -0.3260
 1410TIP3   OH225644   0.476   6.673  16.352  0.0172 -0.0713 -0.1756
 1410TIP3    H125645   0.559   6.718  16.336 -0.1308  0.1488 -0.3384
 1410TIP3    H225646   0.418   6.741  16.387  0.2824 -0.5144  1.1319
 1411TIP3   OH225647   4.693   4.271   3.337  0.2233 -0.1697  0.5998
 1411TIP3    H125648   4.614   4.263   3.283  0.4156 -2.3121  0.5856
 1411TIP3    H225649   4.676   4.346   3.393 -1.0172  0.5688 -0.7416
 1412TIP3   OH225650   5.703   6.251   4.314 -0.1472  0.7267  0.4712
 1412TIP3    H125651   5.663   6.325   4.269 -0.8549  0.3676  0.5131
 1412TIP3    H225652   5.751   6.205   4.245  0.1829  1.1356  0.4180
 1413TIP3   OH225653   5.967   3.430   5.500 -0.8214 -0.1597  0.2064
 1413TIP3    H125654   5.957   3.386   5.584 -1.0204 -1.7415 -0.6332
 1413TIP3    H225655   6.061   3.430   5.483 -0.7735  0.2414  0.4690
 1414TIP3   OH225656   5.235   4.058  16.035 -0.1732  0.2454  0.8526
 1414TIP3    H125657   5.329   4.073  16.023 -0.5683  3.0044  0.8305
 1414TIP3    H225658   5.226   3.963  16.041  2.4858 -0.1049 -0.2003
 1415TIP3   OH225659   1.288   0.042   4.099 -0.4616  0.3298  0.4972
 1415TIP3    H125660   1.287   0.071   4.190  1.3428 -2.1475  1.3223
 1415TIP3    H225661   1.358  -0.022   4.094 -0.7774  0.1446 -2.5738
 1416TIP3   OH225662   2.534   1.886  12.397 -0.1718 -0.4342 -0.3339
 1416TIP3    H125663   2.612   1.837  12.369 -0.2827 -0.2376 -1.0023
 1416TIP3    H225664   2.496   1.919  12.315 -1.4375 -1.2378 -0.0808
 1417TIP3   OH225665   0.510   0.225  13.638 -0.4699 -0.0359  0.1946
 1417TIP3    H125666   0.498   0.130  13.645  1.4463 -0.1450  3.0344
 1417TIP3    H225667   0.565   0.248  13.713 -1.1967  3.4010 -0.2216
 1418TIP3   OH225668   1.528   2.235  16.801 -0.6372 -0.0184  0.3340
 1418TIP3    H125669   1.519   2.186  16.883 -0.4754 -1.3244 -0.4230
 1418TIP3    H225670   1.443   2.227  16.758 -0.0297 -1.2499 -0.6704
 1419TIP3   OH225671   6.402   3.204   1.504  0.2309  0.6802  1.3061
 1419TIP3    H125672   6.337   3.144   1.541  0.0866  0.2319  0.3526
 1419TIP3    H225673   6.457   3.148   1.448 -0.2818  1.5343 -0.0766
 1420TIP3   OH225674   6.181   5.972   3.870 -0.2811  0.2379 -0.0928
 1420TIP3    H125675   6.133   6.015   3.799 -0.9426 -0.6071 -0.1714
 1420TIP3    H225676   6.273   5.978   3.844 -0.0627  4.3220  1.3995
 1421TIP3   OH225677   2.088   4.681   3.600 -0.0474  0.1300  0.0654
 1421TIP3    H125678   2.083   4.771   3.566 -0.0705  0.7013  1.5625
 1421TIP3    H225679   2.108   4.692   3.693  3.1988 -1.4996 -0.3896
 1422TIP3   OH225680   6.457   0.227  15.522 -0.6212  0.3194  0.0708
 1422TIP3    H125681   6.429   0.153  15.469 -0.4584 -0.1277  0.6082
 1422TIP3    H225682   6.541   0.200  15.560 -1.3876  0.0933  1.6433
 1423TIP3   OH225683   6.725   4.975   0.058 -0.1849 -0.5607  0.4234
 1423TIP3    H125684   6.676   5.027   0.122 -1.9004  0.6355 -1.7592
 1423TIP3    H225685   6.783   5.038   0.015 -0.3380 -0.9635 -0.3881
 1424TIP3   OH225686   6.595   5.193   3.866 -0.1552 -0.2697 -0.1426
 1424TIP3    H125687   6.662   5.201   3.934  0.0990  0.1060 -0.4378
 1424TIP3    H225688   6.581   5.282   3.834 -0.3169 -0.4353 -0.5460
 1425TIP3   OH225689   2.972   6.258  11.269 -0.2781 -0.6884 -0.1668
 1425TIP3    H125690   3.066   6.269  11.257 -0.0978 -1.3810  0.6071
 1425TIP3    H225691   2.937   6.246  11.181  0.2403  0.4699 -0.5336
 1426TIP3   OH225692   1.549   6.574   3.226  0.5364 -0.3458  0.8966
 1426TIP3    H125693   1.559   6.628   3.148 -2.3861 -1.7223 -0.5195
 1426TIP3    H225694   1.629   6.522   3.229  1.4195  0.9075 -0.2236
 1427TIP3   OH225695   3.905   0.160  12.582  0.1892  0.1286  0.6215
 1427TIP3    H125696   3.971   0.121  12.640  0.6653  0.4475  0.3025
 1427TIP3    H225697   3.953   0.227  12.534 -0.1952 -0.1792 -0.1915
 1428TIP3   OH225698   2.042   6.635   3.084 -0.4634  0.2454 -0.1641
 1428TIP3    H125699   2.006   6.670   3.166  0.0220 -1.0999  0.6550
 1428TIP3    H225700   2.108   6.571   3.113 -0.5743 -0.5373 -1.6108
 1429TIP3   OH225701   1.850   5.891  10.821 -0.0838 -0.3228  0.2080
 1429TIP3    H125702   1.795   5.816  10.847 -0.7301  0.3558  0.8153
 1429TIP3    H225703   1.841   5.895  10.726 -0.0712 -0.9978  0.1717
 1430TIP3   OH225704   2.070   1.760  13.947 -0.4297  0.4197  0.4482
 1430TIP3    H125705   2.150   1.810  13.967  0.3356 -0.6236  0.0683
 1430TIP3    H225706   2.101   1.670  13.934 -1.5957  0.1278 -0.3569
 1431TIP3   OH225707   2.533   0.063   2.741  0.6251  0.7229  0.5413
 1431TIP3    H125708   2.572   0.046   2.827 -0.0535  0.3993  0.7859
 1431TIP3    H225709   2.607   0.061   2.681  0.9567 -0.1732  0.9692
 1432TIP3   OH225710   2.031   3.132  10.691 -0.5883 -0.0976 -0.3499
 1432TIP3    H125711   2.081   3.189  10.632 -0.0488  0.6756  0.8453
 1432TIP3    H225712   2.095   3.105  10.757 -1.3387 -0.4815  0.2120
 1433TIP3   OH225713   2.029   0.063  15.680 -0.5114  0.8052 -0.7899
 1433TIP3    H125714   2.087  -0.001  15.639 -0.9086  0.1681 -0.3624
 1433TIP3    H225715   1.944   0.049  15.637 -0.8333  0.3945 -0.0221
 1434TIP3   OH225716   3.691   0.744  11.421  0.1141  0.1327  0.0494
 1434TIP3    H125717   3.742   0.782  11.493 -0.0282 -0.1982  0.3251
 1434TIP3    H225718   3.739   0.769  11.342  0.7165 -0.1895  0.3087
 1435TIP3   OH225719   4.349   0.379   0.886 -0.1624  0.2363  0.3588
 1435TIP3    H125720   4.311   0.292   0.893  1.5168 -0.5114  0.1366
 1435TIP3    H225721   4.285   0.428   0.833  0.5299 -1.8055 -2.4767
 1436TIP3   OH225722   6.696   4.741  16.215 -0.0874  0.3040  0.0889
 1436TIP3    H125723   6.742   4.799  16.276  0.9123 -0.6322  0.2208
 1436TIP3    H225724   6.738   4.757  16.130  0.7310 -0.8114  0.2770
 1437TIP3   OH225725   6.142   5.448   3.349 -0.1253 -0.4104 -0.3788
 1437TIP3    H125726   6.206   5.516   3.328  1.4666 -0.8299  2.7935
 1437TIP3    H225727   6.168   5.373   3.296 -0.2362  0.5499 -1.8346
 1438TIP3   OH225728   3.062   0.990   5.212 -0.0992  0.1743  0.6175
 1438TIP3    H125729   3.107   1.068   5.179  0.7785 -0.0183  1.3296
 1438TIP3    H225730   2.996   1.023   5.272 -0.6116  0.4394 -0.0916
 1439TIP3   OH225731   1.989   6.259  14.806  0.3724 -0.3487  0.4010
 1439TIP3    H125732   2.010   6.352  14.803 -1.5615  0.1232  1.0250
 1439TIP3    H225733   2.073   6.216  14.819  1.6821  1.1060 -2.6679
 1440TIP3   OH225734   6.059   5.214  11.330 -0.1891 -0.1957  0.1456
 1440TIP3    H125735   6.074   5.258  11.247 -0.1777 -0.0173  0.2403
 1440TIP3    H225736   6.147   5.204  11.368 -0.1902 -0.3197  0.1121
 1441TIP3   OH225737   5.434   4.103   1.628  0.1950  0.1511 -0.2506
 1441TIP3    H125738   5.391   4.018   1.617 -0.8474  0.5435  0.7134
 1441TIP3    H225739   5.445   4.113   1.722  1.6651  0.4401 -0.4342
 1442TIP3   OH225740   0.679   2.605  13.451 -0.1752 -0.2402 -0.4670
 1442TIP3    H125741   0.764   2.588  13.411  0.3090  1.6215 -0.3058
 1442TIP3    H225742   0.617   2.602  13.379  0.3320  0.5229 -0.9390
 1443TIP3   OH225743   4.406   1.823  16.481 -0.4661 -0.3482 -0.2988
 1443TIP3    H125744   4.422   1.906  16.528  0.7417 -2.2391  2.8241
 1443TIP3    H225745   4.311   1.818  16.472 -0.7416  0.0944  2.0326
 1444TIP3   OH225746   1.359   4.334  17.140 -0.4611  0.4744 -0.3555
 1444TIP3    H125747   1.408   4.262  17.100 -0.1225  1.3965 -1.6131
 1444TIP3    H225748   1.359   4.313  17.233 -0.7789 -1.4121 -0.7481
 1445TIP3   OH225749   6.192   6.322   0.958  0.0818 -0.1480 -0.4083
 1445TIP3    H125750   6.266   6.341   0.901  0.3140  0.8931  0.2111
 1445TIP3    H225751   6.191   6.227   0.966  1.0435 -0.1976 -0.8295
 1446TIP3   OH225752   1.634   5.494  11.843  0.1606 -0.3164 -0.6193
 1446TIP3    H125753   1.727   5.515  11.832  0.7167 -2.3298  0.0342
 1446TIP3    H225754   1.589   5.576  11.821  2.1989  1.6339  1.9865
 1447TIP3   OH225755   2.499   6.113   1.025 -0.2379 -0.6751 -0.4603
 1447TIP3    H125756   2.573   6.102   1.084 -0.7577 -1.5885  0.0396
 1447TIP3    H225757   2.537   6.112   0.937  0.8190  3.0059 -0.1073
 1448TIP3   OH225758   1.873   5.227   0.725 -0.2599  0.1042 -0.1239
 1448TIP3    H125759   1.792   5.245   0.772 -0.9723  0.7059 -1.5558
 1448TIP3    H225760   1.845   5.185   0.644  1.0786 -2.8530  0.8752
 1449TIP3   OH225761   3.081   6.517   2.847 -0.3245  0.6074  0.0877
 1449TIP3    H125762   3.160   6.467   2.827  0.5615  1.0019  2.4967
 1449TIP3    H225763   3.105   6.608   2.829  0.1593  0.8538  1.8761
 1450TIP3   OH225764   3.729   0.388   3.782 -0.1711  0.1869  0.4924
 1450TIP3    H125765   3.743   0.406   3.875  0.5927  2.7896 -0.1111
 1450TIP3    H225766   3.810   0.415   3.739 -1.0265  0.2965 -1.1151
 1451TIP3   OH225767   5.839   6.092  11.800 -0.3215 -0.1560 -0.4951
 1451TIP3    H125768   5.839   6.172  11.747 -0.7370 -0.8361 -1.5501
 1451TIP3    H225769   5.782   6.112  11.874 -1.7606  0.0010 -1.6078
 1452TIP3   OH225770   5.242   5.913   4.013 -0.1051 -0.0828 -0.0430
 1452TIP3    H125771   5.207   5.874   4.093 -2.7916  0.7441 -0.7690
 1452TIP3    H225772   5.212   5.856   3.942 -0.7058  1.1013 -0.7633
 1453TIP3   OH225773   3.620   0.918  16.965  0.2192 -0.4715  0.2512
 1453TIP3    H125774   3.707   0.945  16.994  0.5184  0.7846 -1.7001
 1453TIP3    H225775   3.611   0.957  16.878 -2.2039 -0.7939  0.3327
 1454TIP3   OH225776   1.095   6.579  12.487  0.4840  0.0562 -0.5688
 1454TIP3    H125777   1.181   6.559  12.450  0.5500 -0.9735  0.0924
 1454TIP3    H225778   1.115   6.621  12.571  0.3695 -1.1073  0.0624
 1455TIP3   OH225779   1.337   4.067  15.828  0.4942 -0.1327 -0.8788
 1455TIP3    H125780   1.377   4.154  15.822  0.0789  0.0831 -0.5477
 1455TIP3    H225781   1.271   4.065  15.758 -0.8077  0.5152  0.3187
 1456TIP3   OH225782   3.886   4.882  14.718  0.1847 -0.0372 -0.0382
 1456TIP3    H125783   3.823   4.907  14.651  0.0737 -1.0899 -0.3384
 1456TIP3    H225784   3.955   4.948  14.713 -0.0071  0.0979 -0.9369
 1457TIP3   OH225785   5.100   1.164  16.717  0.5183 -0.3593 -0.3149
 1457TIP3    H125786   5.006   1.147  16.722  0.5095 -0.1588  0.2501
 1457TIP3    H225787   5.133   1.097  16.656 -0.0528 -0.1353 -0.8760
 1458TIP3   OH225788   1.030   3.833   5.939  0.3059 -0.1239 -0.0444
 1458TIP3    H125789   1.066   3.904   5.887  0.1816  0.3579  0.5206
 1458TIP3    H225790   0.998   3.876   6.018  1.4922 -0.9789  0.9228
 1459TIP3   OH225791   3.573   4.501  16.600 -0.1042  0.4533  0.0346
 1459TIP3    H125792   3.596   4.577  16.653  0.4968  0.7407 -0.6309
 1459TIP3    H225793   3.599   4.426  16.653  1.0442  0.7544 -0.1021
 1460TIP3   OH225794   1.253   2.865  15.639  0.5576  0.0290  0.7877
 1460TIP3    H125795   1.295   2.949  15.658 -0.5018  0.7251  0.1218
 1460TIP3    H225796   1.186   2.854  15.707  2.4695 -1.5836  2.4760
 1461TIP3   OH225797   0.752   5.347  13.837 -0.0306  1.3314  0.2721
 1461TIP3    H125798   0.751   5.359  13.932 -0.3980  0.1086  0.4348
 1461TIP3    H225799   0.826   5.288  13.821 -1.0194  0.1527 -0.0140
 1462TIP3   OH225800   6.018   0.475  11.136  0.2327  0.9063 -0.0943
 1462TIP3    H125801   6.008   0.382  11.115  0.4422  0.4525  1.7010
 1462TIP3    H225802   5.950   0.519  11.085  0.0559 -0.2514 -0.8668
 1463TIP3   OH225803   2.937   3.931  17.052  0.2944 -0.5509 -0.0919
 1463TIP3    H125804   3.012   3.988  17.073  0.5463 -0.7013 -0.5556
 1463TIP3    H225805   2.860   3.986  17.069  0.5421  0.0705 -0.8788
 1464TIP3   OH225806   3.406   1.026   3.941  0.1975 -0.1695 -0.1490
 1464TIP3    H125807   3.321   0.995   3.969 -0.3725  1.0554 -0.4911
 1464TIP3    H225808   3.456   1.037   4.022  0.0888 -1.0285  0.0375
 1465TIP3   OH225809   3.954   2.240  14.616 -0.3092 -0.5441  0.4731
 1465TIP3    H125810   3.896   2.312  14.640 -0.8188 -0.9950  0.6206
 1465TIP3    H225811   3.933   2.170  14.679 -0.0930 -0.9517  0.0970
 1466TIP3   OH225812   2.766   0.776   0.123 -0.2382 -0.6042  0.0223
 1466TIP3    H125813   2.761   0.703   0.185 -0.5226  1.5281  2.6084
 1466TIP3    H225814   2.697   0.837   0.151  0.5108  1.0460 -1.5596
 1467TIP3   OH225815   3.349   2.062   2.382  0.1825 -0.0151 -0.3711
 1467TIP3    H125816   3.423   2.013   2.345  1.6212  1.2846  0.7412
 1467TIP3    H225817   3.377   2.084   2.471 -2.0908 -0.6560  0.5347
 1468TIP3   OH225818   4.912   4.578  10.414  0.6295 -0.1557 -0.5033
 1468TIP3    H125819   4.871   4.630  10.484 -0.2161  0.5863 -1.5243
 1468TIP3    H225820   4.890   4.488  10.435 -3.5139  0.3401 -2.1760
 1469TIP3   OH225821   0.965   5.065   1.815  0.4844 -0.1524  0.2414
 1469TIP3    H125822   0.915   4.984   1.814 -1.2673  0.9229 -1.5852
 1469TIP3    H225823   1.037   5.047   1.876 -0.9344 -2.4093  1.3464
 1470TIP3   OH225824   4.772   3.982   3.168 -0.1619 -0.0096  0.3892
 1470TIP3    H125825   4.860   3.961   3.138  0.5817  0.5482  2.1632
 1470TIP3    H225826   4.733   4.032   3.096  1.1303  0.1927 -0.1694
 1471TIP3   OH225827   1.740   6.204   2.846 -0.3062  0.2426 -0.3917
 1471TIP3    H125828   1.747   6.247   2.761 -1.8394  1.2134 -0.0517
 1471TIP3    H225829   1.741   6.275   2.909 -0.2512 -0.4030  0.3401
 1472TIP3   OH225830   5.440   1.892  14.882 -0.3248  0.6588 -1.0558
 1472TIP3    H125831   5.531   1.873  14.863  0.0777  2.0560 -0.5762
 1472TIP3    H225832   5.393   1.814  14.854  1.1757 -0.6619  0.0183
 1473TIP3   OH225833   0.227   5.336  16.263  0.1150 -0.6292  0.0407
 1473TIP3    H125834   0.236   5.271  16.193  1.6045  0.5190 -0.8761
 1473TIP3    H225835   0.291   5.308  16.329 -1.7118 -2.0549  1.2570
 1474TIP3   OH225836   0.293   2.789  12.323 -0.4515 -0.5893  0.9191
 1474TIP3    H125837   0.315   2.832  12.406  1.9862 -0.3878  0.2063
 1474TIP3    H225838   0.285   2.861  12.261 -0.1031 -0.8843  0.5292
 1475TIP3   OH225839   3.301   0.839  13.188 -0.0356 -0.0811 -0.0591
 1475TIP3    H125840   3.361   0.879  13.251 -0.3557 -1.6517  1.2914
 1475TIP3    H225841   3.339   0.753  13.170 -0.2401  0.1454 -1.6070
 1476TIP3   OH225842   3.042   2.119  13.800  0.0646  0.7716  0.7736
 1476TIP3    H125843   3.131   2.150  13.779  0.9729 -0.1754  2.9719
 1476TIP3    H225844   3.014   2.071  13.723  2.4580 -0.9597  0.9202
 1477TIP3   OH225845   2.237   3.308  14.893  0.1762  0.3823  0.5821
 1477TIP3    H125846   2.318   3.307  14.843  0.2119  0.6807  0.6346
 1477TIP3    H225847   2.263   3.284  14.982  0.4011  1.7122  0.8849
 1478TIP3   OH225848   1.346   0.237   6.236 -0.1416  0.3184 -0.5097
 1478TIP3    H125849   1.392   0.232   6.152  1.4747  0.7332  0.3245
 1478TIP3    H225850   1.406   0.285   6.293 -0.7135 -0.9500  1.2062
 1479TIP3   OH225851   5.178   6.212  11.425  0.1938  0.2239 -0.1252
 1479TIP3    H125852   5.195   6.180  11.337  0.4722  0.8062 -0.2844
 1479TIP3    H225853   5.220   6.149  11.483 -2.7973 -1.9962 -0.2716
 1480TIP3   OH225854   4.982   1.580   5.423 -0.5939  0.3096 -0.2922
 1480TIP3    H125855   5.042   1.510   5.449  0.0729  1.2766  0.8021
 1480TIP3    H225856   4.999   1.592   5.329 -2.8900 -3.0691 -1.2420
 1481TIP3   OH225857   2.145   6.096  16.863  0.1025  0.1559  0.3388
 1481TIP3    H125858   2.072   6.112  16.924  0.6068  0.4933  0.8653
 1481TIP3    H225859   2.127   6.010  16.825 -1.5943  1.0800 -0.9969
 1482TIP3   OH225860   0.495   5.844  13.968 -0.2180 -0.0774 -0.3437
 1482TIP3    H125861   0.520   5.770  13.913 -1.1983  0.1240 -1.0623
 1482TIP3    H225862   0.466   5.803  14.050 -0.7884 -0.4852 -0.7492
 1483TIP3   OH225863   0.688   4.012   6.255  0.0558  0.3458 -0.1030
 1483TIP3    H125864   0.781   4.029   6.267  0.0736  0.8834 -0.8718
 1483TIP3    H225865   0.645   4.088   6.294 -0.1081 -0.3606  1.1082
 1484TIP3   OH225866   5.865   0.633  13.388  0.1438  0.2082 -0.8988
 1484TIP3    H125867   5.838   0.724  13.375 -0.8467 -0.2346 -2.0587
 1484TIP3    H225868   5.960   0.634  13.379  0.2696  1.3307  0.4037
 1485TIP3   OH225869   2.376   5.461   5.592 -0.8090 -0.2573  0.0259
 1485TIP3    H125870   2.372   5.409   5.511 -1.9719 -0.2914  0.0959
 1485TIP3    H225871   2.284   5.480   5.613 -0.4002  2.2907 -0.2960
 1486TIP3   OH225872   3.600   3.064   3.094 -0.0972  0.1545  0.0270
 1486TIP3    H125873   3.569   3.040   3.007 -0.4567 -2.2305  0.7787
 1486TIP3    H225874   3.520   3.078   3.145  0.1083  0.6268  0.2234
 1487TIP3   OH225875   0.748   2.328  10.954  0.2070  0.5157 -0.4512
 1487TIP3    H125876   0.714   2.414  10.976 -0.3089  0.0299  0.7167
 1487TIP3    H225877   0.685   2.291  10.893 -0.7623  0.0974  0.7768
 1488TIP3   OH225878   5.538   0.195  15.741 -0.3673  0.2534 -0.1224
 1488TIP3    H125879   5.558   0.104  15.721 -2.4149 -0.3181  0.3784
 1488TIP3    H225880   5.463   0.192  15.800 -1.2200  2.2914 -1.0338
 1489TIP3   OH225881   0.158   3.982   0.497  0.4256  0.3571  0.0542
 1489TIP3    H125882   0.118   4.063   0.466  2.2674  1.3529  0.2455
 1489TIP3    H225883   0.207   3.949   0.422 -1.1066 -1.1251 -0.3304
 1490TIP3   OH225884   6.533   2.332   1.839 -0.1746 -0.4193 -0.4088
 1490TIP3    H125885   6.480   2.308   1.763  0.1154  0.6681 -0.9724
 1490TIP3    H225886   6.475   2.385   1.893  0.2320  0.5041 -0.8701
 1491TIP3   OH225887   6.373   4.144   2.971 -0.1410  0.0600  0.1073
 1491TIP3    H125888   6.376   4.066   3.026 -0.2040 -0.0010  0.0241
 1491TIP3    H225889   6.395   4.113   2.883 -0.4602  0.0813  0.0170
 1492TIP3   OH225890   5.401   3.525  17.193  0.4399 -0.3417  0.4365
 1492TIP3    H125891   5.325   3.504  17.139  0.6837 -0.1352  0.0065
 1492TIP3    H225892   5.365   3.552  17.277  0.0138  0.2855  0.0571
 1493TIP3   OH225893   3.029   1.744   5.937 -0.2970  0.7892  0.1047
 1493TIP3    H125894   2.942   1.784   5.934 -0.7917 -0.3025 -0.3050
 1493TIP3    H225895   3.089   1.819   5.935 -1.2147  1.5413 -0.0554
 1494TIP3   OH225896   2.246   5.592  12.518 -0.5993  0.1199  0.0684
 1494TIP3    H125897   2.319   5.643  12.554  0.7852 -1.4908 -0.3714
 1494TIP3    H225898   2.228   5.633  12.434 -2.3082  2.4635  1.5325
 1495TIP3   OH225899   0.414   1.161   3.657  0.1544  0.0352 -0.1437
 1495TIP3    H125900   0.382   1.079   3.693  0.1524  1.0815  2.3192
 1495TIP3    H225901   0.504   1.142   3.630  0.7427 -0.3728  2.0020
 1496TIP3   OH225902   1.516   0.982  14.298  0.7569  0.3013  0.4480
 1496TIP3    H125903   1.544   0.995  14.388  1.4103  0.3211  0.2459
 1496TIP3    H225904   1.442   0.921  14.304  0.7271  0.3919  1.0020
 1497TIP3   OH225905   4.546   5.429   1.195  0.6723 -0.6083 -0.1116
 1497TIP3    H125906   4.636   5.460   1.186  0.7670  0.2386  3.2755
 1497TIP3    H225907   4.514   5.470   1.275 -1.5352 -3.7097  0.7015
 1498TIP3   OH225908   0.509   0.450  15.176 -0.3834  0.3040  0.4465
 1498TIP3    H125909   0.524   0.387  15.247  1.0771  1.7019  1.4186
 1498TIP3    H225910   0.504   0.535  15.220 -2.6951  0.8656 -0.8064
 1499TIP3   OH225911   0.305   5.716   2.022 -0.3561 -0.6716 -0.5804
 1499TIP3    H125912   0.224   5.749   2.061  0.1710  0.9114 -0.7955
 1499TIP3    H225913   0.325   5.778   1.952  0.5023 -1.6251 -1.1954
 1500TIP3   OH225914   2.990   5.220  16.673  0.4349  0.4361 -0.4669
 1500TIP3    H125915   3.040   5.286  16.625  0.8133  0.0757 -0.5718
 1500TIP3    H225916   2.925   5.189  16.610  0.8546  0.0500 -0.7177
 1501TIP3   OH225917   3.059   0.672   2.990 -0.0993 -0.4520  0.2392
 1501TIP3    H125918   2.981   0.649   3.041 -0.8117  1.3318  0.0156
 1501TIP3    H225919   3.130   0.674   3.053 -0.4183 -1.0997  0.6278
 1502TIP3   OH225920   2.944   6.102   0.536 -0.0674 -0.0221  0.1325
 1502TIP3    H125921   3.018   6.093   0.595 -0.3087 -1.1326  0.2733
 1502TIP3    H225922   2.868   6.072   0.587 -0.5090  0.4563 -0.2326
 1503TIP3   OH225923   6.166   0.244   2.442 -0.0783 -0.3259  0.0613
 1503TIP3    H125924   6.138   0.283   2.360  0.3647  2.0689  0.9990
 1503TIP3    H225925   6.256   0.275   2.454 -0.8765  1.1839  2.4974
 1504TIP3   OH225926   1.318   3.606  12.588  0.5850  0.9916 -0.4824
 1504TIP3    H125927   1.228   3.621  12.560  0.2058  0.3874  0.3987
 1504TIP3    H225928   1.371   3.655  12.525 -0.3602  1.4758 -0.9114
 1505TIP3   OH225929   0.931   1.845  12.845  0.9774  0.4948 -0.2484
 1505TIP3    H125930   0.966   1.930  12.817  2.3255 -0.0045 -0.1235
 1505TIP3    H225931   0.979   1.825  12.925 -0.1290  0.1228  0.3336
 1506TIP3   OH225932   6.189   3.812   3.895  0.2411  0.2561 -0.2975
 1506TIP3    H125933   6.121   3.879   3.901 -0.1934 -0.0573 -1.6220
 1506TIP3    H225934   6.151   3.735   3.937 -0.4897 -0.1213 -1.6324
 1507TIP3   OH225935   2.900   5.591   3.511  0.5387 -0.4128 -0.1481
 1507TIP3    H125936   2.859   5.517   3.466 -0.1142  0.2895 -0.7165
 1507TIP3    H225937   2.992   5.564   3.522  0.1219 -1.6498  0.4061
 1508TIP3   OH225938   1.003   2.780  12.209  0.2029  0.0836  0.5186
 1508TIP3    H125939   0.910   2.790  12.188  0.2604  0.0620  0.2560
 1508TIP3    H225940   1.046   2.766  12.125  0.3211 -0.8738  0.7362
 1509TIP3   OH225941   1.668   4.035   4.358  0.1386  0.6397  0.1401
 1509TIP3    H125942   1.594   4.094   4.370  1.1929  2.2594 -1.1176
 1509TIP3    H225943   1.645   3.984   4.280 -0.0704  0.5005  0.2931
 1510TIP3   OH225944   1.673   1.421   5.407 -0.0121 -0.0692 -0.0761
 1510TIP3    H125945   1.703   1.348   5.352  2.8441  1.1095 -0.1711
 1510TIP3    H225946   1.704   1.399   5.495  1.2684  1.2194 -0.1883
 1511TIP3   OH225947   4.510   5.540   4.240 -0.0274  0.4053  0.4746
 1511TIP3    H125948   4.590   5.527   4.292  0.6398 -0.8792 -0.8268
 1511TIP3    H225949   4.535   5.606   4.175  0.7038 -1.5785 -1.3348
 1512TIP3   OH225950   6.656   6.484   4.130 -0.0413  0.2696  0.0146
 1512TIP3    H125951   6.660   6.406   4.186 -1.0341  0.1353 -0.0841
 1512TIP3    H225952   6.563   6.492   4.108  0.2091  0.8777 -0.8326
 1513TIP3   OH225953   5.046   0.968   5.787  0.1572  0.6196  0.6217
 1513TIP3    H125954   5.000   0.963   5.871  0.8904 -3.0821  0.8957
 1513TIP3    H225955   5.019   0.889   5.740 -0.0663  2.5141 -2.5852
 1514TIP3   OH225956   5.051   3.375   2.790 -0.5567  0.1380 -0.2039
 1514TIP3    H125957   5.131   3.323   2.779 -0.2505  0.7986 -1.2593
 1514TIP3    H225958   5.002   3.331   2.859  1.0207  0.0726  0.8941
 1515TIP3   OH225959   5.778   0.864  12.342 -0.0587  0.1724  0.4565
 1515TIP3    H125960   5.786   0.853  12.247 -1.3256  2.0755  0.0979
 1515TIP3    H225961   5.868   0.869  12.374  0.3580  0.7423 -0.7912
 1516TIP3   OH225962   0.133   6.455  13.273 -0.3147 -0.0960 -0.1004
 1516TIP3    H125963   0.076   6.379  13.283  0.7009 -0.7155  1.2481
 1516TIP3    H225964   0.080   6.520  13.227 -1.6421 -1.1399 -0.0623
 1517TIP3   OH225965   3.713   2.873   5.498  0.0925 -0.2217 -0.2835
 1517TIP3    H125966   3.635   2.870   5.442 -0.9277  1.1423  1.0336
 1517TIP3    H225967   3.689   2.932   5.569  2.4537  0.4632 -0.0256
 1518TIP3   OH225968   6.373   6.634  13.326  0.0615 -0.0376  0.0714
 1518TIP3    H125969   6.458   6.617  13.366  1.6621 -0.8810 -3.4245
 1518TIP3    H225970   6.333   6.547  13.318 -0.3670  0.1547  0.1358
 1519TIP3   OH225971   1.018   3.218  17.010  0.2375  0.3302  0.4632
 1519TIP3    H125972   0.933   3.260  16.995 -0.2172 -0.5700  0.5226
 1519TIP3    H225973   1.081   3.278  16.970 -0.6397 -0.2207 -1.8071
 1520TIP3   OH225974   1.563   3.772   1.967 -0.6704  0.0569 -0.3716
 1520TIP3    H125975   1.566   3.842   1.902  0.2744  0.5839  0.2336
 1520TIP3    H225976   1.641   3.720   1.950  0.3338  1.0144  1.2349
 1521TIP3   OH225977   0.208   1.172  12.827  0.3109  0.0076 -0.3705
 1521TIP3    H125978   0.226   1.136  12.914 -2.4072  1.8959  1.0395
 1521TIP3    H225979   0.215   1.097  12.768  0.5621 -1.6336  1.6806
 1522TIP3   OH225980   2.256   1.890  13.219  0.6060 -0.2621 -0.5149
 1522TIP3    H125981   2.328   1.831  13.238  1.1080  1.0771  1.8938
 1522TIP3    H225982   2.266   1.962  13.281 -0.6138  1.8455 -2.6550
 1523TIP3   OH225983   1.787   5.789   3.683 -0.4343  0.2690  0.3295
 1523TIP3    H125984   1.730   5.760   3.612 -1.5508  0.4539  1.1395
 1523TIP3    H225985   1.784   5.884   3.680  1.5044  0.3129 -0.9443
 1524TIP3   OH225986   4.651   5.792  11.914  0.1335 -0.0269 -0.1371
 1524TIP3    H125987   4.715   5.857  11.943  0.0067 -0.1782  0.4882
 1524TIP3    H225988   4.696   5.744  11.844  0.1054  0.9442 -0.8247
 1525TIP3   OH225989   1.736   3.693  15.798 -0.0060  0.3620  0.1236
 1525TIP3    H125990   1.812   3.648  15.835  0.2618  0.3157 -0.4878
 1525TIP3    H225991   1.686   3.721  15.875 -0.0685 -0.7881  0.5189
 1526TIP3   OH225992   6.577   3.267  16.760 -0.0006 -0.4085 -0.2404
 1526TIP3    H125993   6.525   3.189  16.743  0.8637 -1.5143  1.9365
 1526TIP3    H225994   6.531   3.312  16.831 -0.0229  0.6205 -0.8876
 1527TIP3   OH225995   5.746   0.590  16.989  0.2480  0.4847 -0.6072
 1527TIP3    H125996   5.810   0.563  17.055  0.3676  0.6693 -0.6476
 1527TIP3    H225997   5.674   0.527  16.998 -1.1260  2.2863  1.8354
 1528TIP3   OH225998   5.337   6.550   1.777 -0.4271 -0.4468  0.0966
 1528TIP3    H125999   5.394   6.625   1.760 -0.2021 -0.5728  0.3012
 1528TIP3    H226000   5.361   6.486   1.711 -1.3084  0.0412 -0.7154
 1529TIP3   OH226001   5.622   2.019   6.145 -0.0801 -0.0820  0.3917
 1529TIP3    H126002   5.657   1.990   6.061 -0.7921  0.9068 -0.2417
 1529TIP3    H226003   5.578   1.941   6.180  2.4089 -1.2484  1.0387
 1530TIP3   OH226004   3.537   1.041  15.899 -0.3157 -0.3914  0.1487
 1530TIP3    H126005   3.481   1.071  15.971  0.5666 -0.5979  0.9179
 1530TIP3    H226006   3.626   1.062  15.927  0.0794 -1.0457 -0.6067
 1531TIP3   OH226007   3.135   0.028   2.887  0.3765  0.0944  0.1892
 1531TIP3    H126008   3.178   0.037   2.972  0.7191 -1.0483  0.1374
 1531TIP3    H226009   3.122   0.119   2.858  2.5817  0.4841  0.2899
 1532TIP3   OH226010   0.824   5.162   3.407 -0.4976  0.2908 -0.0549
 1532TIP3    H126011   0.898   5.202   3.362 -0.2180 -2.1972 -1.8818
 1532TIP3    H226012   0.864   5.102   3.470 -0.9386  1.6301  1.5407
 1533TIP3   OH226013   6.452   0.480   4.617  0.3301  0.5179  0.1441
 1533TIP3    H126014   6.391   0.547   4.586 -0.4702  0.4034  1.4184
 1533TIP3    H226015   6.437   0.405   4.560 -0.9373  0.3969  0.6217
 1534TIP3   OH226016   2.849   1.401   6.050  0.1288 -0.1570 -0.1824
 1534TIP3    H126017   2.863   1.308   6.035 -1.7620 -0.3600 -0.7605
 1534TIP3    H226018   2.912   1.424   6.118 -0.6703 -2.2726  1.3090
 1535TIP3   OH226019   0.898   1.507  16.706  0.1798 -0.0710  0.3586
 1535TIP3    H126020   0.915   1.501  16.799  0.7933  2.6982  0.4764
 1535TIP3    H226021   0.973   1.555  16.671  0.3423 -1.7503 -1.6931
 1536TIP3   OH226022   2.158   5.826  12.768  0.6119  0.4870 -0.0520
 1536TIP3    H126023   2.194   5.782  12.845  0.9216 -3.1914 -2.1872
 1536TIP3    H226024   2.220   5.805  12.698 -0.0304  3.1868 -1.4960
 1537TIP3   OH226025   6.655   2.437  12.506 -0.5249 -0.6174 -0.6346
 1537TIP3    H126026   6.629   2.345  12.495 -2.0463 -0.1686 -0.8971
 1537TIP3    H226027   6.584   2.487  12.466 -0.1192  0.6970  0.2657
 1538TIP3   OH226028   1.562   4.387  11.161 -0.6230  0.1067  0.1608
 1538TIP3    H126029   1.476   4.347  11.151 -0.4654  0.2969 -2.4065
 1538TIP3    H226030   1.579   4.427  11.075  2.1006 -0.1071  0.5760
 1539TIP3   OH226031   1.090   1.339  17.175 -0.0219  0.0479 -0.2121
 1539TIP3    H126032   1.179   1.349  17.141  0.4728 -0.6560  0.8302
 1539TIP3    H226033   1.070   1.246  17.163 -0.3112  0.0440  0.2788
 1540TIP3   OH226034   6.245   3.014   1.890 -0.7168  0.2588 -0.2778
 1540TIP3    H126035   6.261   2.921   1.907  1.2367  0.5783 -0.1683
 1540TIP3    H226036   6.255   3.023   1.795  1.3741  0.7159 -0.0493
 1541TIP3   OH226037   2.973   4.365   1.046 -0.1923  0.0188  0.2143
 1541TIP3    H126038   2.892   4.314   1.052  1.0467 -2.0569 -0.5876
 1541TIP3    H226039   2.988   4.396   1.135 -1.1887 -0.6518  0.6197
 1542TIP3   OH226040   6.442   4.957   3.945  0.2535  0.3488 -0.0964
 1542TIP3    H126041   6.487   4.890   3.996 -0.2643  1.7006  2.1636
 1542TIP3    H226042   6.506   5.026   3.933 -0.2226  0.8725  0.3670
 1543TIP3   OH226043   6.736   1.191   0.068  0.5566 -0.2028  0.2284
 1543TIP3    H126044   6.772   1.141  -0.006  2.3027  1.0939  0.1890
 1543TIP3    H226045   6.648   1.216   0.038  0.7311 -0.8349 -0.8570
 1544TIP3   OH226046   2.135   5.887   3.240  0.3652  0.1782 -0.7805
 1544TIP3    H126047   2.056   5.930   3.272  1.5731  1.0757  1.1359
 1544TIP3    H226048   2.170   5.948   3.174  1.1512  1.3625  0.6895
 1545TIP3   OH226049   1.931   4.079   3.392 -0.1397  0.6197 -0.4581
 1545TIP3    H126050   1.917   4.068   3.298 -0.8991  1.7073 -0.4819
 1545TIP3    H226051   2.025   4.062   3.404 -0.6974 -3.2650 -0.8309
 1546TIP3   OH226052   2.655   6.404  13.052  0.1861  0.2494 -0.7107
 1546TIP3    H126053   2.671   6.311  13.070 -1.7543 -0.1338 -0.8882
 1546TIP3    H226054   2.696   6.419  12.967 -0.0872 -0.6257 -1.0053
 1547TIP3   OH226055   4.973   6.325   4.765 -0.5871 -0.6209  0.1260
 1547TIP3    H126056   5.057   6.335   4.721 -0.1405  2.4518  1.5688
 1547TIP3    H226057   4.908   6.358   4.703 -0.0587  2.7116  1.2329
 1548TIP3   OH226058   3.436   5.033   4.003  0.4862  0.4690 -0.6778
 1548TIP3    H126059   3.361   4.991   4.044  0.3923  0.2917 -1.0323
 1548TIP3    H226060   3.505   4.966   4.005  1.5275  1.5381  2.1946
 1549TIP3   OH226061   6.009   3.070  15.296 -0.3471  0.3476  0.3013
 1549TIP3    H126062   5.924   3.039  15.264 -0.9943  2.3999 -0.0831
 1549TIP3    H226063   6.067   2.995  15.288 -2.1069 -1.0896  0.5057
 1550TIP3   OH226064   1.939   2.032   0.249 -0.4283  0.1433  0.0933
 1550TIP3    H126065   1.994   2.070   0.317  0.7234  0.6691 -1.1203
 1550TIP3    H226066   1.856   2.014   0.293  0.2562  0.6005  1.6008
 1551TIP3   OH226067   6.757   3.043   1.484  0.0698 -0.2214 -0.1357
 1551TIP3    H126068   6.752   3.038   1.389 -2.1396 -1.1598 -0.0009
 1551TIP3    H226069   6.798   3.128   1.502 -0.6412  0.5122 -1.9024
 1552TIP3   OH226070   1.294   1.927   5.666 -0.0956  0.5924  1.0920
 1552TIP3    H126071   1.343   1.983   5.726  1.7700 -0.2967  0.4094
 1552TIP3    H226072   1.347   1.924   5.587 -2.1696  1.1379 -0.3517
 1553TIP3   OH226073   2.569   6.594  16.916 -0.4178 -0.4733 -0.0983
 1553TIP3    H126074   2.612   6.510  16.903 -0.4533 -0.5635  0.3474
 1553TIP3    H226075   2.500   6.576  16.981  0.7701  0.2746  1.3988
 1554TIP3   OH226076   2.130   6.352   3.476  0.3768  0.0509  0.3267
 1554TIP3    H126077   2.076   6.274   3.485 -0.0199  0.5341  2.3075
 1554TIP3    H226078   2.070   6.425   3.493  0.8006  0.7838 -1.2243
 1555TIP3   OH226079   1.581   5.479   3.675  0.4550 -0.7959  0.9685
 1555TIP3    H126080   1.510   5.488   3.613  0.6278 -1.4087  0.6780
 1555TIP3    H226081   1.655   5.524   3.634  0.5805 -1.2352  0.7103
 1556TIP3   OH226082   2.769   2.914   4.568  0.6502  0.2903  0.5673
 1556TIP3    H126083   2.852   2.877   4.597  0.3137 -0.6130  0.4027
 1556TIP3    H226084   2.704   2.875   4.627  0.3529  1.0549  0.7517
 1557TIP3   OH226085   6.099   6.779  13.625  0.0227  0.0350  0.1976
 1557TIP3    H126086   6.016   6.731  13.633 -0.3839  0.6650 -0.2521
 1557TIP3    H226087   6.076   6.871  13.638  0.7634  0.1472  0.7655
 1558TIP3   OH226088   5.777   4.487  11.291  0.5489 -0.1539  0.8782
 1558TIP3    H126089   5.730   4.571  11.290 -0.8751 -0.9213  1.3676
 1558TIP3    H226090   5.865   4.509  11.320  0.7950  1.4760 -1.0070
 1559TIP3   OH226091   5.484   2.735  12.412  0.3525  0.0510  0.7412
 1559TIP3    H126092   5.524   2.672  12.352  0.1014  0.8379 -0.2605
 1559TIP3    H226093   5.400   2.757  12.372 -0.7077 -0.9103  2.3852
 1560TIP3   OH226094   6.436   6.414   5.560  0.1261  0.4005  0.1846
 1560TIP3    H126095   6.409   6.505   5.551 -0.6795  0.3497  1.7876
 1560TIP3    H226096   6.508   6.416   5.623 -2.0871 -0.3596  2.8757
 1561TIP3   OH226097   4.636   0.723  10.893 -0.1488 -0.1062  0.1480
 1561TIP3    H126098   4.676   0.638  10.880  1.7843  0.9445 -0.8943
 1561TIP3    H226099   4.578   0.735  10.818  1.1601  0.3725 -0.8026
 1562TIP3   OH226100   2.575   4.286   6.144 -0.3495  0.1506  0.2887
 1562TIP3    H126101   2.493   4.329   6.121 -0.4123 -0.7496 -1.2247
 1562TIP3    H226102   2.557   4.192   6.135  0.7274 -0.0758  0.3483
 1563TIP3   OH226103   5.008   1.995  15.795  0.3571  0.0255 -0.0856
 1563TIP3    H126104   4.975   1.917  15.751  2.6332 -0.8391 -0.3249
 1563TIP3    H226105   4.961   1.997  15.879  0.8465 -2.0608  0.2614
 1564TIP3   OH226106   5.649   6.294  14.011  0.6529  0.0067  0.2937
 1564TIP3    H126107   5.589   6.318  14.081  0.5679 -0.1457  0.2735
 1564TIP3    H226108   5.711   6.234  14.053 -0.4373 -1.4841 -0.1783
 1565TIP3   OH226109   0.730   5.073  14.312  0.0808  0.5438  0.4108
 1565TIP3    H126110   0.679   5.063  14.393  0.3298  0.1976  0.5263
 1565TIP3    H226111   0.686   5.144  14.265 -0.9104 -0.1902  0.2021
 1566TIP3   OH226112   1.856   1.821  17.125  0.0112  0.3979  0.6180
 1566TIP3    H126113   1.879   1.810  17.032 -0.7016  2.9865  0.0789
 1566TIP3    H226114   1.766   1.791  17.131  0.7604 -1.8520  0.9615
 1567TIP3   OH226115   0.193   6.311   5.573 -0.5988  0.0639 -0.3056
 1567TIP3    H126116   0.150   6.289   5.655 -0.3517  0.0097 -0.1929
 1567TIP3    H226117   0.214   6.404   5.581  0.2829 -0.1679  0.0735
 1568TIP3   OH226118   5.156   1.089   5.394 -0.2798 -0.8089 -0.3155
 1568TIP3    H126119   5.203   1.129   5.321 -0.2740 -0.1025  0.0739
 1568TIP3    H226120   5.225   1.054   5.450 -0.0910  2.0049  1.2920
 1569TIP3   OH226121   0.796   2.396   3.393 -0.4522 -0.6953  0.0150
 1569TIP3    H126122   0.797   2.306   3.426  0.5205 -0.1334  1.6193
 1569TIP3    H226123   0.840   2.391   3.308 -0.4189 -1.7448  0.0855
 1570TIP3   OH226124   3.818   6.679   3.520 -0.6465 -0.4366 -0.6703
 1570TIP3    H126125   3.858   6.716   3.441 -0.0767 -0.5826 -0.4490
 1570TIP3    H226126   3.787   6.754   3.569 -1.2177 -0.3529 -1.1415
 1571TIP3   OH226127   1.267   6.636   2.872 -0.2482 -0.2794  0.4428
 1571TIP3    H126128   1.221   6.619   2.790 -2.0831  1.5001  1.0791
 1571TIP3    H226129   1.298   6.550   2.900 -1.8783 -1.2839 -0.7679
 1572TIP3   OH226130   0.054   5.813   2.107 -0.4504 -0.3624  0.6566
 1572TIP3    H126131  -0.041   5.806   2.099 -0.4482  0.7363 -0.5034
 1572TIP3    H226132   0.073   5.904   2.086  0.6899 -0.0612  2.8668
 1573TIP3   OH226133   4.122   4.939   0.637 -0.2035 -0.1023  0.2052
 1573TIP3    H126134   4.196   4.979   0.593 -1.5013  1.3172 -0.7491
 1573TIP3    H226135   4.112   4.854   0.595  0.2071  0.1562 -0.4166
 1574TIP3   OH226136   5.977   6.157  14.747  0.2553  0.1329  0.8561
 1574TIP3    H126137   6.042   6.178  14.680 -0.5368  1.4109  0.4753
 1574TIP3    H226138   6.027   6.116  14.817  1.1895 -0.6581 -0.2465
 1575TIP3   OH226139   3.495   3.907  13.402 -0.0118  0.5579 -0.8763
 1575TIP3    H126140   3.584   3.934  13.378 -0.1515  0.1406 -1.8761
 1575TIP3    H226141   3.504   3.814  13.425 -0.4547  0.1254 -2.4291
 1576TIP3   OH226142   6.176   6.099   6.498 -0.1901 -0.6016 -0.3786
 1576TIP3    H126143   6.197   6.125   6.409  0.1148 -0.5297 -0.2871
 1576TIP3    H226144   6.220   6.164   6.553 -0.6852 -0.4225 -0.1836
 1577TIP3   OH226145   3.148   5.049  11.931  0.0132 -0.0479 -0.1317
 1577TIP3    H126146   3.122   5.140  11.941 -3.3148 -0.6943 -2.0381
 1577TIP3    H226147   3.195   5.046  11.847 -1.4498 -0.3231 -0.9746
 1578TIP3   OH226148   1.550   2.945  14.832 -0.3506 -0.8566 -0.3941
 1578TIP3    H126149   1.580   2.960  14.921  1.0660  1.6378 -1.2407
 1578TIP3    H226150   1.627   2.960  14.777 -1.8043  0.2921 -2.2168
 1579TIP3   OH226151   6.706   5.564  14.395 -0.3621 -0.4356 -0.1048
 1579TIP3    H126152   6.782   5.512  14.370 -0.4430 -0.5246 -0.1670
 1579TIP3    H226153   6.718   5.582  14.488 -2.9569 -5.0386  1.2767
 1580TIP3   OH226154   6.240   6.076   1.421  0.1128  0.2048  0.4406
 1580TIP3    H126155   6.170   6.043   1.365  0.7409  0.2943 -0.4056
 1580TIP3    H226156   6.265   6.160   1.381  1.3344 -0.2740  0.1888
 1581TIP3   OH226157   3.835   4.161  13.120  0.1629 -0.3034 -0.4608
 1581TIP3    H126158   3.810   4.085  13.068  1.6844 -0.8773 -0.3837
 1581TIP3    H226159   3.924   4.142  13.149 -0.2266  0.5400  1.3658
 1582TIP3   OH226160   6.647   0.868   3.658 -0.0666  0.5029 -0.2888
 1582TIP3    H126161   6.604   0.912   3.732  1.5349 -1.4449  1.8618
 1582TIP3    H226162   6.598   0.787   3.647  0.4932  0.1934 -0.5217
 1583TIP3   OH226163   5.942   1.972   0.076 -0.5975 -0.1979 -0.0417
 1583TIP3    H126164   5.916   1.985  -0.015  2.3212  0.4051 -0.8449
 1583TIP3    H226165   5.963   1.879   0.082 -1.4935 -0.3908  0.2357
 1584TIP3   OH226166   2.028   1.961  12.760 -0.8334 -0.0699  0.5656
 1584TIP3    H126167   2.020   2.055  12.775 -0.5681  0.3522 -1.7845
 1584TIP3    H226168   2.109   1.936  12.806 -0.8313  0.8781  1.0744
 1585TIP3   OH226169   0.901   0.001   2.172 -0.1504  0.3630 -0.2781
 1585TIP3    H126170   0.922  -0.077   2.120  0.5845  0.6378 -0.3925
 1585TIP3    H226171   0.955   0.070   2.135 -0.4778  0.8286  0.1113
 1586TIP3   OH226172   1.980   3.005  12.802  0.3136 -0.5499 -0.0595
 1586TIP3    H126173   1.892   2.973  12.822 -0.8273  1.1614 -2.1465
 1586TIP3    H226174   2.036   2.928  12.809 -0.9507 -1.2456  3.5187
 1587TIP3   OH226175   5.189   2.516   5.928 -0.2012 -0.2810 -0.5131
 1587TIP3    H126176   5.269   2.487   5.972 -0.1734  1.4210  0.6167
 1587TIP3    H226177   5.214   2.596   5.882 -1.2039  0.1689 -0.3020
 1588TIP3   OH226178   0.277   4.674   4.287  0.2343 -0.1233  0.0676
 1588TIP3    H126179   0.349   4.626   4.244  1.1794 -0.2544  1.7750
 1588TIP3    H226180   0.313   4.702   4.371 -0.9301  1.9916 -0.1158
 1589TIP3   OH226181   0.198   5.310  15.037  0.2381 -0.3623  0.1203
 1589TIP3    H126182   0.107   5.283  15.024  0.2855 -0.3714 -0.1917
 1589TIP3    H226183   0.201   5.401  15.010  0.2757 -0.2972  0.3383
 1590TIP3   OH226184   1.748   2.660   4.735  0.3508 -0.1598  0.0480
 1590TIP3    H126185   1.677   2.651   4.671  0.5149 -1.6903  0.0510
 1590TIP3    H226186   1.709   2.634   4.818  1.0822 -1.7165 -0.0727
 1591TIP3   OH226187   4.691   5.119  11.858 -0.0942 -0.5241  0.1163
 1591TIP3    H126188   4.654   5.033  11.878  0.6713 -0.8104  0.3235
 1591TIP3    H226189   4.616   5.178  11.857 -0.5084 -1.0337  0.8992
 1592TIP3   OH226190   6.627   1.062  10.445 -0.0163  0.0728  0.4109
 1592TIP3    H126191   6.598   1.017  10.525 -2.9011  0.8983 -0.1196
 1592TIP3    H226192   6.596   1.152  10.456  2.6706  1.1050 -0.0928
 1593TIP3   OH226193   6.781   1.929   2.497  0.1660 -0.3156  0.6121
 1593TIP3    H126194   6.807   1.876   2.422  1.8624 -0.9600  1.6198
 1593TIP3    H226195   6.790   2.020   2.467  1.1175 -0.5648  0.1437
 1594TIP3   OH226196   3.771   5.424  14.260 -0.3913  0.5984 -0.4651
 1594TIP3    H126197   3.778   5.369  14.338 -0.1101  2.0019  0.5312
 1594TIP3    H226198   3.677   5.444  14.253 -0.7351 -1.4421 -1.8601
 1595TIP3   OH226199   2.761   3.528   1.730  0.0861  0.5267  0.1472
 1595TIP3    H126200   2.814   3.472   1.788 -0.5921  0.7573  1.0049
 1595TIP3    H226201   2.802   3.520   1.644 -0.0050 -1.2920  0.2630
 1596TIP3   OH226202   3.775   0.165  10.817  0.1987 -0.0241  0.1565
 1596TIP3    H126203   3.822   0.086  10.789 -1.2575 -0.7018 -0.4311
 1596TIP3    H226204   3.693   0.162  10.769 -0.7552  0.7731  1.6968
 1597TIP3   OH226205   4.571   3.794  13.536 -0.6454 -0.1800  0.1517
 1597TIP3    H126206   4.596   3.827  13.450 -0.2006  1.4078  0.8752
 1597TIP3    H226207   4.648   3.748  13.568 -0.3303  0.4373  0.2861
 1598TIP3   OH226208   4.890   3.176  16.352 -0.1125  0.6367 -0.1128
 1598TIP3    H126209   4.950   3.107  16.325  0.1489  1.0246 -0.5289
 1598TIP3    H226210   4.809   3.159  16.304 -0.0873  0.5515 -0.1234
 1599TIP3   OH226211   6.082   0.070   0.335 -0.3693  0.0826  0.0191
 1599TIP3    H126212   6.070   0.164   0.318 -1.1535 -0.1311 -0.6880
 1599TIP3    H226213   6.090   0.031   0.248  1.9232 -0.2730  0.3708
 1600TIP3   OH226214   3.419   1.449   4.428  0.1649 -0.3756  0.1493
 1600TIP3    H126215   3.476   1.474   4.501  0.6966  0.3216 -0.4899
 1600TIP3    H226216   3.479   1.408   4.364 -0.4617 -1.9572  0.5539
 1601TIP3   OH226217   3.818   4.676   0.427  0.0990  0.2599 -0.2130
 1601TIP3    H126218   3.782   4.749   0.378 -0.9623  0.3182  0.6323
 1601TIP3    H226219   3.887   4.641   0.371  0.0252  1.3571 -1.0030
 1602TIP3   OH226220   1.713   3.621  11.842 -0.4666 -0.1284  0.3555
 1602TIP3    H126221   1.632   3.671  11.828  0.3525  0.9204 -0.7320
 1602TIP3    H226222   1.761   3.670  11.908  0.2690  0.4819 -0.6037
 1603TIP3   OH226223   5.505   0.310  15.430  0.2790  0.3092  0.1576
 1603TIP3    H126224   5.469   0.275  15.349  2.0671 -0.1398 -0.4768
 1603TIP3    H226225   5.522   0.232  15.484  0.6021  0.4873  0.3165
 1604TIP3   OH226226   6.128   1.514  16.130  0.7512  0.3510 -0.5336
 1604TIP3    H126227   6.148   1.548  16.217 -0.6925 -0.9283  0.3332
 1604TIP3    H226228   6.044   1.554  16.108  1.2463  0.8899 -1.4777
 1605TIP3   OH226229   2.681   2.548   1.451  0.2951 -0.0261  0.7407
 1605TIP3    H126230   2.673   2.535   1.546  0.8407  0.5290  0.8702
 1605TIP3    H226231   2.774   2.569   1.438  0.0183  0.9047  0.2177
 1606TIP3   OH226232   5.149   2.129  10.463  0.3481  0.0483  0.0318
 1606TIP3    H126233   5.132   2.035  10.473  0.2866  0.1295  0.7108
 1606TIP3    H226234   5.067   2.165  10.428  1.0267 -0.4612 -2.1440
 1607TIP3   OH226235   5.641   1.312  16.059  0.2780  0.7312 -0.3223
 1607TIP3    H126236   5.610   1.341  16.145  0.0625  1.0010 -0.4887
 1607TIP3    H226237   5.663   1.220  16.071  0.2652  0.7728  0.0282
 1608TIP3   OH226238   4.577   4.342   1.706  0.5777 -0.1414  0.2604
 1608TIP3    H126239   4.654   4.339   1.648 -2.4665  0.6562 -4.0186
 1608TIP3    H226240   4.570   4.433   1.733  0.2848  0.0951 -0.5964
 1609TIP3   OH226241   3.602   3.529  15.176  0.0169 -0.0537  0.1284
 1609TIP3    H126242   3.654   3.606  15.151  0.8917 -0.3420  1.0519
 1609TIP3    H226243   3.628   3.461  15.113 -0.3691  0.2401 -0.3555
 1610TIP3   OH226244   4.189   6.507  11.609  0.7331  0.0505  0.1130
 1610TIP3    H126245   4.100   6.521  11.643 -0.2429 -2.3312 -1.3285
 1610TIP3    H226246   4.209   6.586  11.560  0.5503  1.8148  2.7847
 1611TIP3   OH226247   1.975   0.257   2.150 -0.0808 -0.5672 -0.1916
 1611TIP3    H126248   1.942   0.343   2.123 -1.5265 -1.4338 -1.2324
 1611TIP3    H226249   1.995   0.268   2.244  3.6317  2.0432 -1.1554
 1612TIP3   OH226250   6.519   1.049   4.784  0.1354  0.5419 -0.2753
 1612TIP3    H126251   6.552   0.997   4.712  0.6475  0.2909  0.1389
 1612TIP3    H226252   6.505   0.986   4.855 -0.8314  0.7101 -0.3129
 1613TIP3   OH226253   4.956   5.462   5.024 -0.0077 -0.0942 -0.1344
 1613TIP3    H126254   5.048   5.490   5.023  0.4783 -1.6441 -0.8848
 1613TIP3    H226255   4.908   5.540   5.051  1.2789  1.4785 -2.1859
 1614TIP3   OH226256   6.380   0.137   4.071 -0.0021 -0.3902 -0.1838
 1614TIP3    H126257   6.406   0.071   4.135  0.0358  0.1605  0.3763
 1614TIP3    H226258   6.348   0.087   3.996  1.3611 -1.0556 -0.3250
 1615TIP3   OH226259   2.063   0.708  13.232 -0.4310 -0.1375  0.8107
 1615TIP3    H126260   2.059   0.803  13.222  1.0780 -0.4019 -3.4104
 1615TIP3    H226261   1.982   0.676  13.193  0.6141 -0.6881 -1.0007
 1616TIP3   OH226262   4.768   4.229  13.890  0.2681  0.5694 -0.4359
 1616TIP3    H126263   4.750   4.296  13.825  0.2764  1.2228  0.2300
 1616TIP3    H226264   4.782   4.149  13.839  2.5193  1.5412 -1.3743
 1617TIP3   OH226265   5.236   6.048  11.999 -0.7584 -0.6928 -0.2473
 1617TIP3    H126266   5.292   5.982  11.958 -0.4534  0.0185 -0.9975
 1617TIP3    H226267   5.189   6.089  11.925  0.0246  0.8133  0.0612
 1618TIP3   OH226268   1.490   0.528   1.881 -0.1211 -0.1610 -0.3337
 1618TIP3    H126269   1.580   0.499   1.869 -0.1696 -0.5512  0.2039
 1618TIP3    H226270   1.451   0.526   1.794 -0.4769 -2.9009 -0.1564
 1619TIP3   OH226271   6.009   1.009   0.424  0.0758 -0.3642  0.5101
 1619TIP3    H126272   6.066   1.031   0.350  1.8286 -0.2372  1.8832
 1619TIP3    H226273   5.974   0.923   0.402 -1.9827  1.0238 -1.9879
 1620TIP3   OH226274   3.298   5.639   1.612  0.4068 -0.3629  0.0021
 1620TIP3    H126275   3.304   5.686   1.529  1.3105  0.0744  0.3089
 1620TIP3    H226276   3.302   5.707   1.679  1.1839 -0.8182  0.4356
 1621TIP3   OH226277   4.249   4.288   0.817 -0.2678 -0.4848 -0.3585
 1621TIP3    H126278   4.170   4.296   0.764  0.3696 -0.8413 -1.3648
 1621TIP3    H226279   4.320   4.277   0.754  0.4847 -1.0121  0.5648
 1622TIP3   OH226280   3.104   5.150  14.775  0.1872 -0.0798  0.2434
 1622TIP3    H126281   3.147   5.228  14.740 -1.2364  0.8968  0.6228
 1622TIP3    H226282   3.094   5.092  14.699  1.0494  0.1948 -0.0858
 1623TIP3   OH226283   4.298   2.473  17.045 -0.3969  0.2629  0.3932
 1623TIP3    H126284   4.234   2.401  17.046  1.0314 -1.0607 -0.6948
 1623TIP3    H226285   4.288   2.511  16.958  1.2720 -0.8816 -0.3273
 1624TIP3   OH226286   2.870   5.816   4.123  0.3305 -0.0620  0.0388
 1624TIP3    H126287   2.818   5.895   4.136  0.5250 -0.0992  1.0885
 1624TIP3    H226288   2.961   5.845   4.130  0.4306 -0.2231 -0.5137
 1625TIP3   OH226289   5.113   3.260   3.209  0.3468 -0.0228 -0.3240
 1625TIP3    H126290   5.207   3.279   3.199  0.1455  1.2017 -0.0184
 1625TIP3    H226291   5.110   3.186   3.269  1.1244 -0.0616 -0.3187
 1626TIP3   OH226292   4.605   1.813  16.116  0.0471 -0.5731  0.0669
 1626TIP3    H126293   4.541   1.775  16.176 -2.3563  0.6878 -1.6189
 1626TIP3    H226294   4.612   1.749  16.046  0.0883 -0.3814 -0.1050
 1627TIP3   OH226295   2.592   3.760   1.754 -0.3644  0.5652  0.2796
 1627TIP3    H126296   2.513   3.722   1.793  0.7897 -0.5231  1.6203
 1627TIP3    H226297   2.636   3.686   1.713  0.3792  1.0198  0.2563
 1628TIP3   OH226298   5.306   4.121   5.463  0.2949  0.2428  0.1750
 1628TIP3    H126299   5.212   4.121   5.443  0.2632 -1.4528  0.2026
 1628TIP3    H226300   5.312   4.075   5.547  1.1004  0.7954  0.4189
 1629TIP3   OH226301   4.155   2.057   2.407  0.3353  0.1877 -0.1964
 1629TIP3    H126302   4.197   1.974   2.427 -1.7733 -0.8899 -0.0803
 1629TIP3    H226303   4.065   2.047   2.439 -0.1420  2.2699 -0.7673
 1630TIP3   OH226304   5.367   5.971   5.994  0.6044 -0.6938 -0.3128
 1630TIP3    H126305   5.308   5.922   6.051 -0.2498 -1.3321 -1.7314
 1630TIP3    H226306   5.339   5.950   5.905  0.0803  2.5251 -0.9762
 1631TIP3   OH226307   3.389   1.719   0.859  0.4158 -0.3744  0.0110
 1631TIP3    H126308   3.411   1.648   0.800  1.5809 -1.4347  1.6638
 1631TIP3    H226309   3.406   1.799   0.809 -0.3144 -1.2429 -1.6498
 1632TIP3   OH226310   0.045   4.921  11.900 -0.6697 -0.3215 -0.1072
 1632TIP3    H126311   0.071   4.869  11.976 -2.3961 -0.1514  0.6134
 1632TIP3    H226312   0.124   4.971  11.878  0.3960 -1.7335  0.4339
 1633TIP3   OH226313   2.768   0.503  12.429 -0.0729 -0.2829  0.1788
 1633TIP3    H126314   2.685   0.512  12.477  0.7306 -0.5316  1.6602
 1633TIP3    H226315   2.764   0.568  12.360 -0.9092  0.6915  1.1295
 1634TIP3   OH226316   4.825   0.827   0.016 -0.3204 -0.5553 -0.5438
 1634TIP3    H126317   4.839   0.732   0.008 -0.1191 -0.8365  2.3080
 1634TIP3    H226318   4.767   0.835   0.092  0.9133  1.6848  0.1899
 1635TIP3   OH226319   0.881   0.868  12.720 -0.2180  0.2241 -0.0469
 1635TIP3    H126320   0.930   0.943  12.686  0.4091 -0.2638 -0.2355
 1635TIP3    H226321   0.883   0.879  12.815 -1.6079  1.3613 -0.1309
 1636TIP3   OH226322   3.698   4.355   0.403  0.0117  0.8462  0.6045
 1636TIP3    H126323   3.742   4.439   0.389 -0.1731  1.0992  1.5299
 1636TIP3    H226324   3.624   4.376   0.460 -0.4394  0.1718  0.2620
 1637TIP3   OH226325   0.648   0.791  16.388 -0.1590 -0.2965 -0.4662
 1637TIP3    H126326   0.653   0.833  16.302 -0.0831  2.4581  0.8323
 1637TIP3    H226327   0.728   0.739  16.394 -0.4802 -1.0477 -2.3128
 1638TIP3   OH226328   1.208   5.699   0.637 -0.0036 -0.5225 -0.7276
 1638TIP3    H126329   1.141   5.680   0.703 -0.0985 -1.7363 -1.1714
 1638TIP3    H226330   1.159   5.733   0.562  0.0521  0.3014 -0.3988
 1639TIP3   OH226331   3.391   0.021  11.752 -0.3841  0.5984  0.4304
 1639TIP3    H126332   3.344   0.096  11.716 -2.0783 -0.5906  0.0719
 1639TIP3    H226333   3.422   0.051  11.837 -1.4909  1.5583  0.5141
 1640TIP3   OH226334   5.567   6.140   5.744  0.1173 -0.0715 -0.3255
 1640TIP3    H126335   5.506   6.067   5.731 -0.8009  0.3954  1.2173
 1640TIP3    H226336   5.628   6.133   5.671  0.1312 -2.4640 -0.1253
 1641TIP3   OH226337   1.717   1.448  15.087 -0.6973  0.0303  0.2359
 1641TIP3    H126338   1.677   1.514  15.144 -0.9298  0.9333 -0.9569
 1641TIP3    H226339   1.811   1.456  15.104 -0.7163  0.7355  0.0330
 1642TIP3   OH226340   5.337   2.917  14.509  0.3607  0.1751  0.1477
 1642TIP3    H126341   5.397   2.945  14.440  1.8683  2.6196  2.3560
 1642TIP3    H226342   5.302   2.998  14.545  0.5576 -0.9346  3.0337
 1643TIP3   OH226343   5.824   2.016   1.526 -0.5524 -0.6888  0.0782
 1643TIP3    H126344   5.848   2.030   1.618 -0.3239  0.3431 -0.1423
 1643TIP3    H226345   5.728   2.020   1.526 -0.5741 -1.1648  0.3471
 1644TIP3   OH226346   3.061   4.185   5.170 -0.4697  0.1041 -0.1436
 1644TIP3    H126347   3.140   4.238   5.161 -0.9686  1.5260  3.3887
 1644TIP3    H226348   3.010   4.206   5.091  1.4811  1.1276 -1.1810
 1645TIP3   OH226349   0.052   4.369   3.942 -0.1728 -0.0844 -0.0132
 1645TIP3    H126350   0.051   4.274   3.957 -0.3231 -0.3982 -1.8988
 1645TIP3    H226351  -0.040   4.391   3.924  0.0848  0.1456 -1.1064
 1646TIP3   OH226352   1.797   0.237  16.469 -0.2619  0.2236 -0.0281
 1646TIP3    H126353   1.785   0.236  16.374  0.4483 -0.4577 -0.1099
 1646TIP3    H226354   1.880   0.193  16.483 -1.2579 -1.3533  1.0339
 1647TIP3   OH226355   2.379   4.494   3.174 -0.0417  0.1742  0.1136
 1647TIP3    H126356   2.472   4.483   3.194 -0.6160 -0.5071  2.6755
 1647TIP3    H226357   2.361   4.586   3.192  0.5395  0.7874 -2.3118
 1648TIP3   OH226358   3.166   5.944  10.994  0.3090  1.2874 -0.0179
 1648TIP3    H126359   3.193   5.958  11.085  0.1595 -0.9122  0.3933
 1648TIP3    H226360   3.137   6.030  10.964 -0.4701  1.8623  2.2799
 1649TIP3   OH226361   4.974   2.513  12.256 -0.0620  0.2339  0.2904
 1649TIP3    H126362   4.906   2.480  12.313  0.6471 -0.1912  0.9007
 1649TIP3    H226363   4.956   2.607  12.248 -1.8128 -0.2041 -1.0888
 1650TIP3   OH226364   0.471   5.906  11.235  0.0152  0.6110 -0.2933
 1650TIP3    H126365   0.422   5.901  11.153 -0.6902 -0.0810  0.1596
 1650TIP3    H226366   0.482   6.000  11.251 -0.3599  0.7551 -0.8743
 1651TIP3   OH226367   3.759   2.062   2.457 -0.3250 -0.6192 -0.2132
 1651TIP3    H126368   3.682   2.063   2.514 -0.0045  0.4916  0.2137
 1651TIP3    H226369   3.833   2.051   2.517  0.0154  0.5824 -0.4027
 1652TIP3   OH226370   1.004   0.872   1.928  0.2771  0.5052  0.1254
 1652TIP3    H126371   0.987   0.904   1.839  1.3288  0.4022 -0.1212
 1652TIP3    H226372   1.092   0.835   1.924  0.2826  0.3788  1.1795
 1653TIP3   OH226373   3.424   1.314   5.736  0.2220  0.1433 -0.2863
 1653TIP3    H126374   3.362   1.264   5.790  1.0954  0.3982  0.9589
 1653TIP3    H226375   3.369   1.362   5.675 -0.7504 -0.6223 -0.0207
 1654TIP3   OH226376   2.337   5.181  13.711  0.4499 -0.6132  0.4504
 1654TIP3    H126377   2.254   5.148  13.676 -0.0398  1.1394 -0.1117
 1654TIP3    H226378   2.352   5.263  13.663  0.3592  1.2717  3.4905
 1655TIP3   OH226379   3.420   2.686  14.096  0.3591 -0.0221  0.0294
 1655TIP3    H126380   3.344   2.650  14.142 -1.6320  2.0846 -1.5064
 1655TIP3    H226381   3.464   2.741  14.161 -0.4632  0.1983  0.3979
 1656TIP3   OH226382   6.118   3.416  12.889 -0.1648  0.1985  0.5784
 1656TIP3    H126383   6.024   3.398  12.881 -0.3450  1.3492 -0.0241
 1656TIP3    H226384   6.156   3.376  12.811 -0.2379  0.2991  0.4904
 1657TIP3   OH226385   4.039   3.366   5.303 -0.0525  0.2299 -0.2287
 1657TIP3    H126386   3.951   3.388   5.331  0.1757  1.0845 -0.1833
 1657TIP3    H226387   4.057   3.282   5.346 -0.2049  0.8739  1.1204
 1658TIP3   OH226388   2.020   3.740  13.650 -0.1528  0.0296 -0.5176
 1658TIP3    H126389   2.004   3.676  13.720 -0.8759  0.4983 -0.2469
 1658TIP3    H226390   1.974   3.705  13.574  0.0029 -0.1055 -0.5484
 1659TIP3   OH226391   3.290   4.713   3.450 -0.9991 -0.0272 -0.3534
 1659TIP3    H126392   3.221   4.708   3.516 -0.3865 -0.2551  0.2736
 1659TIP3    H226393   3.301   4.807   3.434  0.0348  0.1120  1.1289
 1660TIP3   OH226394   2.289   1.729  17.204 -0.4125  0.0152  0.5951
 1660TIP3    H126395   2.367   1.759  17.159 -0.8818  4.1342  2.2749
 1660TIP3    H226396   2.217   1.779  17.164 -1.9481 -2.4031  0.2563
 1661TIP3   OH226397   1.317   0.692  17.184 -0.0495  1.0687 -0.1266
 1661TIP3    H126398   1.339   0.717  17.274 -0.7785 -0.4984  0.4928
 1661TIP3    H226399   1.400   0.699  17.137  0.9538 -0.7835  1.2964
 1662TIP3   OH226400   2.507   5.447  14.749 -0.1449  0.1090 -0.2563
 1662TIP3    H126401   2.471   5.380  14.808 -1.2779  1.1870  0.3034
 1662TIP3    H226402   2.598   5.421  14.736 -0.5862 -1.5912 -0.1127
 1663TIP3   OH226403   5.068   3.179   5.669  0.1344  0.3517  0.1449
 1663TIP3    H126404   5.103   3.135   5.592 -0.0260  1.4095 -0.5407
 1663TIP3    H226405   5.116   3.142   5.743  1.3080  0.3728 -0.6049
 1664TIP3   OH226406   0.904   2.334   5.527  0.1318 -0.1940  0.1886
 1664TIP3    H126407   0.971   2.277   5.567 -0.0171 -0.1509  0.4960
 1664TIP3    H226408   0.884   2.398   5.594  0.5899  0.4724 -0.2964
 1665TIP3   OH226409   1.774   5.916   2.822  0.3170 -0.2024 -0.6717
 1665TIP3    H126410   1.799   6.006   2.839  0.3590 -0.3679  0.1862
 1665TIP3    H226411   1.705   5.897   2.886 -2.1582  0.2916 -3.0946
 1666TIP3   OH226412   2.973   5.342  12.065 -0.1442  0.0322 -0.5893
 1666TIP3    H126413   2.924   5.269  12.102  0.6947 -0.7312 -0.9927
 1666TIP3    H226414   2.913   5.417  12.072 -1.2177 -0.8068 -0.7065
 1667TIP3   OH226415   5.768   5.776   1.806  0.4937 -0.5725 -0.1813
 1667TIP3    H126416   5.796   5.768   1.897  2.3943  1.2075 -0.5722
 1667TIP3    H226417   5.684   5.822   1.811  0.7046 -0.2636  0.6514
 1668TIP3   OH226418   0.028   6.366  15.242 -0.2012 -0.4516 -0.6256
 1668TIP3    H126419   0.056   6.447  15.285  0.1728 -0.5132 -0.7495
 1668TIP3    H226420   0.028   6.300  15.311 -0.4845 -0.3499 -0.5283
 1669TIP3   OH226421   4.396   5.197  14.573 -0.3626  0.0645  0.5381
 1669TIP3    H126422   4.446   5.266  14.617 -3.7671  2.1418  1.4356
 1669TIP3    H226423   4.376   5.233  14.487  1.6685 -1.7363 -0.7091
 1670TIP3   OH226424   5.983   6.035  12.031 -0.3884 -0.7757 -0.3076
 1670TIP3    H126425   5.968   5.944  12.057  0.2063 -1.0553 -0.9152
 1670TIP3    H226426   5.944   6.042  11.943  1.2689 -0.9796 -1.0732
 1671TIP3   OH226427   1.294   5.066   1.032 -0.3702  0.2816 -0.4482
 1671TIP3    H126428   1.279   5.112   0.949  0.9281  0.5985 -0.5183
 1671TIP3    H226429   1.371   5.011   1.015 -0.1116  0.3318  0.5259
 1672TIP3   OH226430   1.862   2.052  12.051  0.8456  0.1610  0.5922
 1672TIP3    H126431   1.837   2.144  12.053  0.9881  0.1884  1.6549
 1672TIP3    H226432   1.800   2.011  11.991 -0.1421  0.6938  1.2340
 1673TIP3   OH226433   5.556   6.536  14.984 -0.1472  0.1026 -0.2621
 1673TIP3    H126434   5.582   6.531  15.076 -1.1728 -1.6966 -0.0432
 1673TIP3    H226435   5.633   6.505  14.936  0.2311  0.6103  0.0048
 1674TIP3   OH226436   3.299   2.025   5.674 -0.5339  0.0329  0.4091
 1674TIP3    H126437   3.238   2.013   5.748 -1.6985 -1.9050 -0.8146
 1674TIP3    H226438   3.379   2.059   5.715 -1.3643 -0.4007  2.4964
 1675TIP3   OH226439   0.908   3.987  14.271  0.2198 -0.6073  0.6212
 1675TIP3    H126440   1.001   3.968  14.263  0.4022  0.4688  0.2360
 1675TIP3    H226441   0.865   3.916  14.223  0.8439 -0.9512  0.5674
 1676TIP3   OH226442   3.595   3.386  14.942 -0.1035 -0.0911  0.0703
 1676TIP3    H126443   3.668   3.431  14.898  1.0740 -1.6422  0.3770
 1676TIP3    H226444   3.530   3.374  14.873  0.1153  0.9085 -0.3236
 1677TIP3   OH226445   5.569   2.117   2.314  0.1378  0.1981  0.2035
 1677TIP3    H126446   5.623   2.181   2.268  2.5327 -0.4846  2.0061
 1677TIP3    H226447   5.623   2.038   2.319 -0.7058 -0.2760  2.7137
 1678TIP3   OH226448   2.135   6.543  14.873 -0.0221  0.1698  0.0626
 1678TIP3    H126449   2.093   6.621  14.908  1.1572  1.3057 -0.9871
 1678TIP3    H226450   2.129   6.554  14.778  1.0312 -0.5432 -0.0891
 1679TIP3   OH226451   1.517   4.430  14.565  0.3893 -0.3102 -0.4999
 1679TIP3    H126452   1.606   4.424  14.600  0.2716  1.0183  0.0834
 1679TIP3    H226453   1.525   4.490  14.490 -0.3560  1.5231  0.8506
 1680TIP3   OH226454   1.867   1.051   1.758  0.5078  0.3031  0.1420
 1680TIP3    H126455   1.955   1.013   1.761  0.4238 -0.0455 -1.2989
 1680TIP3    H226456   1.850   1.065   1.664 -0.6931  1.0144  0.4528
 1681TIP3   OH226457   0.984   2.455   2.655 -0.3547  0.4726 -0.2244
 1681TIP3    H126458   0.966   2.398   2.580 -0.1005  0.4555 -0.2735
 1681TIP3    H226459   0.903   2.454   2.706  0.3353 -1.6520  0.9123
 1682TIP3   OH226460   5.005   3.298  10.154  0.3021  0.1045  0.0479
 1682TIP3    H126461   5.008   3.347  10.236 -1.4181  0.1027  0.1119
 1682TIP3    H226462   5.017   3.206  10.180  1.0147  0.2255  0.1638
 1683TIP3   OH226463   5.776   6.614   5.907 -0.0397 -0.9015  0.7609
 1683TIP3    H126464   5.709   6.645   5.968 -0.0094  0.3505  0.1792
 1683TIP3    H226465   5.741   6.534   5.870 -1.0741 -0.4258  0.7107
 1684TIP3   OH226466   0.653   5.014  13.518  0.3790  0.0865  0.2966
 1684TIP3    H126467   0.684   5.086  13.464  1.2494  0.8570  1.7765
 1684TIP3    H226468   0.597   4.962  13.461  0.1049  1.6883 -0.9007
 1685TIP3   OH226469   3.019   5.251   2.270  0.1867 -0.5553  0.2341
 1685TIP3    H126470   3.112   5.272   2.273  0.4394 -1.6151 -0.1475
 1685TIP3    H226471   2.977   5.318   2.324  1.0494  0.5822 -0.4941
 1686TIP3   OH226472   5.608   4.482   1.318  0.5328 -0.7131  0.7931
 1686TIP3    H126473   5.590   4.416   1.385 -0.0698 -1.3729 -0.0159
 1686TIP3    H226474   5.543   4.466   1.250  1.7133 -0.6437 -0.3845
 1687TIP3   OH226475   0.986   3.099   5.522 -0.0741  0.0723  0.7265
 1687TIP3    H126476   1.018   3.152   5.449  0.9867 -1.1813  0.2675
 1687TIP3    H226477   0.900   3.067   5.493  0.3305 -0.3986  0.0343
 1688TIP3   OH226478   4.822   1.038  13.398  0.1759  0.1355 -0.3660
 1688TIP3    H126479   4.773   1.087  13.465  1.8528 -1.6994  2.3089
 1688TIP3    H226480   4.754   0.999  13.343 -1.2613  1.3196  0.5237
 1689TIP3   OH226481   4.059   4.058  10.267  0.1246  0.1063  0.0557
 1689TIP3    H126482   4.098   4.101  10.191  1.0415 -0.5490  0.1501
 1689TIP3    H226483   3.987   4.115  10.293  0.5260  0.9165 -0.6034
 1690TIP3   OH226484   0.899   6.483   6.211  0.1858 -0.4175 -0.4516
 1690TIP3    H126485   0.970   6.476   6.275 -1.0239  1.1881  1.1399
 1690TIP3    H226486   0.868   6.393   6.200  0.9970 -0.8409  0.5524
 1691TIP3   OH226487   0.749   4.599   1.624  0.0609  0.5449  0.0051
 1691TIP3    H126488   0.769   4.507   1.643 -2.4248  0.7048  4.2165
 1691TIP3    H226489   0.671   4.596   1.570  1.0359  0.2086 -1.4218
 1692TIP3   OH226490   5.090   3.062  13.179  0.1155 -0.2315 -0.1227
 1692TIP3    H126491   5.079   3.093  13.089  0.5936  0.0442 -0.0927
 1692TIP3    H226492   5.058   3.135  13.233 -2.1607 -1.2397 -0.0894
 1693TIP3   OH226493   5.668   2.464   3.320 -0.3253  0.4627  0.0600
 1693TIP3    H126494   5.589   2.456   3.373 -0.4211 -0.9332 -0.2841
 1693TIP3    H226495   5.657   2.547   3.273 -1.7714  0.0681 -0.3154
 1694TIP3   OH226496   3.430   1.199   1.662  0.3745 -0.4200  0.2701
 1694TIP3    H126497   3.439   1.283   1.617  2.5291 -0.0067  1.4441
 1694TIP3    H226498   3.378   1.219   1.740 -0.7482 -0.5636 -0.4253
 1695TIP3   OH226499   2.817   3.682  14.085  0.4095  0.5460 -0.2111
 1695TIP3    H126500   2.861   3.750  14.137  1.3590  2.1741 -3.0491
 1695TIP3    H226501   2.884   3.652  14.024 -0.0844 -2.7892  0.7610
 1696TIP3   OH226502   1.304   1.892   1.878  0.2200 -0.4998  0.6668
 1696TIP3    H126503   1.340   1.925   1.961 -1.7449  0.1927  1.2811
 1696TIP3    H226504   1.295   1.970   1.823  1.4412 -0.9485 -0.1849
 1697TIP3   OH226505   2.362   3.505  16.459 -0.1644 -0.0644  0.0063
 1697TIP3    H126506   2.401   3.534  16.376 -1.3132  5.8746  1.2629
 1697TIP3    H226507   2.437   3.486  16.515  0.7689  0.8370 -0.8935
 1698TIP3   OH226508   6.359   2.590   3.279 -0.2280  0.2041  0.4562
 1698TIP3    H126509   6.288   2.526   3.275 -0.6022  0.6484 -0.0606
 1698TIP3    H226510   6.409   2.575   3.199  0.4102 -0.2800  0.9457
 1699TIP3   OH226511   0.819   0.244  13.110 -0.1573 -0.2502  0.4616
 1699TIP3    H126512   0.773   0.292  13.040 -0.1778 -2.0814 -0.7982
 1699TIP3    H226513   0.910   0.272  13.102 -0.2800  0.0753  0.1642
 1700TIP3   OH226514   1.864   5.713  14.431  0.4593  0.1921  0.3844
 1700TIP3    H126515   1.780   5.733  14.390 -0.9841 -0.9926  2.6427
 1700TIP3    H226516   1.897   5.797  14.461  0.4422  0.7574 -1.1260
 1701TIP3   OH226517   3.229   2.888  10.830  0.3608  0.4851 -0.8107
 1701TIP3    H126518   3.306   2.832  10.838 -0.0248 -0.2426 -2.0077
 1701TIP3    H226519   3.188   2.861  10.748 -2.2532 -0.4956  0.7311
 1702TIP3   OH226520   0.423   3.832  16.101 -0.0122  0.1519  0.2058
 1702TIP3    H126521   0.499   3.890  16.101 -0.5681  0.9180 -1.0015
 1702TIP3    H226522   0.348   3.891  16.093 -0.4476 -0.7956 -3.8624
 1703TIP3   OH226523   2.319   0.244   2.922  0.3355 -0.0300 -0.3185
 1703TIP3    H126524   2.355   0.296   2.850  0.4342 -1.2844 -1.1872
 1703TIP3    H226525   2.367   0.162   2.919 -0.0421 -0.3012  0.8479
 1704TIP3   OH226526   0.740   4.653  11.387  0.3460  0.2949 -0.3989
 1704TIP3    H126527   0.687   4.653  11.467  0.0085 -2.8878 -0.5508
 1704TIP3    H226528   0.787   4.736  11.389 -0.3988  0.6968  2.6170
 1705TIP3   OH226529   3.837   6.671   2.332 -0.1699 -0.0944  0.0087
 1705TIP3    H126530   3.891   6.726   2.390 -0.4294  1.6763 -1.4006
 1705TIP3    H226531   3.900   6.620   2.282  0.0800 -0.9710  1.1967
 1706TIP3   OH226532   3.395   1.074  17.077 -0.0513  0.0947  0.0049
 1706TIP3    H126533   3.457   1.008  17.046  0.2643  1.0547 -1.4786
 1706TIP3    H226534   3.351   1.104  16.997 -2.1687 -0.3064  0.9944
 1707TIP3   OH226535   4.039   3.900  12.510  0.2342  0.2590  0.1190
 1707TIP3    H126536   4.092   3.966  12.555 -0.0130  1.2882 -1.0488
 1707TIP3    H226537   4.079   3.892  12.423 -0.1840 -0.5897  0.0007
 1708TIP3   OH226538   6.414   2.474   2.670 -0.3512 -0.2736  0.1068
 1708TIP3    H126539   6.394   2.568   2.666  0.7358 -0.0542 -0.2483
 1708TIP3    H226540   6.422   2.447   2.578 -0.7996 -0.7473  0.2037
 1709TIP3   OH226541   3.359   0.394  11.727 -0.2382  0.0570  0.0958
 1709TIP3    H126542   3.428   0.407  11.662  0.7506 -0.6813  0.9809
 1709TIP3    H226543   3.281   0.431  11.686  0.5960  0.5754 -1.0711
 1710TIP3   OH226544   1.279   1.409  14.503 -0.1509  1.0213 -0.4174
 1710TIP3    H126545   1.245   1.340  14.447  0.5805  0.0175  0.3490
 1710TIP3    H226546   1.231   1.399  14.585  3.5640 -2.0041  1.5671
 1711TIP3   OH226547   0.054   1.382   5.308 -0.2285 -0.5160 -0.0402
 1711TIP3    H126548  -0.000   1.444   5.356  1.0112 -0.4984  1.3700
 1711TIP3    H226549   0.143   1.398   5.339  0.3212 -1.9500 -0.7978
 1712TIP3   OH226550   4.117   4.040   4.415  0.1700  0.2640  0.1689
 1712TIP3    H126551   4.102   4.134   4.420  3.1520  0.9095 -1.3556
 1712TIP3    H226552   4.179   4.022   4.486 -0.3588 -0.5558  0.4308
 1713TIP3   OH226553   2.237   4.429   5.448  0.3033  0.5414  0.2803
 1713TIP3    H126554   2.181   4.445   5.373  1.7323 -0.1015 -0.9382
 1713TIP3    H226555   2.325   4.454   5.420  0.9222 -0.0536  1.5981
 1714TIP3   OH226556   0.510   0.930   4.019  0.4537  0.2985 -0.0370
 1714TIP3    H126557   0.548   0.844   4.038 -1.5663 -0.2482  1.7588
 1714TIP3    H226558   0.569   0.992   4.061  0.1021 -0.4540  1.6232
 1715TIP3   OH226559   3.179   2.542  11.087 -0.6729 -0.0675 -0.2828
 1715TIP3    H126560   3.246   2.478  11.063  1.2080  0.5922  2.9446
 1715TIP3    H226561   3.172   2.599  11.010 -0.1189 -2.2662 -1.9939
 1716TIP3   OH226562   5.833   4.773  12.666  0.2418 -0.3004  0.3669
 1716TIP3    H126563   5.882   4.850  12.639  1.5755 -1.8304 -1.6768
 1716TIP3    H226564   5.834   4.716  12.590 -1.7870 -1.8375  1.4423
 1717TIP3   OH226565   6.431   6.104  17.214 -0.2080 -0.6104  0.0281
 1717TIP3    H126566   6.494   6.073  17.278  0.5617  0.7483 -0.0500
 1717TIP3    H226567   6.466   6.075  17.129 -1.3885 -2.6839  0.2055
 1718TIP3   OH226568   2.471   1.459  14.288 -0.0732  0.0539  0.2586
 1718TIP3    H126569   2.390   1.465  14.338  0.4242  1.5640  0.9082
 1718TIP3    H226570   2.442   1.441  14.198 -1.1056  0.2302  0.5456
 1719TIP3   OH226571   2.101   1.948  12.108 -0.4022  0.2736 -0.1525
 1719TIP3    H126572   2.021   1.988  12.073  1.1978  1.5551 -2.4419
 1719TIP3    H226573   2.130   2.008  12.177 -1.7195 -0.5352  1.1554
 1720TIP3   OH226574   2.823   3.965  13.608 -0.4303 -0.3625  0.6071
 1720TIP3    H126575   2.739   3.944  13.567 -0.6265 -1.0606  1.3416
 1720TIP3    H226576   2.871   4.014  13.541 -1.9985  1.3816  0.7152
 1721TIP3   OH226577   2.300   0.802   5.040  0.3227  0.4707  0.4008
 1721TIP3    H126578   2.394   0.818   5.035  0.2194  1.0225  0.2571
 1721TIP3    H226579   2.262   0.854   4.969 -0.1698  0.8510  0.9344
 1722TIP3   OH226580   1.767   4.186  12.790  0.3765  0.2225  0.5675
 1722TIP3    H126581   1.743   4.107  12.742  3.1732  0.5473 -1.5121
 1722TIP3    H226582   1.779   4.157  12.881 -0.9137 -1.2552  0.2764
 1723TIP3   OH226583   4.464   3.086  11.491 -0.2602 -0.1777 -0.7709
 1723TIP3    H126584   4.524   3.026  11.535 -0.5740 -0.0650 -0.1927
 1723TIP3    H226585   4.411   3.030  11.434  0.5748 -0.2495 -1.5030
 1724TIP3   OH226586   3.638   5.289   3.661 -0.6654  0.3047  0.3208
 1724TIP3    H126587   3.573   5.234   3.705 -3.0868  1.4370 -1.7465
 1724TIP3    H226588   3.590   5.332   3.591  2.0680  2.1199 -0.5188
 1725TIP3   OH226589   3.718   3.053  14.226  0.2894 -0.1876  0.2269
 1725TIP3    H126590   3.668   2.974  14.209 -0.5874  0.5493 -0.6379
 1725TIP3    H226591   3.705   3.069  14.320 -2.4747  0.9045 -0.2867
 1726TIP3   OH226592   3.375   1.060  16.765  0.2180 -0.0722  0.0824
 1726TIP3    H126593   3.282   1.043  16.779  0.6297 -1.8092  0.8075
 1726TIP3    H226594   3.401   0.996  16.699  0.8407  0.6120 -0.3490
 1727TIP3   OH226595   0.890   0.859   1.660 -0.4099 -0.0433 -0.5287
 1727TIP3    H126596   0.875   0.953   1.647 -1.4138 -0.3498 -1.6790
 1727TIP3    H226597   0.931   0.830   1.578  0.1854 -0.5531 -0.0525
 1728TIP3   OH226598   5.955   6.414  13.587 -0.1829 -0.6472 -0.1866
 1728TIP3    H126599   5.900   6.492  13.584 -0.7470 -1.0625 -0.9149
 1728TIP3    H226600   6.043   6.445  13.563 -0.8430 -0.5975 -2.7442
 1729TIP3   OH226601   0.063   4.813  11.235  0.4868  0.3237  0.3143
 1729TIP3    H126602   0.107   4.848  11.158  1.8860  0.0320  0.9769
 1729TIP3    H226603   0.098   4.863  11.309  0.0188 -0.1870  0.8970
 1730TIP3   OH226604   2.726   4.914   5.054 -0.1459 -0.2115  0.5790
 1730TIP3    H126605   2.647   4.860   5.042  0.3151 -0.7397 -0.1310
 1730TIP3    H226606   2.736   4.960   4.971  1.1736 -1.3368  0.0846
 1731TIP3   OH226607   6.155   6.746  15.606  0.0721 -0.0739  0.4871
 1731TIP3    H126608   6.158   6.831  15.650 -1.4958 -0.6461  1.7636
 1731TIP3    H226609   6.139   6.684  15.677  2.1195 -1.5573 -0.3028
 1732TIP3   OH226610   2.294   4.308  15.180  0.1860 -0.6835 -0.3346
 1732TIP3    H126611   2.379   4.344  15.206 -0.8155  1.3184  0.3204
 1732TIP3    H226612   2.295   4.310  15.085  0.0245  1.5015 -0.3234
 1733TIP3   OH226613   2.608   4.166   1.822 -0.4329 -0.0043 -0.0301
 1733TIP3    H126614   2.564   4.201   1.900 -0.6337  1.3034 -0.7256
 1733TIP3    H226615   2.537   4.134   1.767 -0.3133 -0.5501  0.1237
 1734TIP3   OH226616   5.956   6.425  12.004  0.0789  0.7858 -1.0881
 1734TIP3    H126617   6.017   6.454  11.936 -1.1107 -0.2067 -2.5951
 1734TIP3    H226618   5.997   6.347  12.041  2.3693  3.1692  1.6979
 1735TIP3   OH226619   0.878   3.378  16.182 -0.1946 -0.8014 -0.3615
 1735TIP3    H126620   0.825   3.441  16.231  0.8620  0.3397 -0.6737
 1735TIP3    H226621   0.835   3.372  16.097 -1.8471 -2.5471  0.5551
 1736TIP3   OH226622   5.296   5.796   0.131  0.2239 -0.0535 -0.0552
 1736TIP3    H126623   5.222   5.813   0.189  0.3438  0.9564 -0.1924
 1736TIP3    H226624   5.273   5.714   0.087  0.1058 -0.7930  1.3500
 1737TIP3   OH226625   2.767   4.318  12.575  0.1875  0.7449 -0.5691
 1737TIP3    H126626   2.779   4.237  12.625  1.4161  0.9996 -0.4372
 1737TIP3    H226627   2.696   4.364  12.619  2.1734  1.6377  1.8277
 1738TIP3   OH226628   2.186   3.623  11.282  0.1397  0.4208  0.1988
 1738TIP3    H126629   2.132   3.544  11.283 -1.2599  1.3777  0.6007
 1738TIP3    H226630   2.264   3.596  11.233 -1.0963 -0.7156 -1.2325
 1739TIP3   OH226631   4.633   0.837   0.227  0.1663 -0.0461  0.1318
 1739TIP3    H126632   4.571   0.889   0.278  1.6446  1.7220  0.1810
 1739TIP3    H226633   4.647   0.758   0.280 -1.7710 -0.3275  0.2659
 1740TIP3   OH226634   1.919   2.953   0.655  0.0573 -0.4821  0.2174
 1740TIP3    H126635   1.926   3.047   0.672 -1.4474 -0.1126 -1.1151
 1740TIP3    H226636   1.954   2.942   0.566 -1.0866 -0.9585 -0.1854
 1741TIP3   OH226637   5.528   2.984  10.647  0.9065 -0.5739  0.1613
 1741TIP3    H126638   5.586   3.055  10.620  1.1297  0.3193  2.8504
 1741TIP3    H226639   5.471   2.969  10.572  3.4178 -0.2313 -1.8754
 1742TIP3   OH226640   6.033   4.924   4.959  0.6231  0.3335 -0.2277
 1742TIP3    H126641   6.063   4.941   4.870  0.3895 -2.4238 -0.8658
 1742TIP3    H226642   6.112   4.899   5.007  0.8347  2.2970  0.5096
 1743TIP3   OH226643   5.056   4.485   0.760  0.2618  0.3856  0.1613
 1743TIP3    H126644   5.062   4.490   0.664 -0.0095 -0.2241  0.1093
 1743TIP3    H226645   5.025   4.571   0.786 -0.8900  0.1630 -0.4100
 1744TIP3   OH226646   2.127   6.442   1.743 -1.0752 -0.0485  0.0321
 1744TIP3    H126647   2.094   6.387   1.672  0.8025 -0.1502 -0.7924
 1744TIP3    H226648   2.066   6.426   1.816 -1.7015 -1.6960 -0.8156
 1745TIP3   OH226649   4.082   4.460  14.288 -0.2152 -0.0237 -0.0755
 1745TIP3    H126650   4.124   4.374  14.291 -0.9817 -0.3970  0.1774
 1745TIP3    H226651   4.066   4.475  14.195  1.0787  0.4274 -0.2409
 1746TIP3   OH226652   1.871   3.333  12.505 -0.4850  0.2821 -0.0561
 1746TIP3    H126653   1.933   3.288  12.563  0.2948  2.4934  0.8807
 1746TIP3    H226654   1.910   3.325  12.418 -1.0503 -2.0014 -0.1425
 1747TIP3   OH226655   0.253   4.856   0.155 -0.7000 -0.3964  0.2535
 1747TIP3    H126656   0.213   4.923   0.100 -0.6286 -0.4383  0.1490
 1747TIP3    H226657   0.188   4.838   0.223 -1.2867 -1.1941 -0.5026
 1748TIP3   OH226658   2.639   6.702  14.218  0.4381  0.2258  0.0906
 1748TIP3    H126659   2.585   6.737  14.289  0.8901  0.4655  0.3229
 1748TIP3    H226660   2.590   6.627  14.185 -0.5926  1.1255 -0.4667
 1749TIP3   OH226661   2.779   5.437  16.560 -0.2640  0.1168  0.1946
 1749TIP3    H126662   2.720   5.402  16.493  0.0910 -3.2380  1.5358
 1749TIP3    H226663   2.728   5.433  16.641  1.0230 -0.8149  0.9946
 1750TIP3   OH226664   6.307   1.857  15.823 -0.2531  0.5951  0.5005
 1750TIP3    H126665   6.219   1.882  15.797 -0.7355 -0.2034  1.3297
 1750TIP3    H226666   6.302   1.762  15.835  1.4606  0.0905 -2.3083
 1751TIP3   OH226667   5.223   4.244   5.160 -0.1439  0.1636 -0.4522
 1751TIP3    H126668   5.203   4.205   5.075  1.8807  0.5810 -1.1392
 1751TIP3    H226669   5.233   4.338   5.142  1.8193  0.0545 -0.0459
 1752TIP3   OH226670   3.867   2.556  15.731  0.1887 -0.5720 -0.0147
 1752TIP3    H126671   3.854   2.592  15.643 -0.3174 -1.1232 -0.1626
 1752TIP3    H226672   3.795   2.494  15.743  1.0120 -1.4755  0.2839
 1753TIP3   OH226673   2.713   6.682  13.459  0.2077 -0.2648 -0.2679
 1753TIP3    H126674   2.680   6.592  13.459  0.3174 -0.3051 -0.0759
 1753TIP3    H226675   2.792   6.679  13.514  0.8321 -0.2830 -1.1634
 1754TIP3   OH226676   6.286   2.229  11.533 -0.4488  0.2366 -0.1116
 1754TIP3    H126677   6.317   2.298  11.593 -2.3726  1.2398 -0.2375
 1754TIP3    H226678   6.334   2.245  11.452  0.0210  0.6715  0.2444
 1755TIP3   OH226679   3.614   6.148  11.919 -0.5916  0.0529  0.0302
 1755TIP3    H126680   3.617   6.086  11.991  0.2884 -1.9263 -1.6591
 1755TIP3    H226681   3.679   6.116  11.857 -1.1706  1.8288 -1.5493
 1756TIP3   OH226682   6.509   2.162   1.407  0.0975 -0.6115  0.0717
 1756TIP3    H126683   6.582   2.213   1.371 -0.1181 -0.8039 -0.6443
 1756TIP3    H226684   6.531   2.152   1.500  0.5028  0.1573  0.0682
 1757TIP3   OH226685   2.941   6.669   3.863 -0.2598  0.1896  0.4406
 1757TIP3    H126686   2.934   6.589   3.914  0.2332  0.4790  0.9656
 1757TIP3    H226687   2.882   6.656   3.789 -1.0232 -0.2090  1.1132
 1758TIP3   OH226688   1.758   6.743  11.103 -0.2615  0.2008  0.2952
 1758TIP3    H126689   1.815   6.719  11.030  0.0383 -1.0406  0.9340
 1758TIP3    H226690   1.817   6.780  11.168 -0.6179  1.9935 -0.3566
 1759TIP3   OH226691   1.317   1.426  11.856 -0.4233  0.0690  0.2466
 1759TIP3    H126692   1.308   1.450  11.764  1.3538  1.2058  0.3472
 1759TIP3    H226693   1.235   1.454  11.896 -0.5612  1.0579 -0.6876
 1760TIP3   OH226694   2.705   6.263   5.481  0.2300 -0.5432 -0.2219
 1760TIP3    H126695   2.692   6.347   5.525 -1.5325 -0.8577 -0.0835
 1760TIP3    H226696   2.694   6.282   5.388 -0.0079 -0.5761 -0.2026
 1761TIP3   OH226697   2.792   4.553   4.031 -0.0055 -0.3308 -0.0835
 1761TIP3    H126698   2.870   4.608   4.037 -1.7505  2.4759 -2.1373
 1761TIP3    H226699   2.822   4.474   3.986  1.2891  1.5606 -2.6684
 1762TIP3   OH226700   2.388   3.350  13.062  0.2826 -0.3823 -0.4258
 1762TIP3    H126701   2.431   3.361  12.978 -1.2027 -0.4171 -1.2139
 1762TIP3    H226702   2.330   3.275  13.050  0.6741 -0.9214  0.8908
 1763TIP3   OH226703   6.754   0.349   4.724  0.2526 -0.1426 -0.0908
 1763TIP3    H126704   6.813   0.357   4.799 -0.2908  0.1505  0.3121
 1763TIP3    H226705   6.812   0.334   4.649  0.7672 -1.0213  0.4711
 1764TIP3   OH226706   2.384   4.779  16.753 -0.4310  0.4838  0.8911
 1764TIP3    H126707   2.478   4.773  16.769  0.0069  1.3768 -1.2158
 1764TIP3    H226708   2.358   4.689  16.730 -0.3830 -0.0401  2.7727
 1765TIP3   OH226709   5.717   3.829  12.196 -0.3806 -0.2320  0.2422
 1765TIP3    H126710   5.721   3.873  12.281 -1.7493  0.7633 -0.1908
 1765TIP3    H226711   5.623   3.818  12.179 -0.0947 -1.4962 -0.6024
 1766TIP3   OH226712   6.364   0.074   2.910  0.6504  0.5857 -0.0369
 1766TIP3    H126713   6.354   0.136   2.983  0.6192  0.0044  0.4614
 1766TIP3    H226714   6.320   0.117   2.836 -0.5494  0.5813  0.6526
 1767TIP3   OH226715   1.606   0.631  16.021  0.0431 -0.3474  0.1223
 1767TIP3    H126716   1.682   0.665  15.973  0.4904 -1.2905  0.1622
 1767TIP3    H226717   1.643   0.577  16.090 -0.6337  0.2682  0.9796
 1768TIP3   OH226718   1.124   6.532   5.198  0.1410 -0.1268  0.3686
 1768TIP3    H126719   1.199   6.481   5.167  0.0666 -1.3184  2.0625
 1768TIP3    H226720   1.056   6.466   5.212 -0.0868  0.4757  2.1936
 1769TIP3   OH226721   5.225   5.514   5.064 -0.7416  0.8358 -0.1151
 1769TIP3    H126722   5.281   5.446   5.102 -1.5447 -0.0607 -0.5306
 1769TIP3    H226723   5.286   5.573   5.020 -0.1378 -0.2966 -0.8175
 1770TIP3   OH226724   1.573   2.546   1.000  0.4949 -0.3238 -0.6912
 1770TIP3    H126725   1.646   2.533   1.061  1.1923 -1.4320 -1.7235
 1770TIP3    H226726   1.533   2.459   0.992  1.3933 -0.5714 -2.9832
 1771TIP3   OH226727   3.133   2.406  16.102  0.1414 -0.4846 -0.4637
 1771TIP3    H126728   3.148   2.499  16.115  1.5441 -0.9542  1.5425
 1771TIP3    H226729   3.194   2.381  16.033  1.2805 -0.3297  0.4815
 1772TIP3   OH226730   4.146   5.137  16.090 -0.1188 -0.5427  0.3651
 1772TIP3    H126731   4.135   5.062  16.148  2.3390  1.0078  2.9924
 1772TIP3    H226732   4.218   5.187  16.129 -0.3559  2.1363 -2.4174
 1773TIP3   OH226733   4.330   0.836   4.909  0.4422 -0.2571  0.3159
 1773TIP3    H126734   4.351   0.865   4.997  0.9547 -0.9461  0.4303
 1773TIP3    H226735   4.409   0.855   4.858 -1.0512  3.3403 -0.8210
 1774TIP3   OH226736   3.335   2.025  12.279  0.1106 -0.7013 -0.6506
 1774TIP3    H126737   3.317   2.076  12.200 -0.8951 -0.2923 -0.1694
 1774TIP3    H226738   3.249   1.997  12.310  0.3843  0.1473  0.9537
 1775TIP3   OH226739   3.039   2.737   4.510  0.0692  0.6463 -0.2276
 1775TIP3    H126740   3.053   2.729   4.605 -0.6951  3.5476  0.1612
 1775TIP3    H226741   3.109   2.684   4.472  2.2342  1.8134  1.9414
 1776TIP3   OH226742   5.021   0.574   5.257  0.5069 -0.2929 -0.4173
 1776TIP3    H126743   4.981   0.661   5.257 -0.6572 -0.8265 -0.1579
 1776TIP3    H226744   5.012   0.544   5.166 -0.4034 -0.7456 -0.1763
 1777TIP3   OH226745   5.625   0.508   1.693 -0.2745 -0.6153 -0.1965
 1777TIP3    H126746   5.685   0.470   1.758 -0.9961 -1.6868 -0.1486
 1777TIP3    H226747   5.631   0.602   1.708  1.4481 -0.6943 -0.2386
 1778TIP3   OH226748   6.451   3.255  11.066 -0.5112 -0.3097  0.1047
 1778TIP3    H126749   6.507   3.278  11.141  1.2823 -0.7084 -1.0788
 1778TIP3    H226750   6.455   3.332  11.009 -0.3768 -0.7256 -0.4486
 1779TIP3   OH226751   5.527   5.272  12.060 -0.0139 -0.0253 -0.0656
 1779TIP3    H126752   5.454   5.210  12.054  0.2791 -0.2712 -1.3088
 1779TIP3    H226753   5.543   5.281  12.153 -1.9905  0.4543  0.2641
 1780TIP3   OH226754   0.001   3.754  14.916  0.0019  0.6098 -0.7742
 1780TIP3    H126755   0.022   3.696  14.843 -2.4675 -1.2766 -0.0362
 1780TIP3    H226756   0.020   3.703  14.995 -1.1311  1.1784 -0.1089
 1781TIP3   OH226757   5.618   5.500  12.895  0.4455 -0.3396 -0.8217
 1781TIP3    H126758   5.586   5.462  12.813 -1.3688  0.4141 -0.4827
 1781TIP3    H226759   5.670   5.576  12.868 -1.0107  0.5278 -1.2521
 1782TIP3   OH226760   1.825   3.951   0.412  0.2870 -0.7738  0.3473
 1782TIP3    H126761   1.826   3.986   0.323  1.2931  1.0226  1.0192
 1782TIP3    H226762   1.901   3.893   0.417  0.4419 -0.5917  0.1255
 1783TIP3   OH226763   3.674   4.613  13.984 -0.4027 -0.8993 -0.1037
 1783TIP3    H126764   3.661   4.696  14.029  3.5354 -0.5057  0.4868
 1783TIP3    H226765   3.708   4.554  14.052  1.0426 -1.6884 -1.4706
 1784TIP3   OH226766   1.171   1.526   0.545  0.6223  0.3154  0.2355
 1784TIP3    H126767   1.173   1.431   0.536 -1.0971  0.3074 -0.1237
 1784TIP3    H226768   1.229   1.557   0.475 -0.7017 -0.3767 -1.1865
 1785TIP3   OH226769   5.598   0.884  14.358 -0.4077 -0.9331 -0.4255
 1785TIP3    H126770   5.625   0.899  14.268  0.5328  2.4299  0.3514
 1785TIP3    H226771   5.506   0.859  14.352 -1.0301  1.5935 -2.1902
 1786TIP3   OH226772   4.670   5.398   5.817  0.1167  0.5566  0.2887
 1786TIP3    H126773   4.739   5.416   5.882 -0.3405  0.5483  0.7822
 1786TIP3    H226774   4.684   5.306   5.793  1.1596  0.9632 -0.6769
 1787TIP3   OH226775   6.327   3.250  15.444 -0.5169  0.1554  0.4279
 1787TIP3    H126776   6.295   3.312  15.378  1.9444  1.2014  0.1734
 1787TIP3    H226777   6.414   3.283  15.467  0.7123 -3.0391  0.5115
 1788TIP3   OH226778   2.746   4.585   4.314  0.2114  0.1890 -0.1580
 1788TIP3    H126779   2.752   4.592   4.219  2.0777 -0.0979 -0.0804
 1788TIP3    H226780   2.818   4.527   4.339 -0.0118  0.5695  1.4652
 1789TIP3   OH226781   1.164   1.466   2.209 -0.2393  0.3601  0.3120
 1789TIP3    H126782   1.091   1.404   2.203 -1.5030  1.5814  2.3557
 1789TIP3    H226783   1.141   1.535   2.148 -0.5781  0.5063  0.5994
 1790TIP3   OH226784   1.807   3.069  12.609 -0.7858  0.9547  0.2528
 1790TIP3    H126785   1.805   3.158  12.573  0.3330  1.1330  0.6162
 1790TIP3    H226786   1.883   3.068  12.666 -2.3497  0.5854  2.4005
 1791TIP3   OH226787   2.338   2.665   6.209 -0.0517 -0.2510 -0.1562
 1791TIP3    H126788   2.369   2.724   6.278 -0.9299  0.2878 -0.2191
 1791TIP3    H226789   2.403   2.595   6.207 -0.5530 -0.8281  1.9483
 1792TIP3   OH226790   5.603   0.410  14.070  0.1886 -0.3055 -0.1744
 1792TIP3    H126791   5.661   0.410  13.994 -0.1137  0.2445 -0.4154
 1792TIP3    H226792   5.543   0.337  14.055 -0.2986  0.2135 -0.8106
 1793TIP3   OH226793   6.509   1.630  15.332 -0.4274 -0.0762 -0.0006
 1793TIP3    H126794   6.551   1.546  15.347 -1.1443 -0.3969  0.2354
 1793TIP3    H226795   6.465   1.650  15.415  1.0160  1.2703  0.4611
 1794TIP3   OH226796   4.566   0.397   3.894 -0.0360 -0.0441 -0.4792
 1794TIP3    H126797   4.639   0.459   3.890  0.3355 -0.4722 -0.4670
 1794TIP3    H226798   4.492   0.444   3.855  0.2252  0.4253 -0.4137
 1795TIP3   OH226799   5.881   1.361   0.988  0.1091  0.0804 -0.1583
 1795TIP3    H126800   5.967   1.386   1.021  0.0751  1.5912 -1.1731
 1795TIP3    H226801   5.898   1.284   0.934  0.6099 -0.4870  0.7942
 1796TIP3   OH226802   6.598   2.148  12.189  0.6870  0.3086 -0.0709
 1796TIP3    H126803   6.593   2.164  12.283 -0.3061 -0.1486 -0.0347
 1796TIP3    H226804   6.652   2.219  12.155  1.4321  0.2252  0.9038
 1797TIP3   OH226805   5.212   0.027   5.953  0.3432  0.5332 -0.1664
 1797TIP3    H126806   5.243   0.011   6.043 -0.9176  1.8077  0.5226
 1797TIP3    H226807   5.117   0.033   5.961  0.0153 -1.6636 -1.9938
 1798TIP3   OH226808   6.108   6.132   3.264 -0.3048  0.3297 -0.5104
 1798TIP3    H126809   6.017   6.157   3.278 -0.8546 -0.8382 -1.9045
 1798TIP3    H226810   6.133   6.087   3.344 -0.3794  2.2048  0.6037
 1799TIP3   OH226811   5.922   5.025   4.266  0.6184 -0.3586  0.4810
 1799TIP3    H126812   5.859   4.968   4.312 -0.1985 -2.0814 -2.6347
 1799TIP3    H226813   5.875   5.107   4.255 -0.0475 -0.7050  0.6657
 1800TIP3   OH226814   5.623   3.005   4.770 -0.0223 -0.1834 -0.2270
 1800TIP3    H126815   5.634   3.100   4.779  2.0449 -0.4853  0.7189
 1800TIP3    H226816   5.591   2.993   4.680 -1.0116  1.4437 -0.1227
 1801TIP3   OH226817   1.503   4.628  14.366  0.1874  0.1492 -0.3655
 1801TIP3    H126818   1.588   4.670  14.360  0.4767 -0.3453  0.1362
 1801TIP3    H226819   1.442   4.699  14.386  0.4098  0.5695 -1.1508
 1802TIP3   OH226820   2.766   5.484  14.147  1.0949 -0.0947  0.3867
 1802TIP3    H126821   2.683   5.475  14.193  0.8536 -1.5613 -0.3053
 1802TIP3    H226822   2.820   5.540  14.204 -0.1951  0.4925  1.0398
 1803TIP3   OH226823   2.084   6.077  15.974  0.4843  0.1271 -0.2640
 1803TIP3    H126824   2.000   6.081  16.019  0.8895 -0.2268  0.5497
 1803TIP3    H226825   2.119   6.166  15.978  1.9356 -0.5034  2.9546
 1804TIP3   OH226826   4.275   2.389   2.233 -0.1906  0.0875 -0.3080
 1804TIP3    H126827   4.188   2.375   2.271  0.5737 -2.0296  0.7890
 1804TIP3    H226828   4.258   2.421   2.144 -2.0983 -1.0225 -0.3715
 1805TIP3   OH226829   1.235   4.114   0.732  0.0335 -0.2835  0.3333
 1805TIP3    H126830   1.302   4.047   0.750  1.0432  0.5224 -0.3906
 1805TIP3    H226831   1.282   4.197   0.738 -0.4227  0.1957 -2.2114
 1806TIP3   OH226832   4.315   6.229   4.659 -0.7821  0.0832 -0.8906
 1806TIP3    H126833   4.247   6.263   4.600 -2.0669 -1.7514 -0.5167
 1806TIP3    H226834   4.345   6.306   4.708 -1.3799  1.2083 -2.2678
 1807TIP3   OH226835   2.621   5.104  16.618  0.0392  0.0290  0.2806
 1807TIP3    H126836   2.707   5.120  16.578  0.2110 -0.6814  0.3586
 1807TIP3    H226837   2.587   5.027  16.571 -0.0562 -0.3913  1.0379
 1808TIP3   OH226838   2.482   2.719  16.154 -0.1808  0.0901 -0.5783
 1808TIP3    H126839   2.497   2.732  16.247  0.5319 -0.1124 -0.6622
 1808TIP3    H226840   2.513   2.800  16.113  2.0036 -0.8730 -0.8830
 1809TIP3   OH226841   3.543   1.433   2.927 -0.3375 -0.3372 -0.3225
 1809TIP3    H126842   3.629   1.475   2.916 -0.1194  0.0045  2.2332
 1809TIP3    H226843   3.487   1.502   2.963 -1.9867 -0.2944 -2.8812
 1810TIP3   OH226844   6.143   1.156   0.145 -0.2145 -0.3082  0.1814
 1810TIP3    H126845   6.157   1.063   0.125  0.1649  0.0288 -1.1540
 1810TIP3    H226846   6.059   1.177   0.102  0.1689  0.1950 -0.3354
 1811TIP3   OH226847   6.340   4.531   2.266  0.3748  0.0141 -0.6780
 1811TIP3    H126848   6.370   4.503   2.352 -0.6372  1.8559  0.3259
 1811TIP3    H226849   6.254   4.491   2.256 -1.2063  2.7977  0.8879
 1812TIP3   OH226850   1.954   5.165  12.049  0.0144  1.0573 -0.3004
 1812TIP3    H126851   2.037   5.159  12.095 -0.2478 -2.9661 -0.2495
 1812TIP3    H226852   1.889   5.134  12.112 -1.2584  2.0854 -1.0692
 1813TIP3   OH226853   6.274   5.215   3.496  0.3731  0.1932 -0.6608
 1813TIP3    H126854   6.365   5.190   3.511  0.0991 -0.4843 -0.0849
 1813TIP3    H226855   6.272   5.309   3.518  0.8904  0.1682 -0.4807
 1814TIP3   OH226856   1.995   0.643   5.788  0.4694 -0.3857  0.0985
 1814TIP3    H126857   1.922   0.623   5.730 -0.5295  0.8442  0.9249
 1814TIP3    H226858   2.065   0.674   5.730 -0.9192  1.9787 -0.3605
 1815TIP3   OH226859   6.751   1.985  11.495  0.2766 -0.3644  0.0889
 1815TIP3    H126860   6.754   1.906  11.548 -0.0816 -0.2161  0.3321
 1815TIP3    H226861   6.771   1.956  11.406  0.8493 -0.6159  0.3034
 1816TIP3   OH226862   1.877   4.712   3.294 -0.1774 -0.0857 -0.0013
 1816TIP3    H126863   1.907   4.631   3.336 -0.3702 -0.0438  0.2179
 1816TIP3    H226864   1.849   4.768   3.366 -0.2220  0.1051 -0.1648
 1817TIP3   OH226865   6.008   6.434  16.510 -0.1235 -0.2618  0.4678
 1817TIP3    H126866   6.063   6.443  16.432  1.2066 -1.5894  1.2274
 1817TIP3    H226867   5.924   6.471  16.484  0.5623  0.0968 -1.3295
 1818TIP3   OH226868   4.995   2.161   4.643 -0.4854  0.3258 -0.5371
 1818TIP3    H126869   5.090   2.169   4.651 -0.4178  0.6243 -1.5306
 1818TIP3    H226870   4.960   2.204   4.720  0.1403  1.9556 -1.1434
 1819TIP3   OH226871   0.419   0.733  15.037 -0.0151 -0.0802 -0.0899
 1819TIP3    H126872   0.443   0.746  15.129 -0.4105  0.9993 -0.1254
 1819TIP3    H226873   0.337   0.782  15.027  0.0278 -0.1932 -1.0186
 1820TIP3   OH226874   5.517   5.503   2.674 -0.4089  0.5470 -0.2807
 1820TIP3    H126875   5.569   5.425   2.656 -0.1044  0.7909 -0.4603
 1820TIP3    H226876   5.537   5.524   2.765  0.5397  1.1925 -0.6334
 1821TIP3   OH226877   6.444   1.347  15.835 -0.7081  0.2350  0.2286
 1821TIP3    H126878   6.482   1.312  15.916 -0.8110 -0.2968  0.0457
 1821TIP3    H226879   6.519   1.381  15.786 -0.4126 -1.1574 -0.3017
 1822TIP3   OH226880   4.386   6.524  12.724  0.0288  0.8596 -0.2506
 1822TIP3    H126881   4.455   6.467  12.690 -2.2882 -1.3841 -1.3540
 1822TIP3    H226882   4.396   6.519  12.819  1.2762  0.4362 -0.3888
 1823TIP3   OH226883   3.066   4.784  14.318 -0.2815 -0.4375  0.7568
 1823TIP3    H126884   2.983   4.740  14.298  0.0163 -1.3566  1.5162
 1823TIP3    H226885   3.052   4.823  14.404 -0.7663  1.5464 -0.1747
 1824TIP3   OH226886   4.279   6.008   2.786  0.3207  0.7277 -0.4210
 1824TIP3    H126887   4.348   5.956   2.747 -0.1621 -1.9340  2.0369
 1824TIP3    H226888   4.199   5.958   2.770 -0.1853  0.7319  1.8470
 1825TIP3   OH226889   3.728   0.291   2.178 -0.1964  0.3597 -0.1184
 1825TIP3    H126890   3.664   0.347   2.134 -1.5405 -1.6206 -0.7774
 1825TIP3    H226891   3.794   0.272   2.111  0.5832  1.6241  0.2814
 1826TIP3   OH226892   3.254   3.484   4.370 -0.0739 -0.3518  0.3260
 1826TIP3    H126893   3.203   3.445   4.299 -0.2162 -0.0153  0.2421
 1826TIP3    H226894   3.258   3.416   4.437  1.5097 -1.3177 -0.6944
 1827TIP3   OH226895   0.392   3.593   2.142 -0.4956  0.4414  0.1684
 1827TIP3    H126896   0.328   3.649   2.099  0.1690  1.1706  0.1262
 1827TIP3    H226897   0.343   3.551   2.214 -1.0741  0.8052 -0.0143
 1828TIP3   OH226898   4.432   0.022  11.741  0.6938  0.0324 -0.2132
 1828TIP3    H126899   4.408   0.040  11.831  0.6528  1.1100 -0.4338
 1828TIP3    H226900   4.365   0.066  11.689  0.1665 -1.3795 -0.7656
 1829TIP3   OH226901   5.222   3.083  10.563 -0.3266 -0.4635 -0.5913
 1829TIP3    H126902   5.216   3.096  10.469 -0.3040  1.4228 -0.3449
 1829TIP3    H226903   5.255   2.993  10.573  0.3162 -0.4352 -2.3770
 1830TIP3   OH226904   5.221   5.980  15.565  0.1826 -0.3950 -0.4207
 1830TIP3    H126905   5.184   5.904  15.520  1.3725  0.1460 -2.3986
 1830TIP3    H226906   5.315   5.976  15.545  0.1351  2.0850 -1.3867
 1831TIP3   OH226907   1.137   5.097  16.514 -0.0491  0.5850 -0.2145
 1831TIP3    H126908   1.144   5.004  16.537  0.7191  1.0146  1.3488
 1831TIP3    H226909   1.166   5.101  16.423 -1.4874 -0.9076 -0.7697
 1832TIP3   OH226910   6.409   6.269  14.498  0.1697  0.2686  0.7176
 1832TIP3    H126911   6.464   6.291  14.423  0.6474 -1.2811  0.5950
 1832TIP3    H226912   6.467   6.218  14.556 -0.5127  0.4859  1.6126
 1833TIP3   OH226913   0.994   2.404   1.769  0.0860  0.3015 -0.1412
 1833TIP3    H126914   1.072   2.451   1.801  0.1978 -0.7566  1.1836
 1833TIP3    H226915   0.946   2.380   1.848 -0.8499 -0.3209 -0.8834
 1834TIP3   OH226916   5.497   6.434  14.258 -0.2037 -0.3627 -0.0376
 1834TIP3    H126917   5.531   6.514  14.216  0.8807 -0.2876  0.9590
 1834TIP3    H226918   5.482   6.459  14.349 -0.3150 -1.1682  0.1664
 1835TIP3   OH226919   4.667   1.794  15.191  0.2913  0.1861 -0.2370
 1835TIP3    H126920   4.730   1.813  15.121 -0.6619  2.1174 -0.6032
 1835TIP3    H226921   4.582   1.815  15.153 -0.3561 -0.0991  1.0400
 1836TIP3   OH226922   1.606   4.106   6.754 -0.0940 -0.1178  0.3528
 1836TIP3    H126923   1.514   4.090   6.774 -0.9830  0.6719 -2.7835
 1836TIP3    H226924   1.615   4.201   6.753  0.6566 -0.1814  0.1805
 1837TIP3   OH226925   0.160   0.857   6.028 -0.4306 -0.1721  0.0460
 1837TIP3    H126926   0.096   0.787   6.037 -0.9446  0.2602 -0.2539
 1837TIP3    H226927   0.240   0.812   6.001 -0.6736 -0.6799  0.1567
 1838TIP3   OH226928   4.161   3.782   4.026 -0.4942 -0.5185 -0.2201
 1838TIP3    H126929   4.180   3.734   4.106 -0.7267  1.5022  1.0945
 1838TIP3    H226930   4.128   3.867   4.056 -1.0748  0.0898 -2.4533
 1839TIP3   OH226931   0.817   1.445   3.514  0.4876 -0.7328  0.1266
 1839TIP3    H126932   0.862   1.442   3.598 -1.2431 -0.0851  1.0988
 1839TIP3    H226933   0.733   1.402   3.530 -0.7979  1.4071 -0.6655
 1840TIP3   OH226934   5.100   1.458   3.107 -0.5834  0.1297  0.1044
 1840TIP3    H126935   5.066   1.382   3.060  1.2055 -1.0962  0.7266
 1840TIP3    H226936   5.036   1.475   3.176 -1.0439 -0.7644 -0.0996
 1841TIP3   OH226937   5.245   0.439  15.203 -0.4229 -0.3471 -0.0319
 1841TIP3    H126938   5.331   0.480  15.209 -0.9825  0.6437  1.2823
 1841TIP3    H226939   5.202   0.484  15.129 -0.2318 -0.0682  0.0270
 1842TIP3   OH226940   5.903   1.683  15.686 -0.0459  0.5009  0.6140
 1842TIP3    H126941   5.844   1.664  15.613  2.4186 -0.5046 -1.2091
 1842TIP3    H226942   5.893   1.608  15.745  0.3731 -0.3370 -0.3589
 1843TIP3   OH226943   3.432   0.000  15.637 -0.1188  0.0677 -0.2996
 1843TIP3    H126944   3.448  -0.083  15.682  0.8517 -0.9202 -2.3976
 1843TIP3    H226945   3.450   0.067  15.703 -0.7572 -1.3782  1.3776
 1844TIP3   OH226946   1.126   1.620  11.296 -0.6568  0.1423 -0.0901
 1844TIP3    H126947   1.069   1.631  11.219  1.7043  2.1303 -1.6329
 1844TIP3    H226948   1.201   1.572  11.263  0.6609  1.5436  0.8276
 1845TIP3   OH226949   1.847   0.259   3.529 -0.2598  0.6199  0.2119
 1845TIP3    H126950   1.793   0.335   3.554 -1.3494  0.0328 -0.3105
 1845TIP3    H226951   1.935   0.295   3.519 -0.8649  1.9406 -0.5896
 1846TIP3   OH226952   0.757   3.286  17.016  0.0332 -0.1583 -0.1305
 1846TIP3    H126953   0.713   3.208  17.050 -0.4824  0.2841  0.2162
 1846TIP3    H226954   0.733   3.288  16.924 -1.3749  0.5663  0.2526
 1847TIP3   OH226955   4.865   0.799  15.180  0.6912 -0.5733  0.1434
 1847TIP3    H126956   4.845   0.715  15.140 -0.8944  0.4178 -1.2329
 1847TIP3    H226957   4.845   0.863  15.112 -1.3984  1.1225  2.2627
 1848TIP3   OH226958   2.940   0.932   1.061 -0.3313 -1.0070  0.1995
 1848TIP3    H126959   2.969   0.912   0.972  1.2936 -4.0511  1.3367
 1848TIP3    H226960   3.015   0.976   1.101 -0.9159  0.0050  0.1889
 1849TIP3   OH226961   2.464   0.134   0.005 -0.1060  0.5845 -0.4391
 1849TIP3    H126962   2.471   0.045   0.038  2.2548  0.7466 -0.4163
 1849TIP3    H226963   2.370   0.151   0.001 -0.5600 -1.6209  0.2856
 1850TIP3   OH226964   4.680   0.198  15.663  0.5941  0.5937 -0.0858
 1850TIP3    H126965   4.752   0.173  15.606 -1.2010 -0.3475 -2.0322
 1850TIP3    H226966   4.687   0.294  15.670  1.3926  0.6187 -1.1568
 1851TIP3   OH226967   6.656   4.714   5.271  0.0207 -0.1815 -0.3709
 1851TIP3    H126968   6.663   4.809   5.268  0.3342 -0.2399 -1.6968
 1851TIP3    H226969   6.601   4.690   5.197  0.4640 -1.0737 -0.4335
 1852TIP3   OH226970   0.534   2.561  13.217 -0.5120  0.1041 -0.7068
 1852TIP3    H126971   0.518   2.636  13.159 -1.7782 -0.0531 -0.5702
 1852TIP3    H226972   0.583   2.499  13.162  0.5937  1.0395 -0.8030
 1853TIP3   OH226973   2.733   3.997  11.638  0.5582  0.0076  0.0473
 1853TIP3    H126974   2.752   4.019  11.729  0.1838 -0.7990  0.3256
 1853TIP3    H226975   2.716   4.082  11.596 -1.1855  0.2475  1.1727
 1854TIP3   OH226976   2.020   0.125  14.247  0.2938  0.2426 -0.0202
 1854TIP3    H126977   1.999   0.080  14.329 -0.1919 -0.1438 -0.3545
 1854TIP3    H226978   1.935   0.158  14.215  0.4597  0.2493 -0.4528
 1855TIP3   OH226979   2.377   0.162   1.478  0.3733 -0.7693  0.5731
 1855TIP3    H126980   2.285   0.161   1.451  1.2472 -0.0135 -2.6531
 1855TIP3    H226981   2.375   0.194   1.568 -2.6896 -2.8865  1.3529
 1856TIP3   OH226982   4.392   5.827  15.922  0.4359  0.4783 -0.4030
 1856TIP3    H126983   4.386   5.782  15.838  1.3683 -1.5230  0.5646
 1856TIP3    H226984   4.441   5.766  15.978 -1.2603  1.2317  1.9548
 1857TIP3   OH226985   5.578   5.955  16.475 -0.0250 -0.0521  0.1164
 1857TIP3    H126986   5.550   6.047  16.479  2.7208  0.8289  0.3118
 1857TIP3    H226987   5.635   5.951  16.399  0.2556 -1.4916  0.4006
 1858TIP3   OH226988   4.220   4.321   4.115  0.3358  0.2223  0.1204
 1858TIP3    H126989   4.262   4.316   4.029  0.0689 -0.4529  0.0245
 1858TIP3    H226990   4.223   4.231   4.148 -0.4532  0.2916  0.3919
 1859TIP3   OH226991   3.645   4.652  13.582  0.0453  0.0078 -0.0087
 1859TIP3    H126992   3.668   4.567  13.620  1.1690  0.5564  0.5816
 1859TIP3    H226993   3.724   4.705  13.594 -0.2934  0.8115 -1.3139
 1860TIP3   OH226994   3.887   3.158  15.882  0.3480 -0.2667  0.0181
 1860TIP3    H126995   3.906   3.081  15.828 -1.0640 -0.4827 -0.1866
 1860TIP3    H226996   3.886   3.125  15.972 -2.1371 -0.8941 -0.2047
 1861TIP3   OH226997   0.045   4.708   1.883  0.0981 -1.2162  0.2832
 1861TIP3    H126998  -0.029   4.652   1.859 -1.9099  2.2382 -1.9893
 1861TIP3    H226999   0.013   4.759   1.957  0.6443 -0.5833  0.0897
 1862TIP3   OH227000   5.360   1.736  15.217 -0.0493  0.7134 -0.1278
 1862TIP3    H127001   5.292   1.797  15.189 -0.9492 -0.0390  0.3904
 1862TIP3    H227002   5.432   1.752  15.157 -0.6056  1.6570 -0.5637
 1863TIP3   OH227003   6.318   0.485  16.407 -0.4223 -0.0568 -0.1645
 1863TIP3    H127004   6.351   0.485  16.318 -1.0328  1.2606 -0.3949
 1863TIP3    H227005   6.227   0.514  16.399 -0.9905 -1.5250  0.6976
 1864TIP3   OH227006   4.848   2.552  15.410  0.4940 -0.0342  0.2934
 1864TIP3    H127007   4.780   2.615  15.386  1.4152  1.4144  1.3670
 1864TIP3    H227008   4.801   2.480  15.450 -0.5763  0.0064 -0.8588
 1865TIP3   OH227009   0.485   2.449   6.819  0.1850  0.4387 -0.4297
 1865TIP3    H127010   0.565   2.480   6.776  0.3721  0.2952 -0.1844
 1865TIP3    H227011   0.491   2.353   6.815  0.0323  0.4273 -0.3998
 1866TIP3   OH227012   5.905   6.208   2.951 -0.1097  0.4247 -0.1695
 1866TIP3    H127013   5.899   6.154   3.031 -0.6412  1.9779  0.8512
 1866TIP3    H227014   5.944   6.290   2.980  0.5383  0.6786 -1.7004
 1867TIP3   OH227015   0.804   1.790  10.801  0.4604 -0.4484  0.2320
 1867TIP3    H127016   0.765   1.718  10.752 -1.6697  0.1174  1.0346
 1867TIP3    H227017   0.871   1.825  10.743 -1.3088 -0.4572 -1.9094
 1868TIP3   OH227018   6.708   3.112  16.326  0.3521  0.5419 -0.2662
 1868TIP3    H127019   6.753   3.194  16.305  2.6540  0.1165  2.6911
 1868TIP3    H227020   6.779   3.048  16.336 -1.0729 -0.7491  1.9528
 1869TIP3   OH227021   4.620   0.643   5.045 -0.6640  0.0613  0.0192
 1869TIP3    H127022   4.616   0.739   5.043 -0.9862  0.0286 -1.5723
 1869TIP3    H227023   4.700   0.622   4.995 -0.5425 -0.4900  0.4504
 1870TIP3   OH227024   0.634   4.113   1.105  0.2979  0.3916 -0.2363
 1870TIP3    H127025   0.602   4.185   1.050  2.0735  1.0816 -0.3842
 1870TIP3    H227026   0.670   4.051   1.042 -2.5125 -1.3434 -0.2289
 1871TIP3   OH227027   2.767   0.857   3.410  0.1342  0.1614  0.2126
 1871TIP3    H127028   2.860   0.837   3.406  0.0330 -0.4565  0.8017
 1871TIP3    H227029   2.742   0.875   3.319  1.0717  1.4659  0.2063
 1872TIP3   OH227030   0.941   3.266  14.905  0.1157  0.0521  0.2525
 1872TIP3    H127031   0.972   3.202  14.970 -2.5406 -2.3411 -0.7234
 1872TIP3    H227032   1.001   3.256  14.831  1.2829  0.5764  1.1060
 1873TIP3   OH227033   0.926   3.157   4.715 -0.1042  0.3006 -0.3514
 1873TIP3    H127034   0.868   3.098   4.762  0.0808 -0.6170 -1.2506
 1873TIP3    H227035   0.903   3.145   4.623  3.2191 -2.0687 -0.9931
 1874TIP3   OH227036   3.979   5.225   4.966  0.0713 -0.3407  0.3148
 1874TIP3    H127037   3.958   5.315   4.939  0.1125 -0.1254  1.0029
 1874TIP3    H227038   4.006   5.233   5.057  2.1456 -0.7590 -0.2466
 1875TIP3   OH227039   4.321   1.501  14.948  0.0463  0.0686  0.2277
 1875TIP3    H127040   4.242   1.539  14.987 -0.1295  0.7110 -0.7333
 1875TIP3    H227041   4.342   1.426  15.004  0.1958  1.3714  1.9501
 1876TIP3   OH227042   2.479   0.202   6.662 -0.5524  0.6574 -0.4433
 1876TIP3    H127043   2.536   0.151   6.605  0.6572  1.3135  0.1643
 1876TIP3    H227044   2.407   0.142   6.683 -0.0818 -0.1877 -1.1964
 1877TIP3   OH227045   1.654   4.057   2.700 -0.1785  0.0214  0.0805
 1877TIP3    H127046   1.632   4.112   2.775  2.7483  1.1209  0.1714
 1877TIP3    H227047   1.634   3.968   2.729 -1.3938  0.6740  1.2747
 1878TIP3   OH227048   2.991   1.489   6.270  0.3336  0.8025 -0.3759
 1878TIP3    H127049   3.060   1.433   6.307 -2.3662 -1.9533  0.7070
 1878TIP3    H227050   2.981   1.560   6.333  1.0863  0.3598  0.2537
 1879TIP3   OH227051   0.456   5.242   4.619 -0.4862  0.5265  0.1891
 1879TIP3    H127052   0.425   5.291   4.543 -0.3118  1.2965  0.6113
 1879TIP3    H227053   0.437   5.299   4.693 -0.5735 -0.1853  0.7147
 1880TIP3   OH227054   5.177   0.401  12.823 -0.2537 -0.4372 -0.2127
 1880TIP3    H127055   5.267   0.368  12.812  0.7367  1.7298  0.9452
 1880TIP3    H227056   5.172   0.426  12.915 -1.8964 -0.0679 -0.3900
 1881TIP3   OH227057   1.660   4.121   2.099  0.0663  0.6663 -0.7858
 1881TIP3    H127058   1.714   4.043   2.085 -0.0605  0.8229 -2.1990
 1881TIP3    H227059   1.635   4.116   2.191  0.0785 -0.9483 -0.8483
 1882TIP3   OH227060   0.999   5.061  16.759  0.5505  0.6929  0.7391
 1882TIP3    H127061   1.037   5.083  16.674  0.0247 -0.1965  0.2691
 1882TIP3    H227062   0.997   5.144  16.806  0.6946  1.2201 -0.1711
 1883TIP3   OH227063   1.880   5.346  11.544 -0.5814  0.9217 -1.0190
 1883TIP3    H127064   1.828   5.275  11.507 -0.8278  0.5536  0.0232
 1883TIP3    H227065   1.911   5.313  11.628  1.8695  0.9029 -1.8837
 1884TIP3   OH227066   2.438   1.564   2.004  1.4312  0.0346  0.4194
 1884TIP3    H127067   2.420   1.539   2.095  0.7515 -1.0570 -0.0109
 1884TIP3    H227068   2.533   1.575   2.001  1.4809 -0.1375  1.2097
 1885TIP3   OH227069   6.027   6.008   6.179  0.1398  0.0604  0.3683
 1885TIP3    H127070   6.046   5.914   6.184  0.1969  0.1509  1.9368
 1885TIP3    H227071   6.111   6.051   6.196  0.5546  0.4139 -2.3123
 1886TIP3   OH227072   5.925   1.727  14.748 -0.3602  0.0730  0.2441
 1886TIP3    H127073   6.014   1.695  14.734 -0.8843 -1.3448  0.0403
 1886TIP3    H227074   5.891   1.672  14.819 -0.6128  1.5263  1.2694
 1887TIP3   OH227075   6.128   1.664   1.562  0.5060  0.0237 -0.0609
 1887TIP3    H127076   6.188   1.694   1.494  0.9021 -1.1808 -0.2555
 1887TIP3    H227077   6.047   1.643   1.515  0.5053 -0.0123 -0.0437
 1888TIP3   OH227078   5.318   5.463   2.082  0.2323 -0.5404  0.0908
 1888TIP3    H127079   5.243   5.411   2.111 -0.4597  1.1555  1.3926
 1888TIP3    H227080   5.290   5.501   1.998  0.1635 -1.0090 -0.1014
 1889TIP3   OH227081   0.396   0.432  11.778 -0.4203 -0.1805  0.6512
 1889TIP3    H127082   0.362   0.454  11.865  1.8308 -1.0579  1.8070
 1889TIP3    H227083   0.390   0.336  11.774 -1.5507 -0.0705 -0.6230
 1890TIP3   OH227084   1.064   2.792  15.223  0.3640 -0.1135  0.0894
 1890TIP3    H127085   1.032   2.827  15.306  0.1141  0.0097 -0.0571
 1890TIP3    H227086   1.010   2.714  15.208 -0.4324  0.5474 -0.5561
 1891TIP3   OH227087   3.710   5.494   2.268 -0.1472  0.1776 -0.1689
 1891TIP3    H127088   3.626   5.507   2.311  0.4363 -1.8319  1.6476
 1891TIP3    H227089   3.694   5.424   2.204  0.1198 -0.1585  0.1310
 1892TIP3   OH227090   1.914   0.909   4.083 -0.1174  0.0565 -0.5544
 1892TIP3    H127091   2.003   0.911   4.118 -0.2765  2.2052 -0.2640
 1892TIP3    H227092   1.860   0.879   4.156 -0.0062  1.4116  0.0863
 1893TIP3   OH227093   0.847   1.937  12.567  0.1269 -0.0423 -0.3086
 1893TIP3    H127094   0.759   1.973  12.562  0.7417  1.4516 -0.7831
 1893TIP3    H227095   0.859   1.916  12.659  0.3157  2.5214  0.3073
 1894TIP3   OH227096   3.911   6.034   2.059  0.6884  0.3891 -0.0905
 1894TIP3    H127097   3.839   6.077   2.105  0.5757  0.1696 -0.0621
 1894TIP3    H227098   3.892   6.048   1.966  1.9735  2.5902 -0.0612
 1895TIP3   OH227099   3.317   3.682  14.525  0.4639  0.5708 -0.1841
 1895TIP3    H127100   3.351   3.629  14.597  0.2475  0.9326  0.1913
 1895TIP3    H227101   3.368   3.764  14.530  0.5358  0.5465 -0.5207
 1896TIP3   OH227102   5.538   5.038  11.289 -0.2588  0.9026  0.2922
 1896TIP3    H127103   5.609   5.078  11.239 -1.4367 -0.3621 -2.4647
 1896TIP3    H227104   5.581   4.970  11.341  0.4085 -0.9216 -2.5342
 1897TIP3   OH227105   2.359   0.638  13.852  0.1089  0.2032  0.2441
 1897TIP3    H127106   2.453   0.624  13.838  0.2362  0.3099  0.9657
 1897TIP3    H227107   2.338   0.584  13.928 -0.2964  0.6244  0.4310
 1898TIP3   OH227108   2.270   2.197  13.226  0.4393 -0.3948 -0.2033
 1898TIP3    H127109   2.264   2.258  13.153 -1.8631  0.6637  0.8017
 1898TIP3    H227110   2.338   2.234  13.283  0.2896  0.2829 -0.4646
 1899TIP3   OH227111   2.207   5.728   4.287  0.3127 -0.5335  0.8673
 1899TIP3    H127112   2.295   5.765   4.299 -0.1634  1.1074 -0.3761
 1899TIP3    H227113   2.208   5.693   4.198 -0.6485  0.5458  0.4235
 1900TIP3   OH227114   2.058   5.810   0.461  0.2023  0.0559 -0.1868
 1900TIP3    H127115   2.008   5.817   0.379 -2.3130  0.7762  1.3639
 1900TIP3    H227116   1.992   5.810   0.530  2.3510  1.1486  1.9676
 1901TIP3   OH227117   3.397   3.272  13.337 -0.6149 -0.0290  0.2254
 1901TIP3    H127118   3.336   3.217  13.287  0.5840 -0.0944 -1.2051
 1901TIP3    H227119   3.348   3.297  13.416 -1.1767 -3.0967  0.8849
 1902TIP3   OH227120   0.119   0.754  16.449 -0.4228 -0.5383 -0.0742
 1902TIP3    H127121   0.136   0.696  16.523  2.4992  0.5591  0.1843
 1902TIP3    H227122   0.204   0.766  16.408 -1.3336  1.8552 -1.3959
 1903TIP3   OH227123   4.041   2.026  15.000  0.1833  0.3617  0.0988
 1903TIP3    H127124   4.102   1.987  15.063 -1.3640 -0.4448  1.1388
 1903TIP3    H227125   4.096   2.076  14.940  2.0664 -2.0236 -0.2366
 1904TIP3   OH227126   5.365   5.860   1.179  0.1238  0.2450 -0.3512
 1904TIP3    H127127   5.395   5.951   1.176  1.0491 -0.0563 -0.4659
 1904TIP3    H227128   5.289   5.861   1.238  0.3093  1.0375 -0.1214
 1905TIP3   OH227129   1.616   5.241  11.299  0.0844 -0.1214  0.3813
 1905TIP3    H127130   1.629   5.251  11.205 -3.2751  0.9343 -0.0353
 1905TIP3    H227131   1.635   5.149  11.316  0.2767 -0.4357 -1.4061
 1906TIP3   OH227132   0.156   1.553   0.828  0.5062  0.0831 -0.0366
 1906TIP3    H127133   0.082   1.541   0.887  0.6363 -0.9941 -0.0734
 1906TIP3    H227134   0.129   1.623   0.769 -0.5435 -0.4099 -0.1512
 1907TIP3   OH227135   5.024   5.236  17.060  0.1620 -0.3140 -0.3665
 1907TIP3    H127136   4.994   5.145  17.056 -0.0442 -0.3851  2.2752
 1907TIP3    H227137   5.114   5.230  17.093  0.7490  0.3436 -1.8070
 1908TIP3   OH227138   1.303   5.544   3.950 -0.1081 -0.4465  0.4244
 1908TIP3    H127139   1.221   5.581   3.984  0.9066  1.4387  0.8926
 1908TIP3    H227140   1.291   5.542   3.855 -0.7360 -0.2597  0.4964
 1909TIP3   OH227141   2.132   2.920   2.781 -0.1148  0.2698  0.2068
 1909TIP3    H127142   2.050   2.882   2.812 -1.0143 -0.4802 -2.9215
 1909TIP3    H227143   2.183   2.846   2.751  1.4626  0.8148  1.4412
 1910TIP3   OH227144   3.481   2.626  10.860 -0.1291 -0.5792  0.0238
 1910TIP3    H127145   3.448   2.573  10.787 -0.8057  1.1179 -0.9203
 1910TIP3    H227146   3.549   2.571  10.900  0.4016 -1.4560 -2.0113
 1911TIP3   OH227147   1.305   3.053   3.218 -0.6956 -0.1788 -0.4448
 1911TIP3    H127148   1.373   2.986   3.215 -1.0323 -0.4782 -1.5043
 1911TIP3    H227149   1.344   3.129   3.175 -1.2556 -0.5687 -1.6702
 1912TIP3   OH227150   6.535   4.909  12.683 -0.0555  0.4555  0.0612
 1912TIP3    H127151   6.622   4.870  12.671 -0.3054  0.0285 -0.4175
 1912TIP3    H227152   6.519   4.957  12.601  0.4985  2.0658  0.8920
 1913TIP3   OH227153   0.000   5.886  16.685 -0.2246 -0.7336  0.2603
 1913TIP3    H127154  -0.090   5.879  16.653  0.1332 -0.4051 -0.8382
 1913TIP3    H227155   0.054   5.885  16.606  0.5722  2.0839  0.7142
 1914TIP3   OH227156   6.215   5.577   5.701 -0.6990 -0.2518  0.0717
 1914TIP3    H127157   6.277   5.535   5.642 -0.4348 -0.3136  0.3931
 1914TIP3    H227158   6.227   5.670   5.686 -2.8895 -0.2973 -2.3066
 1915TIP3   OH227159   6.256   6.377  13.317  0.1535 -0.1768  0.1707
 1915TIP3    H127160   6.167   6.343  13.323 -0.0637  0.1442 -1.1656
 1915TIP3    H227161   6.298   6.348  13.398 -0.3010 -2.8430 -0.5013
 1916TIP3   OH227162   1.225   5.997  15.895  0.4039  0.4461 -0.2286
 1916TIP3    H127163   1.220   5.911  15.936  4.5197  0.5699  0.7862
 1916TIP3    H227164   1.187   5.984  15.808 -1.0635 -1.8086  0.6896
 1917TIP3   OH227165   2.589   3.769   1.205  0.4023  0.0790  0.0378
 1917TIP3    H127166   2.506   3.804   1.235  0.0982 -0.1146 -0.5526
 1917TIP3    H227167   2.629   3.840   1.155  0.0297 -0.2336 -0.7092
 1918TIP3   OH227168   1.874   3.652   4.159 -0.1699 -1.3934 -0.1642
 1918TIP3    H127169   1.929   3.649   4.237  0.4462 -1.3720 -0.5884
 1918TIP3    H227170   1.929   3.693   4.092 -0.4473 -2.0347 -0.7951
 1919TIP3   OH227171   2.534   5.064   2.405  0.2764 -0.0133  0.3239
 1919TIP3    H127172   2.555   4.978   2.368  0.1664 -0.8733  2.2329
 1919TIP3    H227173   2.613   5.089   2.453 -0.2167  0.3129  0.9591
 1920TIP3   OH227174   2.157   1.220   3.332  0.7271 -0.2185 -0.4962
 1920TIP3    H127175   2.099   1.289   3.300  0.0360 -0.4841  0.1575
 1920TIP3    H227176   2.243   1.261   3.338  0.7943 -0.0610 -2.3105
 1921TIP3   OH227177   1.818   5.331  16.622  0.5030  0.4202 -0.6285
 1921TIP3    H127178   1.770   5.249  16.610  1.2897 -0.5190  2.3227
 1921TIP3    H227179   1.777   5.391  16.560  0.1364 -2.2501 -3.1360
 1922TIP3   OH227180   5.409   5.310  10.776  0.2197  0.4033 -0.4890
 1922TIP3    H127181   5.435   5.367  10.704 -1.3747  0.4501 -1.0524
 1922TIP3    H227182   5.327   5.269  10.746  0.7198 -1.2731  0.3916
 1923TIP3   OH227183   4.119   5.882   0.512  0.1325 -0.5038  0.0337
 1923TIP3    H127184   4.025   5.882   0.494  0.4154  0.8576 -1.5318
 1923TIP3    H227185   4.160   5.873   0.425  1.4919  3.0159  0.2441
 1924TIP3   OH227186   1.513   4.520  15.565  0.3024  0.0127  0.2732
 1924TIP3    H127187   1.559   4.500  15.484  1.7372 -1.3060  1.3951
 1924TIP3    H227188   1.578   4.562  15.621 -0.3811 -0.0865  1.1667
 1925TIP3   OH227189   2.691   1.484   2.657 -0.2624 -0.0672 -0.1174
 1925TIP3    H127190   2.710   1.391   2.667 -0.0227  0.0761  0.8221
 1925TIP3    H227191   2.691   1.518   2.747  1.5215  1.2091 -0.5884
 1926TIP3   OH227192   5.807   0.330   2.671 -0.2364  0.3148 -0.3428
 1926TIP3    H127193   5.811   0.235   2.684 -2.4034  0.2725  0.1009
 1926TIP3    H227194   5.847   0.344   2.585  2.8033 -0.6675  0.8591
 1927TIP3   OH227195   4.672   5.910  11.594 -0.3866  0.0424 -0.0777
 1927TIP3    H127196   4.619   5.962  11.534 -0.1203  1.2796  0.7355
 1927TIP3    H227197   4.701   5.835  11.543 -2.2545 -0.2272 -0.7644
 1928TIP3   OH227198   3.520   5.414  15.073 -0.3223  0.5748  0.2692
 1928TIP3    H127199   3.597   5.372  15.113  0.4131  0.5345 -1.1588
 1928TIP3    H227200   3.549   5.503  15.052 -0.0011 -0.0411 -2.0833
 1929TIP3   OH227201   6.652   1.000  15.290  0.2668  0.7406 -0.1119
 1929TIP3    H127202   6.629   0.931  15.227 -0.0095 -0.4621  1.2831
 1929TIP3    H227203   6.720   1.050  15.246  0.8818 -0.7781 -0.9290
 1930TIP3   OH227204   6.663   2.544   1.542  0.0771  0.0825 -0.4690
 1930TIP3    H127205   6.578   2.551   1.584 -0.1453  1.6829 -1.1585
 1930TIP3    H227206   6.647   2.568   1.450  0.7948 -2.0817 -1.1997
 1931TIP3   OH227207   2.329   6.012   3.653  0.4816 -0.1920  0.4746
 1931TIP3    H127208   2.245   5.986   3.691 -0.4673  0.6980 -0.9951
 1931TIP3    H227209   2.330   6.107   3.658  0.9333 -0.1367 -0.4678
 1932TIP3   OH227210   0.813   1.242  14.992 -0.1917 -0.2518 -0.4002
 1932TIP3    H127211   0.802   1.165  14.937 -1.1777 -0.8717  0.6213
 1932TIP3    H227212   0.752   1.307  14.956 -0.9977 -0.7314  0.0654
 1933TIP3   OH227213   6.262   4.632  14.504 -0.1940  0.0625 -0.1035
 1933TIP3    H127214   6.277   4.717  14.463 -0.0700 -0.5486 -1.3560
 1933TIP3    H227215   6.349   4.593  14.512 -0.2762 -0.0592  0.2038
 1934TIP3   OH227216   6.303   4.476   2.857 -0.0869 -0.6800  0.0564
 1934TIP3    H127217   6.225   4.424   2.841 -0.2660 -0.5082  0.3559
 1934TIP3    H227218   6.293   4.508   2.947  0.9612 -1.7703  0.5839
 1935TIP3   OH227219   5.373   0.232   0.860  0.3801 -0.4945  0.6129
 1935TIP3    H127220   5.394   0.143   0.889  1.9794 -0.1455  0.5715
 1935TIP3    H227221   5.335   0.221   0.773  2.2301 -1.0289 -0.1497
 1936TIP3   OH227222   5.245   4.099   4.896  0.4399 -0.1014 -0.1052
 1936TIP3    H127223   5.191   4.166   4.855  0.3394  0.4739  0.9712
 1936TIP3    H227224   5.195   4.018   4.885  1.1877 -0.2696 -2.6185
 1937TIP3   OH227225   1.808   0.172  12.567  0.2250 -0.4851 -0.5540
 1937TIP3    H127226   1.728   0.218  12.593 -0.8391 -3.3279  1.4628
 1937TIP3    H227227   1.789   0.140  12.479  0.2539  1.2300 -1.2077
 1938TIP3   OH227228   1.135   6.467  14.872 -0.3431 -0.2566  0.2465
 1938TIP3    H127229   1.165   6.418  14.796  1.3345 -1.0945  1.4204
 1938TIP3    H227230   1.105   6.551  14.837  1.2873 -0.2774 -1.2186
 1939TIP3   OH227231   4.390   0.966  14.597 -0.0847 -0.1860  0.5502
 1939TIP3    H127232   4.399   1.051  14.553 -0.6668 -0.0743  0.6496
 1939TIP3    H227233   4.454   0.909  14.553  0.2448  0.2766  0.4235
 1940TIP3   OH227234   5.992   3.614  17.205 -0.4165  0.1711  0.3284
 1940TIP3    H127235   6.086   3.599  17.220 -0.8565 -1.6905  1.3747
 1940TIP3    H227236   5.978   3.704  17.233  0.6696 -0.2135  2.2256
 1941TIP3   OH227237   3.191   4.703   3.125  0.3706 -0.0954  0.0409
 1941TIP3    H127238   3.242   4.691   3.206  0.3198 -0.0453  0.0796
 1941TIP3    H227239   3.174   4.797   3.121  0.3693 -0.0986 -0.0251
 1942TIP3   OH227240   1.191   5.536   5.862  0.2748  0.0739  0.0450
 1942TIP3    H127241   1.202   5.629   5.883 -0.1767  0.3774 -1.0295
 1942TIP3    H227242   1.246   5.522   5.785 -0.7692 -0.2149 -0.6525
 1943TIP3   OH227243   2.016   1.206   6.488  0.8063  0.1459 -0.0026
 1943TIP3    H127244   1.929   1.174   6.513  0.3065 -1.6956 -3.7860
 1943TIP3    H227245   2.076   1.162   6.548 -0.6606 -0.4081  1.0943
 1944TIP3   OH227246   2.110   3.102  13.959  0.2995  0.2952  0.5573
 1944TIP3    H127247   2.032   3.154  13.941 -0.7876 -1.3358  0.4413
 1944TIP3    H227248   2.124   3.111  14.053 -0.0323  0.5793  0.5777
 1945TIP3   OH227249   0.493   2.158  14.677 -0.0116  0.7263 -0.4063
 1945TIP3    H127250   0.443   2.094  14.626 -0.2883 -0.3259  1.1398
 1945TIP3    H227251   0.465   2.143  14.767  1.7826  1.3440  0.2685
 1946TIP3   OH227252   0.875   3.144   2.636 -0.1305 -0.2087  0.1579
 1946TIP3    H127253   0.965   3.175   2.639 -0.3754  0.5314  0.0651
 1946TIP3    H227254   0.840   3.179   2.554 -1.1035  1.2500  1.1656
 1947TIP3   OH227255   5.362   6.051   3.462 -0.3031 -0.0121  0.5339
 1947TIP3    H127256   5.385   6.140   3.436 -0.8537  0.5137  1.8372
 1947TIP3    H227257   5.286   6.029   3.408  2.8891 -1.6718 -3.6327
 1948TIP3   OH227258   6.041   1.723   3.722 -0.0790  0.2796 -0.3703
 1948TIP3    H127259   6.087   1.668   3.658 -1.3173 -0.4913 -0.6182
 1948TIP3    H227260   6.105   1.737   3.792  0.8626  0.0533 -1.1750
 1949TIP3   OH227261   5.798   0.339  14.630 -0.0764  0.4101  0.1545
 1949TIP3    H127262   5.704   0.345  14.614 -0.1007 -1.4137 -0.5019
 1949TIP3    H227263   5.806   0.286  14.709  0.4356 -0.0641 -0.2149
 1950TIP3   OH227264   0.534   2.677  11.184 -0.0944 -0.0625 -0.3358
 1950TIP3    H127265   0.586   2.631  11.117 -1.4914  0.3106 -1.7102
 1950TIP3    H227266   0.469   2.612  11.212  0.6830 -0.3246  0.9283
 1951TIP3   OH227267   0.795   6.135   4.127  0.5268 -0.3471  0.8536
 1951TIP3    H127268   0.770   6.196   4.058  0.8289  0.5044  1.4864
 1951TIP3    H227269   0.883   6.106   4.103  0.0442 -1.2154  0.0929
 1952TIP3   OH227270   3.735   5.890   1.764 -0.2706 -0.0244  0.8534
 1952TIP3    H127271   3.718   5.977   1.800 -0.6458 -0.9349  2.9744
 1952TIP3    H227272   3.678   5.832   1.815 -1.2769 -1.3233 -1.6490
 1953TIP3   OH227273   6.546   2.220   3.689 -0.2538  0.5384  0.3148
 1953TIP3    H127274   6.557   2.293   3.628 -0.5980  0.5458  0.2623
 1953TIP3    H227275   6.629   2.174   3.685 -0.2859  0.5168 -0.1926
 1954TIP3   OH227276   5.062   6.634  12.064  0.0744  0.2092  0.2597
 1954TIP3    H127277   5.119   6.635  12.141 -1.7158  0.0840  1.6300
 1954TIP3    H227278   5.005   6.710  12.075 -0.3451  0.0537 -0.8143
 1955TIP3   OH227279   1.607   2.728  11.998  0.0413 -0.1991 -0.5457
 1955TIP3    H127280   1.558   2.790  12.052 -0.5158 -1.8284  0.8673
 1955TIP3    H227281   1.611   2.770  11.912  0.1738  2.0319  0.5105
 1956TIP3   OH227282   2.639   2.748  14.756 -0.1822 -0.4217 -0.1530
 1956TIP3    H127283   2.716   2.762  14.702 -1.3447 -0.6766 -1.9363
 1956TIP3    H227284   2.597   2.834  14.760 -0.7994 -0.6836 -0.7968
 1957TIP3   OH227285   4.236   1.030  16.302 -0.3538 -0.2513 -0.2255
 1957TIP3    H127286   4.299   0.958  16.304 -1.7024 -1.5457 -2.6305
 1957TIP3    H227287   4.280   1.098  16.250 -0.3081 -0.5711 -0.6146
 1958TIP3   OH227288   1.808   2.418  13.893 -0.5697  0.3884 -0.0632
 1958TIP3    H127289   1.872   2.377  13.835 -0.2879  0.1067  0.4432
 1958TIP3    H227290   1.788   2.502  13.852  1.4768  1.2817  0.6829
 1959TIP3   OH227291   0.795   2.065  16.598 -0.6061  0.9663  0.6707
 1959TIP3    H127292   0.752   2.148  16.618 -1.5364  0.5861  0.2512
 1959TIP3    H227293   0.791   2.059  16.502 -1.6828 -0.1696  0.7778
 1960TIP3   OH227294   1.621   2.555   3.133  0.0651 -0.7205  0.4954
 1960TIP3    H127295   1.546   2.504   3.163 -0.6539  0.9987  1.6815
 1960TIP3    H227296   1.686   2.546   3.202  0.7660 -1.7555 -0.2781
 1961TIP3   OH227297   1.639   0.898  11.923  0.1173 -0.2312  0.1422
 1961TIP3    H127298   1.658   0.990  11.939 -1.8524  0.0955  0.6666
 1961TIP3    H227299   1.712   0.851  11.963  0.8255  1.0642  0.3893
 1962TIP3   OH227300   5.768   2.752   1.418 -0.1828  0.2272  0.1449
 1962TIP3    H127301   5.695   2.792   1.467 -0.8803  0.1499 -0.8167
 1962TIP3    H227302   5.836   2.738   1.484 -0.4429  1.7544  0.7590
 1963TIP3   OH227303   2.736   2.949  16.529 -0.2310 -0.0746  0.2526
 1963TIP3    H127304   2.664   3.009  16.549  1.7198  1.6449  2.2942
 1963TIP3    H227305   2.725   2.877  16.592 -0.1300  0.2021  0.5837
 1964TIP3   OH227306   6.370   4.176  12.414  0.5920  0.5175  0.1095
 1964TIP3    H127307   6.300   4.237  12.394 -0.0721 -0.2610  0.0261
 1964TIP3    H227308   6.448   4.214  12.372 -0.1877  0.4032 -1.5005
 1965TIP3   OH227309   0.725   0.440   4.391 -0.3469 -0.0709 -0.0448
 1965TIP3    H127310   0.646   0.482   4.356 -0.8856 -0.9245  0.1118
 1965TIP3    H227311   0.713   0.443   4.486  1.6877  3.3519  0.1836
 1966TIP3   OH227312   1.219   6.129  16.780 -0.5096  0.1781 -0.2459
 1966TIP3    H127313   1.257   6.194  16.721  0.6510  0.4818  0.8185
 1966TIP3    H227314   1.283   6.120  16.850 -1.7407 -0.3938  0.8189
 1967TIP3   OH227315   4.827   2.168  14.748  0.3362 -0.2647 -0.0536
 1967TIP3    H127316   4.888   2.174  14.675 -0.6004 -1.4607 -0.9595
 1967TIP3    H227317   4.868   2.108  14.810  0.8397  0.2536  0.1172
 1968TIP3   OH227318   2.196   6.002  14.390  0.0843 -0.8912 -0.2455
 1968TIP3    H127319   2.248   6.027  14.313 -1.4158 -1.9214 -1.6102
 1968TIP3    H227320   2.212   5.909  14.400 -1.3494 -1.1772 -0.5634
 1969TIP3   OH227321   0.396   3.518   4.480  0.3400  0.1354 -0.0132
 1969TIP3    H127322   0.414   3.580   4.550 -1.5190  0.5467  0.1127
 1969TIP3    H227323   0.301   3.512   4.476  0.4336 -0.6069 -1.8660
 1970TIP3   OH227324   4.059   0.147  15.375 -0.2532 -0.2040  0.1471
 1970TIP3    H127325   4.105   0.104  15.303  0.6172 -0.4299  0.8180
 1970TIP3    H227326   4.001   0.210  15.333  0.9683  0.3674 -0.7149
 1971TIP3   OH227327   2.449   1.030   3.191  0.1338 -0.0478  0.0835
 1971TIP3    H127328   2.535   1.022   3.149 -0.0511 -1.4185 -0.0858
 1971TIP3    H227329   2.386   1.017   3.120 -0.1931 -0.1687  0.3916
 1972TIP3   OH227330   2.767   3.538  16.092  0.1871 -0.1615 -0.6478
 1972TIP3    H127331   2.740   3.590  16.016 -0.8253  1.2125  0.6123
 1972TIP3    H227332   2.762   3.599  16.166  1.5492 -1.3574  0.4761
 1973TIP3   OH227333   2.153   6.668  15.495 -0.5636 -0.2281 -0.0500
 1973TIP3    H127334   2.237   6.641  15.533 -0.4085 -0.2374 -0.3921
 1973TIP3    H227335   2.152   6.628  15.408 -0.6248  0.3231 -0.3071
 1974TIP3   OH227336   4.918   2.869  16.018 -0.4628 -0.3149 -0.0690
 1974TIP3    H127337   4.957   2.785  15.993 -2.5604 -1.3347  0.0446
 1974TIP3    H227338   4.832   2.869  15.976 -2.1319  0.0113  3.2090
 1975TIP3   OH227339   6.422   2.632   5.005 -0.5056 -0.4700 -0.1488
 1975TIP3    H127340   6.444   2.589   5.088  0.0000  0.7007  0.3455
 1975TIP3    H227341   6.328   2.618   4.995 -0.9343  0.9275  1.5628
 1976TIP3   OH227342   2.307   2.515   3.506  0.0948  0.2321  0.0683
 1976TIP3    H127343   2.313   2.556   3.419  1.0301 -0.4060 -0.1716
 1976TIP3    H227344   2.237   2.563   3.550 -1.7560 -0.6937 -1.7417
 1977TIP3   OH227345   4.174   2.189   3.721 -0.4387 -0.5032  0.1310
 1977TIP3    H127346   4.190   2.232   3.805  2.1279 -0.5238 -0.3238
 1977TIP3    H227347   4.176   2.096   3.741  1.2182 -0.5332 -0.1046
 1978TIP3   OH227348   4.911   4.057  11.470  0.3473  0.0002 -0.1208
 1978TIP3    H127349   4.841   3.991  11.474  0.4659 -0.1096  0.2350
 1978TIP3    H227350   4.986   4.014  11.511  0.5312  0.2303 -0.2154
 1979TIP3   OH227351   5.050   5.829  11.625  0.3943 -0.0969 -0.4447
 1979TIP3    H127352   5.043   5.866  11.537  1.2724 -0.3179 -0.6168
 1979TIP3    H227353   5.108   5.753  11.615 -0.7159 -1.0326  0.0517
 1980TIP3   OH227354   1.553   1.103   2.693  0.1941  0.3602  0.0868
 1980TIP3    H127355   1.588   1.020   2.723 -0.9906  0.1633  0.9835
 1980TIP3    H227356   1.569   1.103   2.599  1.5372 -0.2122  0.3013
 1981TIP3   OH227357   1.471   3.153   1.802 -0.0121  0.5430  0.1939
 1981TIP3    H127358   1.387   3.128   1.840  0.0495 -0.2087 -0.1454
 1981TIP3    H227359   1.517   3.069   1.789 -0.0062  0.7920 -1.4743
 1982TIP3   OH227360   2.680   6.088  16.476  0.6278 -0.0907 -0.6077
 1982TIP3    H127361   2.603   6.123  16.521 -0.1735  1.7791 -3.3304
 1982TIP3    H227362   2.653   6.000  16.448 -0.2340  0.2767 -0.9230
 1983TIP3   OH227363   0.567   3.236  10.914 -0.1751 -0.6558  0.3643
 1983TIP3    H127364   0.582   3.329  10.902 -1.5176 -0.4529  0.1958
 1983TIP3    H227365   0.472   3.227  10.923 -0.1951 -2.1670 -1.0481
 1984TIP3   OH227366   4.941   6.620   4.962 -0.6013  0.6591  0.0814
 1984TIP3    H127367   4.848   6.599   4.968 -0.7121  1.2337  0.3545
 1984TIP3    H227368   4.955   6.643   4.870 -0.2885 -1.4973 -0.4425
 1985TIP3   OH227369   0.078   2.803   4.481  0.5966  0.4455  0.5844
 1985TIP3    H127370   0.081   2.819   4.387 -1.9600  0.0242  0.3977
 1985TIP3    H227371   0.088   2.890   4.520  1.3730  0.6530 -0.0600
 1986TIP3   OH227372   2.767   1.233   3.839 -0.0652 -0.4241 -0.0089
 1986TIP3    H127373   2.842   1.176   3.825  1.2502  1.7468 -2.2300
 1986TIP3    H227374   2.797   1.296   3.905 -0.1454  0.0656 -0.4394
 1987TIP3   OH227375   1.789   2.945   3.760  0.1950  0.0080 -0.2564
 1987TIP3    H127376   1.755   2.961   3.672  0.8498  2.3234 -0.1405
 1987TIP3    H227377   1.714   2.911   3.809 -0.2188 -1.1361 -1.6646
 1988TIP3   OH227378   3.154   1.776  12.094 -0.0280 -0.3713 -0.2929
 1988TIP3    H127379   3.212   1.726  12.036  2.4117  1.4345  0.4891
 1988TIP3    H227380   3.122   1.849  12.041  2.8475  1.7450  0.7373
 1989TIP3   OH227381   5.310   6.242  12.218  0.1584  0.1235 -0.1050
 1989TIP3    H127382   5.292   6.336  12.220 -0.8985 -0.0752  0.3047
 1989TIP3    H227383   5.287   6.215  12.129  2.3428  0.5983 -0.8236
 1990TIP3   OH227384   4.045   4.504  11.901 -0.4480 -0.2251  0.0489
 1990TIP3    H127385   3.987   4.464  11.836 -1.7727  1.2209  0.3106
 1990TIP3    H227386   4.092   4.572  11.854 -0.5936  0.0833  0.3434
 1991TIP3   OH227387   5.704   6.503   3.324  0.1048  0.5255 -0.3658
 1991TIP3    H127388   5.737   6.592   3.339 -1.2523  0.9559  0.0666
 1991TIP3    H227389   5.643   6.511   3.251  0.2164 -0.1256 -0.5423
 1992TIP3   OH227390   6.611   2.556   4.741  0.2966 -0.1947  0.4015
 1992TIP3    H127391   6.636   2.647   4.758  0.8482 -0.3356  0.3621
 1992TIP3    H227392   6.615   2.513   4.826  0.4605 -0.2802  0.3519
 1993TIP3   OH227393   3.523   6.128   3.838  0.1850 -0.3438 -0.2749
 1993TIP3    H127394   3.573   6.157   3.762 -0.8656 -1.2329 -1.3318
 1993TIP3    H227395   3.548   6.036   3.849 -1.0175 -0.7273 -0.6724
 1994TIP3   OH227396   0.454   5.288   3.574 -0.5703  0.3007  0.0053
 1994TIP3    H127397   0.535   5.272   3.622  0.3923 -1.7292 -2.1682
 1994TIP3    H227398   0.391   5.227   3.612 -0.3436  0.0492 -0.0181
 1995TIP3   OH227399   5.923   5.634   5.375  0.6987  0.5007  0.5578
 1995TIP3    H127400   5.902   5.728   5.378  2.8623  0.9846  1.8094
 1995TIP3    H227401   5.872   5.595   5.446 -0.1977  0.7200  0.0432
 1996TIP3   OH227402   1.109   4.234   2.465 -0.9634  0.4564  0.3680
 1996TIP3    H127403   1.192   4.279   2.480 -0.6829  0.6671 -1.6886
 1996TIP3    H227404   1.068   4.283   2.394 -3.1248  0.7000  1.7524
 1997TIP3   OH227405   5.460   2.434   3.865  0.0987 -0.0749 -0.2465
 1997TIP3    H127406   5.371   2.429   3.900  0.3637 -1.0508  0.2954
 1997TIP3    H227407   5.507   2.487   3.930  0.5894 -1.8830  0.8982
 1998TIP3   OH227408   2.548   0.273   6.033  0.1633  0.0735  0.3513
 1998TIP3    H127409   2.505   0.358   6.040 -0.1564 -0.1773  1.5043
 1998TIP3    H227410   2.625   0.290   5.978 -0.1138  1.0147  0.2439
 1999TIP3   OH227411   3.005   1.020  13.389 -0.0438  0.2011  0.1833
 1999TIP3    H127412   3.097   1.005  13.410 -0.2102  0.4470  1.0880
 1999TIP3    H227413   3.003   1.025  13.293  1.1712  2.0256  0.2157
 2000TIP3   OH227414   4.014   5.576  14.348  0.5733 -0.5339  0.0876
 2000TIP3    H127415   3.986   5.623  14.427 -0.0284  2.1997 -1.6940
 2000TIP3    H227416   3.934   5.537  14.313  0.5102 -0.1337 -0.2145
 2001TIP3   OH227417   6.678   2.671   0.769 -0.7625 -0.3325 -0.1793
 2001TIP3    H127418   6.595   2.657   0.722 -0.4451 -0.3150 -0.7567
 2001TIP3    H227419   6.720   2.585   0.768 -0.6561 -0.2805 -0.1262
 2002TIP3   OH227420   5.175   6.272   0.290 -0.8160  0.5644 -0.3378
 2002TIP3    H127421   5.219   6.228   0.217 -1.5198  0.6212 -0.8000
 2002TIP3    H227422   5.205   6.225   0.368 -0.2082  0.3835 -0.6819
 2003TIP3   OH227423   4.955   3.844  13.107 -0.1165  0.3686  0.4539
 2003TIP3    H127424   5.031   3.798  13.073  0.4618  0.0937  2.0811
 2003TIP3    H227425   4.880   3.800  13.067  0.5639  0.6056 -1.1104
 2004TIP3   OH227426   6.432   2.289   2.855 -0.0467  0.2318  0.5290
 2004TIP3    H127427   6.513   2.269   2.809 -0.1255  1.5513 -0.1987
 2004TIP3    H227428   6.399   2.369   2.814 -1.3281  0.1364  1.3165
 2005TIP3   OH227429   1.334   6.205   5.537  0.1854  0.3432 -0.2490
 2005TIP3    H127430   1.331   6.228   5.629 -2.2399 -0.5930 -0.0775
 2005TIP3    H227431   1.343   6.289   5.491  2.0199  0.7661  0.8174
 2006TIP3   OH227432   0.622   1.880   2.416  0.4969 -0.6294  0.1777
 2006TIP3    H127433   0.596   1.972   2.426  2.3697 -0.1272  0.5294
 2006TIP3    H227434   0.661   1.875   2.329  0.7524 -1.0055  0.3110
 2007TIP3   OH227435   1.687   0.866   2.078  0.1058  0.1677 -0.3477
 2007TIP3    H127436   1.599   0.858   2.115 -0.3983  3.6473 -0.6688
 2007TIP3    H227437   1.745   0.866   2.154 -0.3665  0.4995  0.0123
 2008TIP3   OH227438   4.255   2.345   4.355  0.0384  0.0024  0.1246
 2008TIP3    H127439   4.349   2.359   4.350 -0.1852  1.3253 -0.6227
 2008TIP3    H227440   4.242   2.255   4.324  0.8446  0.6119 -2.0501
 2009TIP3   OH227441   2.322   1.554   4.791  0.1632  0.2256 -0.6597
 2009TIP3    H127442   2.352   1.467   4.818 -0.2239 -0.0020 -0.9664
 2009TIP3    H227443   2.385   1.614   4.831 -0.1984 -0.1315  0.4555
 2010TIP3   OH227444   4.311   5.289  16.226 -0.1963  0.5338  0.2279
 2010TIP3    H127445   4.381   5.290  16.291  0.4824 -1.5700 -0.4378
 2010TIP3    H227446   4.332   5.360  16.166  2.3868 -1.2074 -1.0059
 2011TIP3   OH227447   4.610   3.984  14.268  0.0094  0.4082 -0.5250
 2011TIP3    H127448   4.555   3.933  14.208  2.7039 -1.4149 -1.5256
 2011TIP3    H227449   4.609   3.935  14.350  0.0242  0.4613 -0.4928
 2012TIP3   OH227450   6.437   1.940   1.242 -0.5629  0.5376  0.4727
 2012TIP3    H127451   6.364   1.978   1.193 -0.9884 -0.9467 -0.0745
 2012TIP3    H227452   6.464   2.010   1.302 -2.3183  1.1766  0.5730
 2013TIP3   OH227453   4.472   1.934  12.087  0.4110  0.1884  0.3612
 2013TIP3    H127454   4.449   1.951  11.995 -0.5334  0.4170  0.6312
 2013TIP3    H227455   4.432   1.849  12.106  0.7058  0.0869  0.5274
 2014TIP3   OH227456   3.493   0.803  14.016 -0.3259 -0.1026  0.1053
 2014TIP3    H127457   3.500   0.844  14.102  1.6710 -0.7747  0.2898
 2014TIP3    H227458   3.437   0.862  13.966 -0.0347  1.2326  1.3126
 2015TIP3   OH227459   3.953   0.563   2.176 -0.1418 -0.4751 -0.4118
 2015TIP3    H127460   4.039   0.604   2.179 -0.0380 -0.7906  1.9318
 2015TIP3    H227461   3.911   0.600   2.098  1.4553  1.0088 -0.5934
 2016TIP3   OH227462   5.861   1.544  14.378 -0.1819  0.2373  0.1129
 2016TIP3    H127463   5.942   1.564  14.331  0.6976 -0.6225  1.2400
 2016TIP3    H227464   5.833   1.628  14.415  0.0792  0.5696 -0.4281
 2017TIP3   OH227465   6.475   1.428  16.800 -0.0411 -0.1670  0.3344
 2017TIP3    H127466   6.527   1.377  16.737  0.9443  0.4306  0.6549
 2017TIP3    H227467   6.405   1.369  16.827 -0.0176 -0.6970 -0.7433
 2018TIP3   OH227468   2.313   5.374   0.295 -0.0736 -0.4657 -0.0292
 2018TIP3    H127469   2.265   5.323   0.360 -0.6566 -2.1139 -1.7168
 2018TIP3    H227470   2.388   5.319   0.272  1.4272  1.1235  0.9339
 2019TIP3   OH227471   2.860   6.625  11.100 -0.1744 -0.3909 -0.3196
 2019TIP3    H127472   2.932   6.589  11.152  1.2274  0.5829 -1.5462
 2019TIP3    H227473   2.807   6.673  11.163  0.2838 -1.0716  0.5951
 2020TIP3   OH227474   1.058   5.811  17.094 -0.2407  0.1018  0.3536
 2020TIP3    H127475   1.061   5.816  16.998 -1.3708  1.4482  0.3720
 2020TIP3    H227476   1.013   5.729  17.112 -0.0998 -0.1173 -0.2752
 2021TIP3   OH227477   2.924   5.823  16.360  0.1201  0.5035  0.1556
 2021TIP3    H127478   2.903   5.754  16.297  1.3366 -0.9506  1.3218
 2021TIP3    H227479   2.859   5.812  16.430  0.0752  0.7823  0.1588
 2022TIP3   OH227480   3.036   3.368   4.618  0.5622  0.0964  0.2417
 2022TIP3    H127481   3.001   3.335   4.701 -0.3878 -0.2295 -0.2806
 2022TIP3    H227482   3.010   3.303   4.553 -1.6641  2.0091 -0.8736
 2023TIP3   OH227483   3.691   3.406   3.401  0.3174  0.1123 -0.4622
 2023TIP3    H127484   3.663   3.462   3.329 -1.2073 -1.5851 -1.2223
 2023TIP3    H227485   3.780   3.379   3.377 -0.4428 -1.0083 -2.0640
 2024TIP3   OH227486   0.506   4.677   1.149  0.2187 -0.7476  0.2942
 2024TIP3    H127487   0.515   4.674   1.244  1.8763 -2.0778  0.1171
 2024TIP3    H227488   0.595   4.668   1.116 -0.4550 -1.4503 -1.4107
 2025TIP3   OH227489   2.457   4.139  17.212 -0.2490 -0.0564 -0.6434
 2025TIP3    H127490   2.419   4.211  17.262  0.5044  0.4908 -0.8678
 2025TIP3    H227491   2.402   4.063  17.234 -0.3765  0.3432  0.4250
 2026TIP3   OH227492   5.434   6.584  12.852  0.1681  0.0400  0.0397
 2026TIP3    H127493   5.430   6.663  12.905  1.9223 -0.2861  0.7076
 2026TIP3    H227494   5.524   6.582  12.818 -0.3521 -0.7795 -1.3551
 2027TIP3   OH227495   6.159   2.767  11.076 -0.4657 -0.3228 -0.0817
 2027TIP3    H127496   6.156   2.672  11.070 -0.4307 -0.3048 -0.3833
 2027TIP3    H227497   6.240   2.785  11.125 -1.6277 -0.5285  1.9979
 2028TIP3   OH227498   5.550   1.747  12.100  0.6546  1.0326  0.1369
 2028TIP3    H127499   5.484   1.811  12.075  2.6257  2.3947 -1.8020
 2028TIP3    H227500   5.530   1.669  12.048  1.0756  1.7505 -1.1204
 2029TIP3   OH227501   0.436   6.102   2.482  0.7049  0.1454 -0.4344
 2029TIP3    H127502   0.383   6.045   2.537  0.0892  1.4166  0.3162
 2029TIP3    H227503   0.489   6.043   2.429  0.1519 -1.1089  0.4078
 2030TIP3   OH227504   3.835   1.905   1.645 -0.0341  0.0390  0.5516
 2030TIP3    H127505   3.860   1.911   1.737 -0.2218 -1.4621  0.7159
 2030TIP3    H227506   3.749   1.863   1.646 -0.3091  0.5683 -0.2775
 2031TIP3   OH227507   2.225   2.368  15.297 -0.2005  0.0763 -0.2537
 2031TIP3    H127508   2.226   2.319  15.379  0.2145  0.3202 -0.1074
 2031TIP3    H227509   2.170   2.316  15.238  1.1951 -1.1880 -0.4791
 2032TIP3   OH227510   2.715   0.522  11.608  0.1199  0.7762  0.2642
 2032TIP3    H127511   2.646   0.588  11.617 -0.0747  1.0144 -2.6108
 2032TIP3    H227512   2.668   0.438  11.614 -0.4802  0.9356 -1.8113
 2033TIP3   OH227513   5.277   6.565   0.512 -0.2383 -0.3569  0.0082
 2033TIP3    H127514   5.203   6.545   0.454  0.2911  0.0490 -0.8191
 2033TIP3    H227515   5.236   6.582   0.597 -0.9176 -2.1735  0.0634
 2034TIP3   OH227516   6.651   2.972  12.419 -0.3144 -0.0303  0.1162
 2034TIP3    H127517   6.665   2.943  12.328  1.2375  1.5841 -0.1884
 2034TIP3    H227518   6.651   3.068  12.413 -2.1815  0.0632  1.5468
 2035TIP3   OH227519   3.575   2.696  14.542 -0.0563  0.7043  0.3932
 2035TIP3    H127520   3.595   2.752  14.617  1.7153  0.3878  0.1616
 2035TIP3    H227521   3.594   2.751  14.466 -1.2245  0.8006  0.1600
 2036TIP3   OH227522   4.719   1.231  15.622 -0.5735 -0.7387  0.1358
 2036TIP3    H127523   4.782   1.279  15.676 -1.2118 -0.3631  0.5469
 2036TIP3    H227524   4.774   1.182  15.561  0.1363 -0.6753  0.7060
 2037TIP3   OH227525   1.767   0.331   1.405 -0.0110  0.1960  0.2186
 2037TIP3    H127526   1.824   0.284   1.344 -1.0577  0.4957 -1.0231
 2037TIP3    H227527   1.709   0.263   1.440  0.1032  0.1446  0.3067
 2038TIP3   OH227528   3.114   0.044   5.417  0.2207  0.1611 -0.0398
 2038TIP3    H127529   3.192   0.018   5.467  1.4775  2.8593 -0.5375
 2038TIP3    H227530   3.123  -0.000   5.333  0.1322 -1.1913  0.6443
 2039TIP3   OH227531   5.991   3.416  11.640  0.2346 -0.0269 -0.6461
 2039TIP3    H127532   6.017   3.470  11.715 -0.2548  0.9553 -1.1818
 2039TIP3    H227533   6.028   3.459  11.564  0.2789 -0.7328 -1.0332
 2040TIP3   OH227534   3.303   0.711   3.188  0.3291 -0.1388  0.2227
 2040TIP3    H127535   3.377   0.727   3.247  0.5206  1.5637 -0.4463
 2040TIP3    H227536   3.247   0.650   3.236  1.1451  0.1793  1.6092
 2041TIP3   OH227537   0.274   2.880  15.195  0.1493  0.5994  0.3448
 2041TIP3    H127538   0.285   2.807  15.134  0.1210  1.8103 -1.1287
 2041TIP3    H227539   0.338   2.945  15.167  0.9252  0.7312  2.3101
 2042TIP3   OH227540   1.261   1.940  15.683 -0.0419 -0.1347  0.0482
 2042TIP3    H127541   1.189   1.936  15.745 -0.0611 -1.5724 -0.0485
 2042TIP3    H227542   1.242   2.017  15.629 -2.3303 -1.3458 -0.9513
 2043TIP3   OH227543   4.102   5.357   0.533  0.0642 -0.0437 -0.6837
 2043TIP3    H127544   4.039   5.429   0.531  0.4618  0.2920 -1.7638
 2043TIP3    H227545   4.186   5.398   0.517  0.2974 -0.7475 -1.3125
 2044TIP3   OH227546   1.422   1.494   5.891 -0.8289  0.6527  0.6953
 2044TIP3    H127547   1.444   1.540   5.972  2.0825 -1.1145  0.9936
 2044TIP3    H227548   1.450   1.553   5.821  1.8083 -0.0950  1.0635
 2045TIP3   OH227549   3.526   4.984  11.314 -0.4877 -0.4642  0.5480
 2045TIP3    H127550   3.442   4.952  11.346 -0.9820 -0.6341 -0.8851
 2045TIP3    H227551   3.560   4.913  11.261 -0.4663  0.4501 -0.6793
 2046TIP3   OH227552   0.753   5.874   4.016 -0.3583  0.3232  0.8263
 2046TIP3    H127553   0.727   5.931   4.089 -1.3772  0.1216  0.6378
 2046TIP3    H227554   0.840   5.904   3.992 -0.3586  0.9576  1.5732
 2047TIP3   OH227555   2.391   1.717  15.532 -0.2730  0.3806 -0.6507
 2047TIP3    H127556   2.482   1.694  15.511 -0.3561 -0.4783 -0.0878
 2047TIP3    H227557   2.391   1.812  15.535  0.0654  0.4968 -3.0977
 2048TIP3   OH227558   1.981   4.083  12.141 -0.0641 -0.3292  0.2732
 2048TIP3    H127559   2.007   4.099  12.050 -2.5601  1.2786 -0.2284
 2048TIP3    H227560   1.999   4.166  12.186  2.2612 -1.4904  1.5584
 2049TIP3   OH227561   0.357   5.054  16.949  0.2057 -0.3286  0.4279
 2049TIP3    H127562   0.299   4.999  17.002 -1.2554  0.4511 -0.3404
 2049TIP3    H227563   0.300   5.094  16.883  1.6006  0.5139 -0.3016
 2050TIP3   OH227564   3.329   4.193   0.297 -0.0306 -0.0223  0.3028
 2050TIP3    H127565   3.260   4.172   0.234  0.3725 -0.1255 -0.1057
 2050TIP3    H227566   3.343   4.111   0.345 -0.5834  0.1508  0.7710
 2051TIP3   OH227567   4.966   2.018   0.106  0.0220  0.7481  0.4273
 2051TIP3    H127568   4.946   2.059   0.022 -0.3071  0.8647  0.5606
 2051TIP3    H227569   4.955   2.088   0.170 -0.7738  0.3973  0.6843
 2052TIP3   OH227570   5.775   6.309   2.561  0.4633  0.0296  0.7665
 2052TIP3    H127571   5.778   6.218   2.531 -0.0860  0.4575 -0.6343
 2052TIP3    H227572   5.735   6.304   2.648 -0.5345 -0.9719  0.2697
 2053TIP3   OH227573   4.710   0.519   6.070 -0.2404  0.1104 -0.2596
 2053TIP3    H127574   4.801   0.494   6.084 -0.2132 -0.1469 -0.8473
 2053TIP3    H227575   4.670   0.515   6.156 -0.2209 -1.9682 -0.3207
 2054TIP3   OH227576   3.530   2.160  12.405  0.3638  0.3304 -0.7959
 2054TIP3    H127577   3.454   2.121  12.363 -0.7446  0.5333  1.0108
 2054TIP3    H227578   3.596   2.163  12.335 -0.6436 -1.5767 -1.8746
 2055TIP3   OH227579   0.780   6.164  16.130 -0.0972 -0.4147  0.7102
 2055TIP3    H127580   0.771   6.235  16.194  0.4244 -1.4026  1.8943
 2055TIP3    H227581   0.846   6.106  16.168 -0.8425 -1.7664 -0.0485
 2056TIP3   OH227582   2.094   0.530  13.438  0.2599 -0.2596 -0.2165
 2056TIP3    H127583   2.090   0.567  13.350 -0.9326  1.2748  0.4507
 2056TIP3    H227584   2.178   0.559  13.472  0.1571  0.2478 -0.3873
 2057TIP3   OH227585   2.955   1.961   1.663 -0.3738 -0.0509  0.6789
 2057TIP3    H127586   2.955   1.957   1.568 -0.1559  0.7080  0.6450
 2057TIP3    H227587   3.000   2.043   1.684 -1.1922  0.2152  1.4177
 2058TIP3   OH227588   4.183   0.613   5.891 -0.2593 -0.0107  0.0828
 2058TIP3    H127589   4.265   0.568   5.869 -0.5215 -0.7338  0.5722
 2058TIP3    H227590   4.120   0.580   5.826  0.6553  3.2643 -2.6604
 2059TIP3   OH227591   2.573   2.101  13.111  0.0512  0.6953  0.0027
 2059TIP3    H127592   2.487   2.099  13.068 -1.5219  1.2104  3.0458
 2059TIP3    H227593   2.623   2.031  13.067 -2.7230 -1.2870 -0.1296
 2060TIP3   OH227594   4.209   0.507  13.826 -0.0787 -0.3639  0.1436
 2060TIP3    H127595   4.250   0.486  13.909 -1.6136 -0.8172  0.7999
 2060TIP3    H227596   4.139   0.569  13.849 -1.1784 -1.2831 -0.6613
 2061TIP3   OH227597   6.040   4.865  13.846  0.0489  0.7171 -0.3653
 2061TIP3    H127598   5.988   4.881  13.767  0.5159  1.0991 -0.5993
 2061TIP3    H227599   6.042   4.769  13.854 -1.0939  0.7094 -0.0814
 2062TIP3   OH227600   3.522   0.062  13.213  0.2106  0.0830  0.1499
 2062TIP3    H127601   3.593   0.030  13.157 -0.3769 -1.4287  0.2406
 2062TIP3    H227602   3.549   0.038  13.302 -1.4986 -2.7017 -0.0175
 2063TIP3   OH227603   2.990   1.180   0.522 -0.2160 -0.4264  0.1758
 2063TIP3    H127604   3.038   1.262   0.507  2.2068 -1.7332  0.6316
 2063TIP3    H227605   2.986   1.139   0.436 -0.1730 -0.5217  0.2203
 2064TIP3   OH227606   6.004   6.171  13.955  0.0746  0.0301 -0.7000
 2064TIP3    H127607   6.010   6.266  13.967 -0.0104 -0.0866  0.2948
 2064TIP3    H227608   6.078   6.135  14.004  0.1494 -0.4188 -1.1292
 2065TIP3   OH227609   4.815   5.625   2.492 -0.1759 -0.4141  0.3600
 2065TIP3    H127610   4.838   5.541   2.453  3.0663  0.2768  0.5760
 2065TIP3    H227611   4.815   5.609   2.586  1.9492  0.0941  0.4837
 2066TIP3   OH227612   4.114   3.357   0.545  0.4137 -0.5955  0.1110
 2066TIP3    H127613   4.176   3.289   0.519  0.7101  0.0207 -0.8355
 2066TIP3    H227614   4.041   3.348   0.483  0.3446 -0.2140  0.1377
 2067TIP3   OH227615   5.497   2.666   1.190  0.1289  0.6768  0.0209
 2067TIP3    H127616   5.418   2.656   1.137  1.6010  2.1965 -2.5431
 2067TIP3    H227617   5.521   2.576   1.214 -2.0522  0.1600  0.3698
 2068TIP3   OH227618   2.149   0.118   4.084  0.5235  0.2019  1.1786
 2068TIP3    H127619   2.112   0.081   4.004  1.3672  0.6911  0.5464
 2068TIP3    H227620   2.111   0.066   4.155 -0.4561 -0.0460  0.4809
 2069TIP3   OH227621   6.293   5.888  11.581 -0.0258 -0.3648  0.0393
 2069TIP3    H127622   6.248   5.839  11.512  1.8067 -0.6735 -0.9666
 2069TIP3    H227623   6.225   5.904  11.647 -2.1886  1.1065 -2.4015
 2070TIP3   OH227624   2.550   1.310  16.816 -0.2338  0.0802 -0.7252
 2070TIP3    H127625   2.610   1.273  16.751  0.3522 -1.6871  0.7782
 2070TIP3    H227626   2.488   1.240  16.834  0.4282  0.0677  1.6040
 2071TIP3   OH227627   4.427   2.228   0.342 -0.0068 -0.1670 -0.0845
 2071TIP3    H127628   4.495   2.198   0.282  0.4124  1.2831 -0.3538
 2071TIP3    H227629   4.345   2.200   0.302  0.3071  0.3052 -1.0683
 2072TIP3   OH227630   0.961   0.496   2.294 -0.1290  0.2484 -0.0401
 2072TIP3    H127631   0.960   0.552   2.372 -1.0846 -0.4270  0.4448
 2072TIP3    H227632   0.902   0.539   2.233  0.1980  0.4861 -0.1940
 2073TIP3   OH227633   2.639   6.501   3.038 -0.1748 -0.0589  0.3452
 2073TIP3    H127634   2.653   6.516   2.945 -1.0160  1.5695  0.4699
 2073TIP3    H227635   2.650   6.406   3.049 -3.5534 -0.8232 -2.0488
 2074TIP3   OH227636   2.244   4.152   5.549 -0.0806  0.1279  0.4038
 2074TIP3    H127637   2.200   4.105   5.478  0.9937 -0.3411  0.0395
 2074TIP3    H227638   2.205   4.239   5.548 -0.5524 -0.0918 -0.3237
 2075TIP3   OH227639   3.486   2.789  16.734  0.0410  0.2166 -0.4482
 2075TIP3    H127640   3.520   2.771  16.822 -1.6674 -1.4357 -0.0955
 2075TIP3    H227641   3.474   2.884  16.733  2.5608  0.5803  0.1533
 2076TIP3   OH227642   6.365   4.225  15.381  0.3369  0.1185  0.0881
 2076TIP3    H127643   6.281   4.270  15.384 -0.6872 -1.7643  0.0996
 2076TIP3    H227644   6.378   4.204  15.289  1.4336  1.5428 -0.1022
 2077TIP3   OH227645   5.765   5.471   1.934 -0.2768  0.0906 -0.2782
 2077TIP3    H127646   5.855   5.488   1.963  0.2856 -1.0005 -1.3289
 2077TIP3    H227647   5.733   5.403   1.993 -0.5510  0.7117  0.3081
 2078TIP3   OH227648   5.440   5.155  13.044  0.0838  0.0114  0.4836
 2078TIP3    H127649   5.446   5.087  13.111  1.4327  0.1822  0.5423
 2078TIP3    H227650   5.491   5.228  13.078 -0.9780  0.8856  0.2066
 2079TIP3   OH227651   5.036   5.307   4.240 -0.3411 -0.4581  0.2758
 2079TIP3    H127652   4.955   5.336   4.282 -2.1372 -0.6217 -2.8677
 2079TIP3    H227653   5.101   5.374   4.264 -2.0482  1.0444  0.8314
 2080TIP3   OH227654   6.574   2.796   3.317  0.0453 -0.7165 -0.0668
 2080TIP3    H127655   6.495   2.742   3.320  0.7701 -1.8380 -0.8086
 2080TIP3    H227656   6.644   2.735   3.296  0.9887  0.4087 -0.2480
 2081TIP3   OH227657   0.386   4.238   5.838 -0.5216  0.1529 -0.5626
 2081TIP3    H127658   0.321   4.298   5.873 -0.3595  1.1899 -1.9762
 2081TIP3    H227659   0.466   4.258   5.888 -0.1630  1.9575 -1.7739
 2082TIP3   OH227660   3.143   6.467  10.321 -0.5410 -0.0179  0.5289
 2082TIP3    H127661   3.054   6.501  10.317 -0.4111  0.3413  0.6460
 2082TIP3    H227662   3.184   6.515  10.393 -0.4304 -0.6165  0.8705
 2083TIP3   OH227663   6.549   2.614  13.072 -0.6240  0.6916 -0.3881
 2083TIP3    H127664   6.579   2.524  13.087 -3.0878 -0.4542 -2.0887
 2083TIP3    H227665   6.458   2.615  13.102 -0.7530  2.5119 -0.7609
 2084TIP3   OH227666   4.260   1.559  15.316 -0.4497 -0.2145 -0.0048
 2084TIP3    H127667   4.304   1.477  15.297  0.6668 -0.0113  1.6941
 2084TIP3    H227668   4.330   1.620  15.339 -1.4195  0.7195  0.5304
 2085TIP3   OH227669   1.496   5.445  16.679  0.2794 -0.7022 -0.0041
 2085TIP3    H127670   1.565   5.477  16.621 -0.2155 -0.0224 -0.2158
 2085TIP3    H227671   1.428   5.412  16.620  0.7768 -2.1726  0.2027
 2086TIP3   OH227672   5.325   0.709   0.696 -0.3525  0.2888  0.3124
 2086TIP3    H127673   5.365   0.790   0.727 -0.1734  0.3766 -0.1404
 2086TIP3    H227674   5.354   0.642   0.758 -0.8346  0.6397  0.9261
 2087TIP3   OH227675   5.927   5.525   2.648 -0.1255 -0.7044 -0.0035
 2087TIP3    H127676   6.016   5.524   2.682 -0.0857  1.2918 -0.0030
 2087TIP3    H227677   5.889   5.443   2.678  2.5020 -2.8162 -2.1658
 2088TIP3   OH227678   0.194   5.274  13.822 -0.0962 -0.2086 -0.2640
 2088TIP3    H127679   0.199   5.370  13.824  0.2905 -0.2267 -0.3676
 2088TIP3    H227680   0.116   5.256  13.769 -0.9249  0.0569  0.8629
 2089TIP3   OH227681   5.788   1.174  16.533 -0.4423  0.8604  0.6047
 2089TIP3    H127682   5.868   1.221  16.512 -0.4122  1.6876  2.4291
 2089TIP3    H227683   5.791   1.164  16.628 -0.2425 -3.2572  0.2478
 2090TIP3   OH227684   5.234   0.215   3.156 -0.4066 -0.2408  1.0444
 2090TIP3    H127685   5.184   0.297   3.161  2.0805  1.3088  0.9869
 2090TIP3    H227686   5.166   0.147   3.152 -2.5405  1.8941 -1.0094
 2091TIP3   OH227687   0.108   5.535   3.870 -0.1863 -0.0099  0.4355
 2091TIP3    H127688   0.157   5.607   3.910 -0.2091  2.1475 -3.1415
 2091TIP3    H227689   0.025   5.575   3.842 -1.2392 -2.0223  0.5620
 2092TIP3   OH227690   1.722   6.677  14.542  0.3937  0.4572  0.6156
 2092TIP3    H127691   1.760   6.711  14.461  1.4625  1.8224  1.6745
 2092TIP3    H227692   1.743   6.583  14.541  0.9413  0.5883 -0.3826
 2093TIP3   OH227693   3.115   6.395  15.916  0.2574 -0.7449  0.5557
 2093TIP3    H127694   3.045   6.435  15.967  0.5178  0.1538  0.2236
 2093TIP3    H227695   3.096   6.420  15.825  0.6103 -1.0990  0.3799
 2094TIP3   OH227696   4.008   3.722   3.339  0.0481 -0.7574  0.4195
 2094TIP3    H127697   4.028   3.814   3.355 -1.7405 -0.2536 -0.1814
 2094TIP3    H227698   4.063   3.675   3.402  0.3422  0.7518  1.3190
 2095TIP3   OH227699   0.424   3.369   1.462 -0.6508 -0.7279  0.9475
 2095TIP3    H127700   0.413   3.436   1.395 -0.7355 -0.6604  1.0271
 2095TIP3    H227701   0.518   3.353   1.466 -0.6447 -0.7266  0.8188
 2096TIP3   OH227702   0.034   5.994  13.546 -0.4274 -0.0284  0.3531
 2096TIP3    H127703   0.057   6.046  13.623  1.7513  0.4683 -0.5800
 2096TIP3    H227704   0.001   6.058  13.483  1.5476  0.1781 -0.5224
 2097TIP3   OH227705   2.490   2.405   4.043 -0.3388  0.5338 -0.4896
 2097TIP3    H127706   2.459   2.324   4.084  1.8687  1.0406  2.3826
 2097TIP3    H227707   2.568   2.380   3.994  0.0475  0.8177 -0.0274
 2098TIP3   OH227708   3.780   4.549  14.324 -0.2785  0.4929  0.1489
 2098TIP3    H127709   3.797   4.642  14.332  1.0619  0.2734 -0.0954
 2098TIP3    H227710   3.739   4.525  14.408  1.6705  0.8066  1.2261
 2099TIP3   OH227711   0.981   5.577   1.051  0.1167  0.1635  0.0727
 2099TIP3    H127712   0.903   5.609   1.096 -1.1695 -1.7613 -0.6938
 2099TIP3    H227713   0.947   5.517   0.984  2.2880 -1.7885  0.6367
 2100TIP3   OH227714   3.092   1.091   2.475 -0.6905 -0.1758  0.3636
 2100TIP3    H127715   3.082   1.022   2.540  1.2607  1.3724  2.3812
 2100TIP3    H227716   3.030   1.158   2.501 -0.6388  0.0077  0.0119
 2101TIP3   OH227717   3.116   5.861  15.875  0.4446 -0.2160 -0.3200
 2101TIP3    H127718   3.141   5.954  15.872  0.1144 -0.1563 -1.2703
 2101TIP3    H227719   3.126   5.837  15.967 -0.0742  0.9322  0.0433
 2102TIP3   OH227720   2.775   3.295  12.341 -1.4869 -0.9607 -0.1964
 2102TIP3    H127721   2.732   3.315  12.258  4.5279 -0.3235 -3.4028
 2102TIP3    H227722   2.762   3.201  12.353 -2.8831 -0.9606 -1.5359
 2103TIP3   OH227723   4.320   5.089  15.467  0.5674 -0.5251 -0.2090
 2103TIP3    H127724   4.226   5.108  15.474  0.2990 -0.9735 -2.2489
 2103TIP3    H227725   4.362   5.158  15.519 -0.8153  0.5815 -0.5165
 2104TIP3   OH227726   2.493   3.114  15.736  0.6329 -0.2328 -0.4178
 2104TIP3    H127727   2.520   3.073  15.818  2.9652  0.0899 -0.9878
 2104TIP3    H227728   2.447   3.193  15.763  1.8474  0.1452  0.5638
 2105TIP3   OH227729   2.631   2.240   0.880 -0.2592  0.1326 -0.3489
 2105TIP3    H127730   2.567   2.295   0.925 -1.6524 -1.5827 -0.1765
 2105TIP3    H227731   2.713   2.254   0.927 -1.0371  0.6028  0.8767
 2106TIP3   OH227732   3.174   5.718  16.346 -0.1767  0.3826 -0.0652
 2106TIP3    H127733   3.087   5.750  16.373  0.5003  1.7597  0.5433
 2106TIP3    H227734   3.207   5.672  16.423 -0.1247  0.3634 -0.0992
 2107TIP3   OH227735   3.915   2.164   2.812 -0.2095 -0.1054  0.6932
 2107TIP3    H127736   3.993   2.213   2.839  1.0598 -0.6825 -1.8001
 2107TIP3    H227737   3.843   2.228   2.818  0.8910  1.1799  0.4880
 2108TIP3   OH227738   3.918   5.193  12.152  0.2578 -0.8534  0.0323
 2108TIP3    H127739   3.831   5.221  12.181 -0.6157 -2.3779 -1.0496
 2108TIP3    H227740   3.938   5.250  12.078 -0.8086 -1.9445 -1.1299
 2109TIP3   OH227741   4.355   4.982  12.604  0.5293 -0.0601 -0.4071
 2109TIP3    H127742   4.264   4.961  12.587  0.0269  0.8431  1.0684
 2109TIP3    H227743   4.402   4.900  12.591 -0.5778 -0.6871 -0.4721
 2110TIP3   OH227744   3.908   5.002  14.418 -0.1512 -0.1050  0.1919
 2110TIP3    H127745   3.875   4.929  14.365 -0.1300  0.0174  0.0119
 2110TIP3    H227746   4.003   4.999  14.405 -0.1769  0.1382 -0.0489
 2111TIP3   OH227747   2.677   4.235  11.480 -0.0533  0.0394 -0.2648
 2111TIP3    H127748   2.717   4.266  11.399 -0.5592 -1.8648 -1.2707
 2111TIP3    H227749   2.645   4.314  11.523  0.1260  1.0684 -1.9797
 2112TIP3   OH227750   4.796   5.275   2.452 -0.4609 -0.2339 -0.2105
 2112TIP3    H127751   4.845   5.193   2.453  0.7886  0.4959 -0.6353
 2112TIP3    H227752   4.818   5.315   2.368  0.1821  1.2729  0.6612
 2113TIP3   OH227753   1.792   6.467  12.766  0.5355 -0.0706  0.4311
 2113TIP3    H127754   1.741   6.417  12.702  3.3745 -1.2503 -0.9913
 2113TIP3    H227755   1.771   6.558  12.747 -0.6762 -0.5221 -0.4401
 2114TIP3   OH227756   1.928   0.351   3.047 -0.5078  0.0465  0.0922
 2114TIP3    H127757   1.907   0.330   2.956 -2.4512  0.1176  0.5150
 2114TIP3    H227758   1.974   0.273   3.080 -1.0303 -0.5355 -0.5487
 2115TIP3   OH227759   6.222   5.892   4.137 -0.0767  0.1216  0.1395
 2115TIP3    H127760   6.190   5.915   4.050  0.1714 -1.7773 -0.4884
 2115TIP3    H227761   6.299   5.946   4.150  0.0004  0.2717 -0.9037
 2116TIP3   OH227762   3.007   0.547  13.981 -0.1515  0.6028  0.3667
 2116TIP3    H127763   3.068   0.615  13.952 -0.1302  0.8754  1.0459
 2116TIP3    H227764   2.957   0.588  14.052  1.5991 -0.8853  2.5385
 2117TIP3   OH227765   2.531   2.423   4.591 -0.1430 -0.0882 -0.1461
 2117TIP3    H127766   2.480   2.375   4.656 -0.1306 -0.2700 -0.2694
 2117TIP3    H227767   2.614   2.377   4.587  0.4520  0.8927  0.8839
 2118TIP3   OH227768   4.917   2.655  14.953 -0.3468  0.0366 -0.2508
 2118TIP3    H127769   4.959   2.616  15.030 -0.7591 -1.5745 -0.8246
 2118TIP3    H227770   4.846   2.708  14.988 -1.5816 -2.0064  0.4151
 2119TIP3   OH227771   0.959   6.641   3.025 -0.4310  0.1431 -0.2988
 2119TIP3    H127772   0.907   6.562   3.043 -0.5300  0.1977 -0.3466
 2119TIP3    H227773   1.009   6.618   2.947 -0.0848 -0.0536 -0.0204
 2120TIP3   OH227774   3.958   4.229   5.100  0.2087  0.2721  0.6262
 2120TIP3    H127775   3.862   4.232   5.098  0.2387  1.0483 -0.1014
 2120TIP3    H227776   3.982   4.265   5.186 -0.0966  2.2479 -0.0804
 2121TIP3   OH227777   2.753   0.724   2.622  0.4052  0.0712 -0.3661
 2121TIP3    H127778   2.776   0.726   2.529  0.7913  0.9072 -0.2595
 2121TIP3    H227779   2.725   0.634   2.638  0.7068 -0.1769 -1.2030
 2122TIP3   OH227780   6.665   1.239   1.214 -0.3725 -0.0130  0.7168
 2122TIP3    H127781   6.709   1.298   1.275 -1.4385  0.3709  1.1376
 2122TIP3    H227782   6.572   1.264   1.219 -0.6505 -0.8261 -0.1077
 2123TIP3   OH227783   4.284   1.352  15.795  0.1340 -0.5239 -0.2885
 2123TIP3    H127784   4.264   1.429  15.848 -0.0981  0.2631 -1.4992
 2123TIP3    H227785   4.226   1.284  15.829 -2.1361  0.7818 -1.4420
 2124TIP3   OH227786   0.782   4.770  13.585  0.4781 -0.3481  0.1128
 2124TIP3    H127787   0.743   4.857  13.598 -0.4569 -0.7046 -0.3306
 2124TIP3    H227788   0.713   4.718  13.546  1.8429 -0.5894 -2.0615
 2125TIP3   OH227789   5.371   1.651   5.080 -0.0714  0.3001  0.2310
 2125TIP3    H127790   5.381   1.636   5.174 -1.5690  0.7689  0.4764
 2125TIP3    H227791   5.340   1.741   5.073 -2.6982 -0.6228 -0.5281
 2126TIP3   OH227792   2.749   5.780  16.582 -0.1545 -0.0046 -0.1632
 2126TIP3    H127793   2.839   5.763  16.608  0.1519  0.2988 -1.0282
 2126TIP3    H227794   2.712   5.831  16.654  1.3056  2.6478 -1.2309
 2127TIP3   OH227795   2.246   5.817  15.032 -0.0323 -0.3995 -0.2650
 2127TIP3    H127796   2.208   5.904  15.021 -0.8679 -0.7464 -0.1835
 2127TIP3    H227797   2.315   5.813  14.967 -1.2308 -0.3597 -1.5611
 2128TIP3   OH227798   4.446   0.881  16.243 -0.0127  0.3246 -0.0791
 2128TIP3    H127799   4.473   0.873  16.335 -1.8279 -1.5542  0.3327
 2128TIP3    H227800   4.522   0.853  16.192  0.8811  1.0138  0.8665
 2129TIP3   OH227801   1.429   0.724   3.585 -0.0282 -0.4901  0.2563
 2129TIP3    H127802   1.433   0.799   3.643 -1.4240  0.0376 -0.3068
 2129TIP3    H227803   1.433   0.648   3.643  3.0266 -0.0366  0.7216
 2130TIP3   OH227804   4.024   5.645  16.208 -0.3439  0.7131  0.4653
 2130TIP3    H127805   4.034   5.724  16.154  1.4970  0.0814 -0.1622
 2130TIP3    H227806   4.098   5.648  16.269 -0.4386 -0.3760  0.6419
 2131TIP3   OH227807   1.660   6.458   0.508  0.3073 -0.0534  0.5558
 2131TIP3    H127808   1.745   6.418   0.488  0.1330 -0.3613  0.4161
 2131TIP3    H227809   1.613   6.391   0.557 -0.9844 -1.0748 -1.9549
 2132TIP3   OH227810   4.826   5.880  14.691  0.3053  0.3761  0.0983
 2132TIP3    H127811   4.862   5.793  14.709 -1.6268 -0.3872  0.3869
 2132TIP3    H227812   4.812   5.881  14.597  0.7649  0.5485  0.0305
 2133TIP3   OH227813   0.504   3.462  14.111  0.2751  0.5472 -1.0179
 2133TIP3    H127814   0.488   3.517  14.034 -1.0745  0.1995 -1.0126
 2133TIP3    H227815   0.500   3.373  14.078  1.5366  0.4384 -0.8643
 2134TIP3   OH227816   3.902   5.107  12.671  0.8925 -0.1548 -0.0472
 2134TIP3    H127817   3.873   5.017  12.685  2.4105 -0.7726 -0.8197
 2134TIP3    H227818   3.946   5.106  12.586  2.7107  0.8573  0.8425
 2135TIP3   OH227819   5.491   4.392   3.144  0.4434  0.2049  0.2122
 2135TIP3    H127820   5.529   4.480   3.137  0.2781  0.1525 -1.3928
 2135TIP3    H227821   5.446   4.393   3.229  2.3644  0.9093  1.2707
 2136TIP3   OH227822   5.807   1.818  14.511  0.3129  0.2305 -0.3803
 2136TIP3    H127823   5.849   1.801  14.595  2.6898 -0.2257 -1.6424
 2136TIP3    H227824   5.833   1.908  14.489  0.5858 -0.0358 -1.1459
 2137TIP3   OH227825   2.513   3.442   2.750 -0.0221 -0.0093  0.0325
 2137TIP3    H127826   2.570   3.397   2.688 -0.5943  0.9417 -1.2008
 2137TIP3    H227827   2.557   3.525   2.768  0.9451 -0.9291  2.1691
 2138TIP3   OH227828   0.838   6.489  12.391 -0.7195 -0.2692  0.7245
 2138TIP3    H127829   0.922   6.523  12.422 -0.0544 -0.5360 -0.7426
 2138TIP3    H227830   0.788   6.567  12.367 -0.8161 -0.1230  1.3859
 2139TIP3   OH227831   0.754   0.636  12.659 -0.1830  0.3054  0.1533
 2139TIP3    H127832   0.669   0.663  12.694 -0.8513  1.0648 -1.9767
 2139TIP3    H227833   0.812   0.710  12.678 -0.2637  0.2397  0.6568
 2140TIP3   OH227834   5.802   3.017  11.290  0.0010 -0.2422 -0.2447
 2140TIP3    H127835   5.754   3.097  11.314 -1.2711 -1.3557  0.9922
 2140TIP3    H227836   5.762   2.990  11.207 -0.9339 -0.6763  0.3349
 2141TIP3   OH227837   4.886   4.345   2.938 -0.0925 -0.7300 -0.3707
 2141TIP3    H127838   4.898   4.435   2.968  0.0433 -0.7034 -0.5015
 2141TIP3    H227839   4.878   4.293   3.018 -2.4419 -0.3085 -0.3019
 2142TIP3   OH227840   3.000   0.033   5.959  0.1057 -0.1378 -0.1199
 2142TIP3    H127841   3.018  -0.026   6.032  0.5361 -1.5274 -1.3055
 2142TIP3    H227842   3.074   0.094   5.959  0.8464 -1.0194 -0.2511
 2143TIP3   OH227843   5.642   6.640   2.116 -0.2557 -0.2786  0.3069
 2143TIP3    H127844   5.655   6.687   2.199 -0.9078  1.2330 -0.4151
 2143TIP3    H227845   5.565   6.681   2.077  0.6654 -0.2139 -1.5462
 2144TIP3   OH227846   5.395   4.391   4.904  0.4349  0.1083  0.4821
 2144TIP3    H127847   5.353   4.317   4.861  0.2313  0.0554  0.7700
 2144TIP3    H227848   5.330   4.461   4.899 -0.2727 -0.3892  2.2023
 2145TIP3   OH227849   0.463   4.656  11.884  0.1362  0.5373 -0.0155
 2145TIP3    H127850   0.480   4.749  11.875  1.0516  0.4154  0.4594
 2145TIP3    H227851   0.528   4.625  11.947 -0.0643 -0.4473 -0.2821
 2146TIP3   OH227852   0.292   6.705  12.724  0.2888 -0.6418  0.4632
 2146TIP3    H127853   0.270   6.796  12.746 -1.9237 -1.1234  0.4111
 2146TIP3    H227854   0.294   6.659  12.809  0.7515 -0.6862  0.4316
 2147TIP3   OH227855   2.129   0.885   4.843  0.6035 -0.0537  0.1565
 2147TIP3    H127856   2.056   0.943   4.825 -0.8014 -1.7115  0.3759
 2147TIP3    H227857   2.131   0.825   4.768  0.4957 -1.2357  1.0867
 2148TIP3   OH227858   2.685   3.085   3.773 -0.1791 -0.0285  0.8038
 2148TIP3    H127859   2.761   3.045   3.731 -0.0661  0.7869  0.2064
 2148TIP3    H227860   2.673   3.036   3.854 -0.4181 -1.6677 -0.1955
 2149TIP3   OH227861   1.222   1.649  16.218 -0.4521  0.1245  0.1681
 2149TIP3    H127862   1.292   1.713  16.200 -0.2611 -0.1884 -0.2186
 2149TIP3    H227863   1.266   1.579  16.267  0.3284 -1.7732 -3.0786
 2150TIP3   OH227864   3.835   1.895  15.567  0.2099  0.2503 -0.2513
 2150TIP3    H127865   3.865   1.816  15.613  0.8271 -0.6935 -2.2265
 2150TIP3    H227866   3.897   1.962  15.594 -0.2853  0.0654  1.4064
 2151TIP3   OH227867   4.711   3.463   0.418  0.3844  0.5026 -0.6637
 2151TIP3    H127868   4.632   3.514   0.402 -1.0472 -1.0631  1.0766
 2151TIP3    H227869   4.776   3.527   0.445 -0.9367  1.6097 -0.0206
 2152TIP3   OH227870   3.575   6.329  12.789  0.0772 -0.4385 -0.0655
 2152TIP3    H127871   3.607   6.249  12.747  1.2102 -1.9365  3.4863
 2152TIP3    H227872   3.651   6.387  12.792  0.4644 -1.0004  1.3943
 2153TIP3   OH227873   5.577   6.089   3.655  0.0565 -0.1830  0.2424
 2153TIP3    H127874   5.507   6.073   3.592 -0.4021 -2.3820  1.2594
 2153TIP3    H227875   5.561   6.027   3.726  1.5234  1.0916  1.7495
 2154TIP3   OH227876   5.644   1.300   4.786 -0.7310  0.5646 -0.1652
 2154TIP3    H127877   5.614   1.358   4.857  0.8052 -0.4641  1.3733
 2154TIP3    H227878   5.594   1.220   4.797  0.3530 -0.0377  0.5334
 2155TIP3   OH227879   6.636   6.079  14.050 -0.0444 -0.3582 -0.4939
 2155TIP3    H127880   6.672   6.167  14.039  0.2634 -0.3875  0.2414
 2155TIP3    H227881   6.578   6.085  14.126 -0.9302 -0.5198 -1.1533
 2156TIP3   OH227882   4.812   3.396   2.461 -0.1581  0.3449  0.2193
 2156TIP3    H127883   4.874   3.409   2.389 -1.1652  0.2673 -0.6705
 2156TIP3    H227884   4.836   3.312   2.500  0.0887  0.1703 -0.3177
 2157TIP3   OH227885   0.396   2.473  14.204  0.0527  0.0015  0.4989
 2157TIP3    H127886   0.302   2.453  14.211 -0.1679  0.7702 -0.1220
 2157TIP3    H227887   0.431   2.405  14.146  0.0673 -0.8525  1.5044
 2158TIP3   OH227888   5.404   3.311   1.177 -0.1162 -0.4245  0.4446
 2158TIP3    H127889   5.439   3.395   1.147  0.6582 -0.3396  1.5804
 2158TIP3    H227890   5.413   3.253   1.101  1.4951 -0.1075  0.3738
 2159TIP3   OH227891   5.801   4.773  15.032  0.0231 -0.1404 -0.1685
 2159TIP3    H127892   5.841   4.740  15.113  0.8471  3.1996  0.8901
 2159TIP3    H227893   5.875   4.808  14.982 -1.0503  2.3836 -0.0520
 2160TIP3   OH227894   3.385   2.282  17.023 -0.3865 -0.0890  0.2883
 2160TIP3    H127895   3.383   2.362  16.971  1.3633 -0.8696 -1.0613
 2160TIP3    H227896   3.409   2.214  16.960  2.1516 -1.0086  2.1703
 2161TIP3   OH227897   4.248   5.647  16.396  0.3749 -0.4886  0.0967
 2161TIP3    H127898   4.243   5.566  16.446 -2.0157 -0.3842  0.1107
 2161TIP3    H227899   4.336   5.681  16.413  0.4969 -1.7518  2.1739
 2162TIP3   OH227900   1.046   3.951  15.714  0.3929 -0.7350 -0.0224
 2162TIP3    H127901   1.046   4.022  15.779 -3.9676 -0.8405  0.2203
 2162TIP3    H227902   1.079   3.875  15.761  1.7473  0.2574  0.6901
 2163TIP3   OH227903   5.305   6.554  12.248  0.2044  0.0778 -0.2265
 2163TIP3    H127904   5.348   6.522  12.169  0.7494 -0.2939  0.2111
 2163TIP3    H227905   5.353   6.633  12.271  0.8983 -0.5284  0.4600
 2164TIP3   OH227906   6.214   6.489  12.310 -0.1219 -0.5707  0.2877
 2164TIP3    H127907   6.212   6.553  12.380  0.1480 -0.3806  0.1237
 2164TIP3    H227908   6.273   6.421  12.341  1.9841  0.7106 -0.7790
 2165TIP3   OH227909   4.745   6.527   2.771 -0.2474  0.3285 -0.0523
 2165TIP3    H127910   4.740   6.573   2.854  0.7650  0.4720 -0.0670
 2165TIP3    H227911   4.838   6.521   2.752 -0.4241 -0.5154 -0.7241
 2166TIP3   OH227912   5.589   3.061   2.506  0.3341  0.7126 -0.0218
 2166TIP3    H127913   5.531   3.135   2.522 -0.7587  0.0677 -0.8586
 2166TIP3    H227914   5.558   3.025   2.422 -1.1222 -2.4636  1.7843
 2167TIP3   OH227915   2.438   6.706  14.817  0.4883 -0.2361 -0.1419
 2167TIP3    H127916   2.513   6.686  14.874  0.5672  0.6498  0.0692
 2167TIP3    H227917   2.373   6.743  14.876  1.2582  2.4133 -0.8951
 2168TIP3   OH227918   0.710   2.775  15.914 -0.0054 -0.5105 -0.2078
 2168TIP3    H127919   0.777   2.827  15.869  1.5860  0.1200  2.7476
 2168TIP3    H227920   0.736   2.684  15.900 -0.2563 -0.3774 -1.6071
 2169TIP3   OH227921   0.773   0.075   1.809 -0.2391 -0.4713 -0.1672
 2169TIP3    H127922   0.711   0.055   1.879  1.7219 -1.5065  1.3130
 2169TIP3    H227923   0.819   0.153   1.839  0.3917 -0.7333 -0.4489
 2170TIP3   OH227924   4.785   1.217  11.388 -0.1731  0.4432 -0.3847
 2170TIP3    H127925   4.875   1.235  11.360  0.4319 -1.5570  0.1821
 2170TIP3    H227926   4.763   1.134  11.344 -0.7618 -0.4709  1.5691
 2171TIP3   OH227927   1.426   5.548   5.700 -0.0105 -0.3700 -0.1385
 2171TIP3    H127928   1.416   5.641   5.717 -0.4998 -0.0235 -2.1584
 2171TIP3    H227929   1.492   5.543   5.631 -0.2932 -1.4650 -0.3406
 2172TIP3   OH227930   6.673   4.942  14.887  0.4915 -0.2826  0.5554
 2172TIP3    H127931   6.670   4.929  14.793  0.7979  0.6904  0.4081
 2172TIP3    H227932   6.599   4.890  14.921  0.0760 -0.2296 -0.2582
 2173TIP3   OH227933   1.568   5.862   1.653  0.0507  0.8616 -0.2880
 2173TIP3    H127934   1.647   5.914   1.639  0.4704  0.5597  0.9101
 2173TIP3    H227935   1.585   5.779   1.610  1.8861 -0.5797  3.0756
 2174TIP3   OH227936   2.959   6.091  16.019  0.1640  0.5321 -0.3561
 2174TIP3    H127937   2.950   6.162  16.083 -1.5328 -0.2069  0.2444
 2174TIP3    H227938   3.048   6.057  16.033 -0.1384  0.4760  1.4955
 2175TIP3   OH227939   1.433   1.484   5.533 -0.2694  0.0271 -0.0994
 2175TIP3    H127940   1.490   1.473   5.456 -0.5739  0.4327 -0.3855
 2175TIP3    H227941   1.490   1.526   5.598 -0.2610  0.5095 -0.4145
 2176TIP3   OH227942   4.274   2.599   2.867 -0.1037 -0.1885  0.0672
 2176TIP3    H127943   4.328   2.558   2.934 -0.0418 -0.9385 -0.4326
 2176TIP3    H227944   4.334   2.611   2.793  0.0566  1.4466  0.4531
 2177TIP3   OH227945   2.516   3.631  12.308 -0.5968  0.0576  0.3840
 2177TIP3    H127946   2.551   3.691  12.374 -0.4691 -0.1624  0.5156
 2177TIP3    H227947   2.432   3.670  12.282 -1.5064 -0.7856  1.9833
 2178TIP3   OH227948   4.508   1.055  12.481 -0.1592 -0.5097  0.4118
 2178TIP3    H127949   4.536   0.976  12.435  1.5022  0.2865  0.0209
 2178TIP3    H227950   4.562   1.057  12.560 -0.4186  0.0521  0.5767
 2179TIP3   OH227951   1.563   2.889   1.817  0.8900  0.3657 -0.2406
 2179TIP3    H127952   1.574   2.869   1.724 -0.0734  0.7635 -0.4517
 2179TIP3    H227953   1.652   2.901   1.849  1.2506 -0.0621 -1.0464
 2180TIP3   OH227954   6.496   6.379   2.904 -0.4007  0.4722 -0.4045
 2180TIP3    H127955   6.510   6.349   2.814 -1.8262  0.3651 -0.6087
 2180TIP3    H227956   6.580   6.368   2.947 -1.0575 -4.9739 -0.1447
 2181TIP3   OH227957   3.347   1.649   1.447 -0.6151 -0.0134 -0.2339
 2181TIP3    H127958   3.378   1.700   1.522  0.4027  0.4872 -0.9873
 2181TIP3    H227959   3.280   1.703   1.406 -0.5810  0.0771 -0.1694
 2182TIP3   OH227960   3.039   0.240  16.618 -0.1514 -0.3443 -0.4380
 2182TIP3    H127961   3.110   0.206  16.672 -1.0376 -0.3752  0.7469
 2182TIP3    H227962   2.966   0.179  16.633 -1.1392  0.9556  0.1668
 2183TIP3   OH227963   1.691   1.841   1.189  0.4950 -0.0516  0.3622
 2183TIP3    H127964   1.719   1.865   1.100 -1.2264 -0.2350 -0.2465
 2183TIP3    H227965   1.626   1.773   1.176  1.3605 -1.1941  1.8585
 2184TIP3   OH227966   5.548   3.551  11.280 -0.4730  0.3510  0.3650
 2184TIP3    H127967   5.498   3.537  11.199 -1.1580 -0.7368  0.9586
 2184TIP3    H227968   5.637   3.522  11.258 -0.5401  0.5170 -0.1419
 2185TIP3   OH227969   6.205   5.950  14.488 -0.2693  0.0803 -0.1899
 2185TIP3    H127970   6.264   5.955  14.413  1.9394  1.1235  1.5482
 2185TIP3    H227971   6.186   6.041  14.510 -1.0927 -0.2188  0.3640
 2186TIP3   OH227972   0.857   5.040  16.467  0.2245 -0.1854  0.3119
 2186TIP3    H127973   0.807   5.121  16.461  0.4942 -0.0269  0.1896
 2186TIP3    H227974   0.928   5.059  16.529  0.5702 -0.1741 -0.0811
 2187TIP3   OH227975   4.310   2.844   5.017 -0.6699  0.3119 -0.0168
 2187TIP3    H127976   4.363   2.889   5.082 -1.2637 -1.2982  1.6198
 2187TIP3    H227977   4.256   2.783   5.067 -1.4665 -0.6551 -1.9673
 2188TIP3   OH227978   2.833   4.341   5.295 -0.0730 -0.1746 -0.0129
 2188TIP3    H127979   2.902   4.278   5.276  1.2903  0.7441  1.6356
 2188TIP3    H227980   2.870   4.397   5.364 -1.2574  2.3425 -1.3158
 2189TIP3   OH227981   6.524   0.359   5.691 -0.6148  0.0097  0.1436
 2189TIP3    H127982   6.585   0.303   5.740 -1.9538 -0.8673  0.8500
 2189TIP3    H227983   6.546   0.342   5.599 -0.4293 -1.0364  0.3653
 2190TIP3   OH227984   1.846   0.123   4.599  0.1684 -0.3560  0.2104
 2190TIP3    H127985   1.925   0.162   4.638  0.6350 -1.1963  0.1106
 2190TIP3    H227986   1.868   0.031   4.588 -0.4678 -0.3911 -0.7636
 2191TIP3   OH227987   0.220   1.498  13.155 -0.2284  0.5069  0.1377
 2191TIP3    H127988   0.232   1.476  13.247 -1.9553  1.6172  0.6632
 2191TIP3    H227989   0.308   1.494  13.117  0.1663 -2.2638  1.2895
 2192TIP3   OH227990   4.212   0.957  14.789 -0.4237  0.2670 -0.0716
 2192TIP3    H127991   4.271   0.964  14.714 -0.8129  0.3668 -0.3675
 2192TIP3    H227992   4.160   1.037  14.787  1.7599  1.8446  2.1872
 2193TIP3   OH227993   0.817   5.666  16.510  0.0205 -0.3174 -0.1011
 2193TIP3    H127994   0.811   5.751  16.467  1.3552 -1.6273 -3.1025
 2193TIP3    H227995   0.747   5.614  16.469 -0.1790 -0.9566  1.0236
 2194TIP3   OH227996   2.590   5.949  14.157 -0.0127  0.0709 -1.0025
 2194TIP3    H127997   2.644   6.015  14.114 -0.3835  1.6597  0.9054
 2194TIP3    H227998   2.514   5.997  14.189 -0.2792 -1.2665  0.4727
 2195TIP3   OH227999   4.992   3.923   5.347  0.3580  0.0799  0.6855
 2195TIP3    H128000   4.998   3.841   5.396 -0.8245 -0.9277 -0.8205
 2195TIP3    H228001   4.899   3.933   5.328  0.4912  1.7951  0.8781
 2196TIP3   OH228002   3.560   3.433   4.173  0.5827 -0.0354  0.4718
 2196TIP3    H128003   3.542   3.527   4.173 -0.3168 -0.1726 -1.5589
 2196TIP3    H228004   3.516   3.400   4.095  3.0697 -1.7248 -0.2902
 2197TIP3   OH228005   6.721   6.104   5.660 -0.1284 -0.4587  0.1312
 2197TIP3    H128006   6.718   6.026   5.604  0.5199 -0.5659  0.2445
 2197TIP3    H228007   6.641   6.153   5.637 -0.8748 -1.4747  0.5258
 2198TIP3   OH228008   0.988   3.541  15.430 -0.3079 -0.1265  0.4229
 2198TIP3    H128009   1.060   3.544  15.366  0.0489 -1.1373  0.7642
 2198TIP3    H228010   1.014   3.605  15.497  1.8135 -2.6270  2.0999
 2199TIP3   OH228011   0.132   2.624  11.257  0.1024  0.0890  0.1975
 2199TIP3    H128012   0.079   2.596  11.332 -0.9815  0.6588 -0.3523
 2199TIP3    H228013   0.073   2.617  11.182  0.1246  2.8417 -0.1034
 2200TIP3   OH228014   5.804   5.304   3.936 -0.6241  0.0183  0.3259
 2200TIP3    H128015   5.752   5.268   3.864 -0.3754 -0.6501  0.4773
 2200TIP3    H228016   5.890   5.262   3.927 -0.8925 -0.8104  1.5950
 2201TIP3   OH228017   4.593   0.065   6.179  0.0576 -0.4134 -0.3679
 2201TIP3    H128018   4.615  -0.023   6.210 -1.2108 -0.7453 -0.3628
 2201TIP3    H228019   4.585   0.117   6.259  1.2218 -0.1943 -0.3944
 2202TIP3   OH228020   5.264   2.802   1.107  0.0341  0.0331  0.7514
 2202TIP3    H128021   5.214   2.727   1.138  0.5216 -0.6857 -0.1938
 2202TIP3    H228022   5.204   2.876   1.114 -0.7296 -0.6000  0.8344
 2203TIP3   OH228023   1.122   2.706  11.952 -0.1363  0.0730 -0.0744
 2203TIP3    H128024   1.202   2.654  11.940 -0.8779 -0.9955 -0.4213
 2203TIP3    H228025   1.064   2.677  11.882 -0.6496  1.2086 -0.1221
 2204TIP3   OH228026   1.473   5.070  16.138 -0.2906  0.2839 -0.2437
 2204TIP3    H128027   1.539   5.117  16.190 -1.3104  0.7942  0.6100
 2204TIP3    H228028   1.504   4.980  16.137 -1.1096 -0.0743  2.7145
 2205TIP3   OH228029   2.178   4.154  11.197 -0.3167 -0.6664 -0.3601
 2205TIP3    H128030   2.123   4.137  11.120 -0.2877 -1.1305 -0.2809
 2205TIP3    H228031   2.267   4.161  11.161 -0.3031 -0.8819 -0.3757
 2206TIP3   OH228032   0.713   2.062   0.978  0.2398 -0.1019 -0.5192
 2206TIP3    H128033   0.776   1.991   0.991 -0.9571 -0.9252  0.9236
 2206TIP3    H228034   0.751   2.137   1.024  0.6900 -0.2594 -0.6254
 2207TIP3   OH228035   0.903   3.201  11.835 -0.2332 -0.0467 -0.2809
 2207TIP3    H128036   0.875   3.154  11.914 -1.9604 -0.3401 -1.0544
 2207TIP3    H228037   0.842   3.274  11.827 -0.7284 -0.6228 -1.9354
 2208TIP3   OH228038   0.959   2.116  13.127  0.1676  0.4552 -0.2609
 2208TIP3    H128039   0.887   2.100  13.065  0.2647  0.8394 -0.4764
 2208TIP3    H228040   0.917   2.121  13.212 -0.1128  1.0658 -0.4322
 2209TIP3   OH228041   5.022   4.348   2.507  0.5079  0.2036  0.4486
 2209TIP3    H128042   5.065   4.277   2.554  0.8454 -0.2754 -0.5543
 2209TIP3    H228043   5.003   4.310   2.420 -1.7554  0.4420  0.7969
 2210TIP3   OH228044   1.519   2.695   5.219  0.3493  0.0148 -0.7112
 2210TIP3    H128045   1.457   2.765   5.242  1.5672  1.0158 -0.4081
 2210TIP3    H228046   1.605   2.735   5.231  1.0676 -1.6849 -0.0921
 2211TIP3   OH228047   0.583   3.848  11.779  0.1952 -0.0568  0.6824
 2211TIP3    H128048   0.673   3.821  11.760 -0.6738 -2.5060 -0.1550
 2211TIP3    H228049   0.549   3.878  11.695  0.4788  1.7236  1.1802
 2212TIP3   OH228050   2.175   1.608   3.441  0.2922  0.3935 -0.0358
 2212TIP3    H128051   2.081   1.607   3.425  0.0522 -0.4018  1.3404
 2212TIP3    H228052   2.198   1.701   3.443 -0.7132  0.6313  1.0088
 2213TIP3   OH228053   2.167   3.480   0.073  0.3791  0.2521 -0.2318
 2213TIP3    H128054   2.208   3.516   0.152 -0.7482  0.4168  0.2768
 2213TIP3    H228055   2.139   3.558   0.024 -0.0937  0.1205 -0.1703
 2214TIP3   OH228056   5.154   5.755  13.930  0.1283 -0.1025  0.5190
 2214TIP3    H128057   5.250   5.761  13.922  0.2453  0.6698  2.2149
 2214TIP3    H228058   5.133   5.812  14.004 -1.5952 -0.7127  0.5130
 2215TIP3   OH228059   0.900   1.346  13.465  0.1076 -0.3089  0.2881
 2215TIP3    H128060   0.823   1.308  13.505  0.5052 -1.5425 -0.0925
 2215TIP3    H228061   0.940   1.399  13.534  0.2030 -1.5500  1.1966
 2216TIP3   OH228062   2.317   2.742   2.297 -0.0680 -0.5104  0.1220
 2216TIP3    H128063   2.276   2.806   2.239 -1.3138 -3.1941 -2.0916
 2216TIP3    H228064   2.403   2.727   2.259  0.9767  1.1940  1.7320
 2217TIP3   OH228065   4.232   5.317  15.217 -0.2486 -0.5040  0.3478
 2217TIP3    H128066   4.195   5.319  15.305  0.0596 -1.1065  0.4976
 2217TIP3    H228067   4.207   5.400  15.178 -1.4269 -0.7347  0.5819
 2218TIP3   OH228068   3.013   3.925  12.071 -0.1557 -0.3152  0.2717
 2218TIP3    H128069   3.050   3.851  12.022 -0.1723 -1.1256  1.4612
 2218TIP3    H228070   3.083   3.990  12.073  0.6707 -1.1983  1.1174
 2219TIP3   OH228071   5.403   1.033   0.088  0.5832  0.4432  0.3726
 2219TIP3    H128072   5.383   1.126   0.095 -1.2450  0.1973 -1.0138
 2219TIP3    H228073   5.396   1.014  -0.006 -1.6514 -1.5884  0.8751
 2220TIP3   OH228074   4.223   4.432  12.605  0.0379 -0.0145 -0.1975
 2220TIP3    H128075   4.308   4.417  12.647 -0.0058  2.2512  0.7866
 2220TIP3    H228076   4.230   4.520  12.568 -0.8450 -0.9682 -2.7441
 2221TIP3   OH228077   2.741   3.247   6.699  0.0402  0.7461 -0.5579
 2221TIP3    H128078   2.777   3.191   6.768 -1.3399  0.5682  0.0284
 2221TIP3    H228079   2.818   3.275   6.649  0.7864 -1.4417 -0.7006
 2222TIP3   OH228080   6.321   2.157  13.601 -0.5171 -0.0309  0.6385
 2222TIP3    H128081   6.268   2.227  13.562  1.9169  1.1329 -0.7451
 2222TIP3    H228082   6.386   2.203  13.654  0.2969 -1.3146  0.7780
 2223TIP3   OH228083   4.438   0.498  10.637 -0.1003 -0.2734 -0.2298
 2223TIP3    H128084   4.427   0.479  10.730  1.2541  0.6845  0.1389
 2223TIP3    H228085   4.476   0.419  10.601 -0.7878 -0.7109 -0.0159
 2224TIP3   OH228086   2.580   2.633  11.421  0.2720 -0.1451 -0.1642
 2224TIP3    H128087   2.622   2.708  11.379  1.7528 -0.5809  0.4973
 2224TIP3    H228088   2.591   2.561  11.359 -1.3856  0.2272 -0.9165
 2225TIP3   OH228089   1.297   5.620   3.686  0.0318 -0.0084 -0.3837
 2225TIP3    H128090   1.304   5.609   3.591  0.1424  2.2014 -0.6585
 2225TIP3    H228091   1.228   5.684   3.698  1.3639  1.2203  0.9326
 2226TIP3   OH228092   5.497   4.986   3.496  0.2390  0.1020 -0.0473
 2226TIP3    H128093   5.573   4.980   3.554 -0.7444  0.4446  1.3070
 2226TIP3    H228094   5.526   4.946   3.414  2.7970  2.7248 -0.5047
 2227TIP3   OH228095   1.362   0.648   3.086 -0.0186 -0.1393  0.3358
 2227TIP3    H128096   1.348   0.721   3.026 -0.9240 -0.4609  0.1530
 2227TIP3    H228097   1.370   0.572   3.028  2.2629 -0.0124  0.4328
 2228TIP3   OH228098   4.179   3.060   3.768  0.0389  0.3383 -0.0312
 2228TIP3    H128099   4.157   2.999   3.697 -1.5496 -0.1284  0.8493
 2228TIP3    H228100   4.275   3.064   3.767  0.1199 -1.3624 -0.7818
 2229TIP3   OH228101   4.056   3.669  10.954 -0.3432 -0.1453  0.3994
 2229TIP3    H128102   4.138   3.619  10.960  0.3574  0.9600  0.1397
 2229TIP3    H228103   4.063   3.717  10.872 -2.0415 -1.3878 -0.5166
 2230TIP3   OH228104   6.422   1.761   0.625 -0.1128  0.4548  0.1868
 2230TIP3    H128105   6.489   1.762   0.693 -0.3615 -1.6265  0.4930
 2230TIP3    H228106   6.340   1.782   0.670 -0.3294 -1.2393  0.6183
 2231TIP3   OH228107   4.132   4.031  15.753  0.1313  0.1801 -0.3266
 2231TIP3    H128108   4.137   4.125  15.737  0.6732  0.3015  0.4881
 2231TIP3    H228109   4.211   4.011  15.803 -1.1971 -0.2463  1.6844
 2232TIP3   OH228110   0.966   6.699   5.895 -0.2046 -0.0831 -0.2646
 2232TIP3    H128111   0.933   6.704   5.805  1.0052  1.2268 -0.6497
 2232TIP3    H228112   0.962   6.789   5.927 -3.0250 -0.9256  1.9013
 2233TIP3   OH228113   6.116   1.304  11.154  0.1017 -0.7869  0.3044
 2233TIP3    H128114   6.062   1.323  11.231 -0.0901 -0.3322  0.0617
 2233TIP3    H228115   6.179   1.376  11.151  1.9164 -2.2986  1.6513
 2234TIP3   OH228116   5.238   2.587   3.606 -0.0314 -0.3296  0.2675
 2234TIP3    H128117   5.187   2.658   3.567  1.1533  0.4387  0.0856
 2234TIP3    H228118   5.191   2.565   3.686 -0.4886  0.5529  0.2483
 2235TIP3   OH228119   4.732   5.421   3.434  0.1160  0.1669 -0.4572
 2235TIP3    H128120   4.731   5.377   3.350  0.2354 -1.1075  0.1968
 2235TIP3    H228121   4.813   5.472   3.434  1.2500 -1.5745 -0.2456
 2236TIP3   OH228122   5.512   6.722  16.896  0.7783 -0.0026  0.4701
 2236TIP3    H128123   5.531   6.633  16.867 -0.5677  0.1427 -0.9106
 2236TIP3    H228124   5.534   6.777  16.821 -0.8273  0.5783  0.4138
 2237TIP3   OH228125   4.359   2.636  14.329 -0.0421  0.2357 -0.2677
 2237TIP3    H128126   4.323   2.582  14.259  0.7815  0.5698 -0.9617
 2237TIP3    H228127   4.429   2.687  14.287 -1.4018  2.5253  0.1194
 2238TIP3   OH228128   4.702   5.173  11.536 -0.2417  0.0754 -0.5417
 2238TIP3    H128129   4.672   5.085  11.512 -0.3036  0.0398 -0.3343
 2238TIP3    H228130   4.720   5.167  11.630  1.0003 -0.0853 -0.7690
 2239TIP3   OH228131   0.117   4.646  11.974  0.0365 -0.3590 -0.2118
 2239TIP3    H128132   0.208   4.633  12.001 -0.5423 -2.0594  0.9480
 2239TIP3    H228133   0.091   4.563  11.935 -1.2747 -0.1596  0.2056
 2240TIP3   OH228134   4.995   3.238  11.456  0.1825 -0.0635 -0.1225
 2240TIP3    H128135   4.902   3.224  11.438  0.1763 -0.1099 -0.0578
 2240TIP3    H228136   5.000   3.328  11.488 -0.0554 -0.5595  1.3658
 2241TIP3   OH228137   2.072   5.665   6.612 -0.9130  0.2178 -0.8951
 2241TIP3    H128138   2.082   5.720   6.690  0.8200 -1.1552 -0.1041
 2241TIP3    H228139   2.022   5.719   6.551 -0.9270  1.9256  0.5656
 2242TIP3   OH228140   5.644   1.622   3.775 -0.3817 -0.1233  0.5858
 2242TIP3    H128141   5.717   1.636   3.715  0.9205 -1.0213  1.9169
 2242TIP3    H228142   5.600   1.544   3.742  1.2540 -1.5424  1.6011
 2243TIP3   OH228143   3.094   3.732  16.275 -0.7490  0.5077 -0.1445
 2243TIP3    H128144   3.154   3.771  16.211  1.5768 -2.1725  0.2920
 2243TIP3    H228145   3.150   3.705  16.347 -2.4564 -2.1089  0.2683
 2244TIP3   OH228146   4.618   1.661  16.574  0.5946  0.0673  0.4807
 2244TIP3    H128147   4.573   1.724  16.517  0.2612 -0.1238  0.5314
 2244TIP3    H228148   4.578   1.675  16.660  0.7651  0.0283  0.5649
 2245TIP3   OH228149   2.942   4.092  12.275 -0.4117  0.0653 -0.0013
 2245TIP3    H128150   2.883   4.057  12.342 -2.1668  0.8924 -1.0695
 2245TIP3    H228151   2.961   4.016  12.218 -0.8929 -0.0757  0.0281
 2246TIP3   OH228152   5.915   6.723   1.650  0.1544  0.1466 -0.1390
 2246TIP3    H128153   5.973   6.647   1.648  1.5363  1.1862 -1.1703
 2246TIP3    H228154   5.971   6.794   1.681 -0.7579  1.0126 -0.4582
 2247TIP3   OH228155   3.263   1.748   2.657  0.0429 -0.8324 -0.0776
 2247TIP3    H128156   3.336   1.787   2.608 -0.4072  1.9167  1.2991
 2247TIP3    H228157   3.303   1.714   2.736 -0.0885  0.4335  0.5516
 2248TIP3   OH228158   3.244   6.298   6.042  0.4338 -0.2843  0.3153
 2248TIP3    H128159   3.335   6.301   6.011  0.5203 -0.9044  0.5020
 2248TIP3    H228160   3.226   6.388   6.069  0.6622  0.0525 -0.6458
 2249TIP3   OH228161   2.467   1.077   3.591  0.6509  0.2070  0.0994
 2249TIP3    H128162   2.471   1.040   3.679 -0.2845  0.6788  0.3436
 2249TIP3    H228163   2.374   1.078   3.569  0.7246  1.6989 -0.2086
 2250TIP3   OH228164   1.564   1.871   5.500 -0.0761  0.4120 -0.1977
 2250TIP3    H128165   1.528   1.873   5.412  0.3023 -2.0803 -0.4626
 2250TIP3    H228166   1.599   1.959   5.515 -1.1900  1.1902 -2.0587
 2251TIP3   OH228167   3.246   5.482  14.845  0.3111  0.1905 -0.3682
 2251TIP3    H128168   3.310   5.487  14.773  0.1373 -0.1372 -0.5456
 2251TIP3    H228169   3.280   5.413  14.902 -0.0142 -0.1561 -0.5902
 2252TIP3   OH228170   2.135   4.345  16.250 -0.4010 -0.2530  0.5887
 2252TIP3    H128171   2.078   4.275  16.281  0.7166 -1.9644 -1.1173
 2252TIP3    H228172   2.200   4.355  16.320 -0.0169 -1.6003  0.4440
 2253TIP3   OH228173   2.640   0.485   3.251 -0.0497 -0.1633  0.0907
 2253TIP3    H128174   2.545   0.476   3.238 -0.0381  0.9377 -0.8913
 2253TIP3    H228175   2.663   0.414   3.310 -1.6348  0.0626  1.0129
 2254TIP3   OH228176   6.725   2.887  17.228 -0.7944 -0.3294  0.5542
 2254TIP3    H128177   6.766   2.973  17.220  0.5167 -1.0444 -0.4470
 2254TIP3    H228178   6.748   2.841  17.147 -0.8096 -1.9196  1.4344
 2255TIP3   OH228179   1.239   4.616  15.425 -0.5214 -0.2600  0.2641
 2255TIP3    H128180   1.320   4.586  15.467 -0.4418  0.2349  0.4700
 2255TIP3    H228181   1.265   4.640  15.337 -0.4156  0.0275  0.3728
 2256TIP3   OH228182   3.243   1.077  11.468 -0.1907  0.3496 -0.6406
 2256TIP3    H128183   3.317   1.092  11.528 -1.2474  1.5164  0.4245
 2256TIP3    H228184   3.196   1.161  11.468 -0.4518  0.2149 -2.7915
 2257TIP3   OH228185   5.772   0.709  14.473 -0.5307  0.2036  0.6739
 2257TIP3    H128186   5.710   0.650  14.516 -1.8632  1.5280  0.6256
 2257TIP3    H228187   5.717   0.778  14.437  0.8048  0.3363 -1.1463
 2258TIP3   OH228188   1.251   1.073   5.235  0.6024 -0.0093 -0.3788
 2258TIP3    H128189   1.298   1.052   5.155  0.3800  0.9902 -0.7752
 2258TIP3    H228190   1.292   1.152   5.268 -0.8537  0.9499 -0.7976
 2259TIP3   OH228191   4.345   1.712  14.021  0.3396  0.0537 -0.6636
 2259TIP3    H128192   4.333   1.682  14.111  0.5280  0.9374 -0.3347
 2259TIP3    H228193   4.259   1.701  13.980 -0.2640  1.4386  0.1743
 2260TIP3   OH228194   3.529   2.483  13.937 -0.2542 -0.1914 -0.3382
 2260TIP3    H128195   3.547   2.521  13.851  1.0074 -0.6218 -0.2777
 2260TIP3    H228196   3.484   2.553  13.984  0.5338  0.6523 -0.7988
 2261TIP3   OH228197   1.970   4.016  12.906  0.0384 -0.1948 -0.4929
 2261TIP3    H128198   1.900   3.997  12.967  0.1756 -0.3818 -0.3908
 2261TIP3    H228199   1.999   3.929  12.876 -0.8398 -0.0677 -1.7379
 2262TIP3   OH228200   1.863   1.759   4.202  0.4443 -0.0335  0.5092
 2262TIP3    H128201   1.926   1.766   4.273  1.3205 -0.3631 -0.2257
 2262TIP3    H228202   1.916   1.737   4.125 -0.5102  0.1352 -0.2050
 2263TIP3   OH228203   1.166   3.987   3.018  0.2302  0.6169  0.1564
 2263TIP3    H128204   1.156   3.987   2.923 -1.6785  1.6193  0.3324
 2263TIP3    H228205   1.214   4.067   3.038  0.5622  0.4455  0.0514
 2264TIP3   OH228206   4.881   2.676  16.736 -0.5894 -0.0721 -0.4002
 2264TIP3    H128207   4.898   2.590  16.776  1.2512  0.1773 -0.5865
 2264TIP3    H228208   4.804   2.709  16.782 -0.0065 -0.8756  1.1991
 2265TIP3   OH228209   1.625   0.084   4.174  0.3620  0.5576  0.4865
 2265TIP3    H128210   1.536   0.118   4.173 -0.1137 -0.6398  1.7225
 2265TIP3    H228211   1.622   0.009   4.233  1.6756 -0.8997 -1.2334
 2266TIP3   OH228212   2.405   4.973  16.490 -0.3356 -0.2158  0.7419
 2266TIP3    H128213   2.375   4.977  16.582 -3.2333  0.7221 -0.1670
 2266TIP3    H228214   2.336   4.924  16.445 -0.2444  1.5604 -1.3963
 2267TIP3   OH228215   2.326   0.244  13.319  0.3476 -0.3633  0.2335
 2267TIP3    H128216   2.335   0.338  13.307  0.1802 -0.4208 -0.3615
 2267TIP3    H228217   2.319   0.232  13.414  0.8958  0.1728  0.3471
 2268TIP3   OH228218   5.829   2.074  16.720  0.2371  0.2036  0.1319
 2268TIP3    H128219   5.860   2.146  16.775  1.6150  1.2396 -1.9028
 2268TIP3    H228220   5.737   2.094  16.704  0.7300  1.8329 -0.8277
 2269TIP3   OH228221   1.200   5.727   2.402  0.0842  0.4301 -0.4309
 2269TIP3    H128222   1.224   5.759   2.315  0.8959 -0.0847 -0.4005
 2269TIP3    H228223   1.251   5.647   2.414 -1.6570 -0.7059 -0.3675
 2270TIP3   OH228224   2.105   0.157   0.567  0.0094  0.4142 -0.3566
 2270TIP3    H128225   2.068   0.239   0.599  0.5059  0.2216  0.7519
 2270TIP3    H228226   2.080   0.092   0.633  0.4229 -0.1383 -0.7407
 2271TIP3   OH228227   1.750   1.269   4.922 -0.0110  0.0680  0.0449
 2271TIP3    H128228   1.695   1.210   4.974  1.2144 -0.7877  0.4082
 2271TIP3    H228229   1.740   1.238   4.832  1.4295 -1.4019  0.3544
 2272TIP3   OH228230   3.656   5.235  12.976  1.0312  0.6055  0.0492
 2272TIP3    H128231   3.615   5.315  13.008  0.1911 -0.8029  2.6941
 2272TIP3    H228232   3.615   5.219  12.891 -0.7883  1.5233  0.7348
 2273TIP3   OH228233   1.769   1.242  15.748  0.4499  0.1090  0.4880
 2273TIP3    H128234   1.793   1.279  15.663  0.3794 -0.3248  0.2777
 2273TIP3    H228235   1.694   1.294  15.777  0.4140  0.1934  0.2436
 2274TIP3   OH228236   3.011   1.803   3.147  0.2780 -0.5788  0.0468
 2274TIP3    H128237   3.032   1.780   3.057 -1.5369 -1.1798 -0.2524
 2274TIP3    H228238   3.070   1.748   3.200  0.2265 -1.4233 -0.7579
 2275TIP3   OH228239   0.644   4.942   2.782  0.6688  0.5831  0.4473
 2275TIP3    H128240   0.660   5.000   2.707  1.2080 -0.3201 -0.1393
 2275TIP3    H228241   0.731   4.920   2.814  0.5161 -1.0425 -0.2180
 2276TIP3   OH228242   1.882   1.608  15.895 -0.0954 -0.4766 -0.5253
 2276TIP3    H128243   1.788   1.622  15.885 -0.3243 -1.4359  0.1622
 2276TIP3    H228244   1.904   1.648  15.979 -0.0031 -0.7452 -0.4199
 2277TIP3   OH228245   5.127   0.413   0.084  0.0048 -0.4635  0.4195
 2277TIP3    H128246   5.167   0.486   0.131 -0.3615  1.4718 -2.1139
 2277TIP3    H228247   5.164   0.334   0.124  3.2894  1.1806  0.7785
 2278TIP3   OH228248   2.140   3.087   5.622 -0.6474 -0.0412 -0.1022
 2278TIP3    H128249   2.136   3.182   5.619  2.5702  0.2429  1.6314
 2278TIP3    H228250   2.095   3.064   5.703 -0.4200  0.1284  0.0751
 2279TIP3   OH228251   3.136   0.862  13.620 -0.0066 -0.3560  0.5253
 2279TIP3    H128252   3.192   0.878  13.544 -0.0341  2.7464  1.0955
 2279TIP3    H228253   3.050   0.843  13.583  0.9182 -3.1131 -0.2997
 2280TIP3   OH228254   3.725   2.263  14.918  0.1537 -0.0346  0.3969
 2280TIP3    H128255   3.763   2.187  14.875  0.3843  0.5762 -0.4864
 2280TIP3    H228256   3.778   2.337  14.888 -0.5995  0.5819  0.5744
 2281TIP3   OH228257   0.670   3.033  16.163  0.6029 -0.0049 -0.0809
 2281TIP3    H128258   0.579   3.051  16.186  0.3740 -1.0351 -0.1733
 2281TIP3    H228259   0.678   3.063  16.072  0.2473 -0.2932 -0.2085
 2282TIP3   OH228260   4.930   4.145  16.246  0.3373  0.4215  0.3190
 2282TIP3    H128261   4.914   4.051  16.259 -1.3505  0.8021  1.1047
 2282TIP3    H228262   4.847   4.180  16.216  0.8328  1.7516  0.4562
 2283TIP3   OH228263   4.475   1.050  15.610  0.4691  0.2875  0.6040
 2283TIP3    H128264   4.483   1.004  15.693 -1.1906  0.7354  1.0407
 2283TIP3    H228265   4.559   1.095  15.599  0.8354 -0.0619  1.8650
 2284TIP3   OH228266   0.296   3.562  11.382 -0.2765  0.4855  0.2063
 2284TIP3    H128267   0.302   3.627  11.452  0.5551  1.9372 -1.1565
 2284TIP3    H228268   0.237   3.495  11.416  1.5159  0.2265  2.9760
 2285TIP3   OH228269   1.565   6.722  11.541 -0.5178 -0.1355 -0.5172
 2285TIP3    H128270   1.551   6.633  11.510  0.7156 -0.4698 -0.1369
 2285TIP3    H228271   1.621   6.762  11.474 -2.2416  0.8199 -1.4290
 2286TIP3   OH228272   3.610   0.171   3.450 -0.0747 -0.2360  0.1469
 2286TIP3    H128273   3.555   0.234   3.496  2.2219  2.4000 -0.6012
 2286TIP3    H228274   3.672   0.140   3.516 -1.6742 -2.3738  0.7091
 2287TIP3   OH228275   1.130   5.303  16.839  0.7093 -0.2746  0.1755
 2287TIP3    H128276   1.060   5.358  16.805  2.3299  2.1190  0.5915
 2287TIP3    H228277   1.192   5.294  16.766 -0.6702 -3.5916 -0.6632
 2288TIP3   OH228278   0.735   4.266   1.795  0.5652 -0.1118 -0.0911
 2288TIP3    H128279   0.675   4.299   1.728  1.0078  0.1862 -0.3399
 2288TIP3    H228280   0.787   4.200   1.750 -0.4764 -1.3414  0.4601
 2289TIP3   OH228281   5.341   1.407  14.560  0.0936  0.4278  0.2376
 2289TIP3    H128282   5.431   1.412  14.526  0.0300 -0.5407 -0.1030
 2289TIP3    H228283   5.319   1.497  14.583  1.3154  0.6098  0.7405
 2290TIP3   OH228284   1.375   0.079   4.371 -0.1599  0.7259 -0.1009
 2290TIP3    H128285   1.311   0.057   4.439  1.1593 -3.0677  0.0349
 2290TIP3    H228286   1.443   0.128   4.418  0.2249 -0.9490  1.1521
 2291TIP3   OH228287   2.177   1.047   3.568 -0.1718 -0.2355  0.2626
 2291TIP3    H128288   2.154   0.966   3.521  0.7043 -0.8558  0.9014
 2291TIP3    H228289   2.166   1.116   3.502  0.5820 -1.0412 -0.7324
 2292TIP3   OH228290   3.114   5.577  15.853 -0.6561 -0.3514  0.1343
 2292TIP3    H128291   3.082   5.582  15.944  3.8350  0.5245  1.7725
 2292TIP3    H228292   3.168   5.655  15.843  2.3519 -2.6397 -1.8906
 2293TIP3   OH228293   0.255   1.673  14.412 -0.0661 -0.4313  0.6601
 2293TIP3    H128294   0.340   1.643  14.444 -0.4335 -1.6778  0.5047
 2293TIP3    H228295   0.266   1.767  14.401  2.3191 -0.9560 -2.3812
 2294TIP3   OH228296   0.182   1.823  12.991  0.0068 -0.1667  0.4195
 2294TIP3    H128297   0.125   1.814  12.915 -0.9307  3.4092  0.6055
 2294TIP3    H228298   0.124   1.806  13.066 -0.3395  1.3404  0.5127
 2295TIP3   OH228299   2.828   6.446   3.963  0.3222  0.1081  0.1040
 2295TIP3    H128300   2.746   6.399   3.946  0.2897  0.2195 -0.0435
 2295TIP3    H228301   2.896   6.390   3.926  0.2095  0.5907 -0.8332
 2296TIP3   OH228302   3.239   6.092   6.658 -0.7368 -0.4314 -0.1304
 2296TIP3    H128303   3.198   6.015   6.616 -0.6421 -0.5792  0.0466
 2296TIP3    H228304   3.175   6.120   6.723 -1.0791  0.0722 -0.6829
 2297TIP3   OH228305   4.260   6.174  13.541 -0.8860 -0.0162 -0.0094
 2297TIP3    H128306   4.313   6.246  13.506  1.6492 -1.6870  0.3186
 2297TIP3    H228307   4.240   6.201  13.631 -2.2538  1.4951 -0.7416
 2298TIP3   OH228308   6.566   5.297   0.177  0.0803  0.0795  0.0344
 2298TIP3    H128309   6.628   5.300   0.104  0.7910 -1.2476  0.5683
 2298TIP3    H228310   6.574   5.209   0.211 -1.3878  0.2158  0.7501
 2299TIP3   OH228311   0.721   6.422  12.121  0.2596  0.9947 -0.7671
 2299TIP3    H128312   0.758   6.462  12.200 -3.1732  0.8605  1.0048
 2299TIP3    H228313   0.685   6.339  12.152 -0.6874  0.7165 -2.6031
 2300TIP3   OH228314   0.637   4.150  12.298  0.4367 -0.2038 -0.3089
 2300TIP3    H128315   0.587   4.073  12.273 -1.4625  1.5372 -2.0838
 2300TIP3    H228316   0.571   4.217  12.315  2.0886  1.4459 -0.2298
 2301TIP3   OH228317   6.560   0.063  14.731  0.5294  0.5881 -0.0455
 2301TIP3    H128318   6.558   0.018  14.815  3.5167  0.2194 -0.1109
 2301TIP3    H228319   6.612   0.142  14.748 -0.0779  1.2424 -1.1969
 2302TIP3   OH228320   5.480   6.421   1.582  0.8559  0.0857 -0.3815
 2302TIP3    H128321   5.456   6.422   1.490 -1.8700  1.4476  0.2880
 2302TIP3    H228322   5.525   6.505   1.596  1.1478 -0.0618 -0.4174
 2303TIP3   OH228323   3.052   5.591  11.345 -0.0934  0.3356 -0.1513
 2303TIP3    H128324   3.142   5.614  11.369  0.3425 -0.9853 -0.4757
 2303TIP3    H228325   3.041   5.627  11.257  0.6849 -0.8945 -0.7736
 2304TIP3   OH228326   1.614   0.595  13.635 -0.1249  0.1175 -0.2101
 2304TIP3    H128327   1.639   0.516  13.682 -2.0216  0.0670  0.7485
 2304TIP3    H228328   1.613   0.664  13.701 -1.7558  0.2653 -0.3691
 2305TIP3   OH228329   0.613   2.876   3.935  0.0042 -0.6545  0.2220
 2305TIP3    H128330   0.705   2.904   3.930  0.2334 -1.1556  1.5576
 2305TIP3    H228331   0.582   2.881   3.844  0.8399  1.2196  0.0003
 2306TIP3   OH228332   2.872   4.955  17.114 -0.5286  0.8971  0.0593
 2306TIP3    H128333   2.785   4.924  17.087 -0.5015  0.6214  0.2855
 2306TIP3    H228334   2.909   4.993  17.034  0.4279 -1.9208 -0.9058
 2307TIP3   OH228335   5.830   0.237  15.611 -0.5229 -0.2553 -0.5980
 2307TIP3    H128336   5.808   0.156  15.658 -0.4870 -0.3344 -0.7150
 2307TIP3    H228337   5.756   0.252  15.553 -1.3041  0.7188  0.6245
 2308TIP3   OH228338   2.728   5.990   0.248  0.2887 -0.6468  0.4547
 2308TIP3    H128339   2.782   5.929   0.298  0.2040 -0.2116  1.0724
 2308TIP3    H228340   2.702   6.057   0.311  2.4625  1.4284 -0.7918
 2309TIP3   OH228341   6.544   3.408  10.340 -0.1248  0.5914  0.0085
 2309TIP3    H128342   6.483   3.383  10.271  1.2514  0.3748 -1.1568
 2309TIP3    H228343   6.569   3.498  10.319 -0.5834  0.9236  0.8749
 2310TIP3   OH228344   2.758   6.279   0.069 -0.3524  0.1257  0.5621
 2310TIP3    H128345   2.714   6.333   0.135  0.5771  0.5477  0.8460
 2310TIP3    H228346   2.697   6.207   0.052 -0.7541  0.2083  1.6240
 2311TIP3   OH228347   3.595   2.832   0.909  0.5274  0.2136 -0.3388
 2311TIP3    H128348   3.503   2.830   0.882  0.3891 -1.0253  0.2187
 2311TIP3    H228349   3.601   2.907   0.969 -0.3044 -0.2023  0.2717
 2312TIP3   OH228350   3.988   3.885  14.730  0.3785 -0.2385 -0.3364
 2312TIP3    H128351   3.998   3.794  14.759  0.3580  0.2344  1.1593
 2312TIP3    H228352   3.942   3.878  14.646 -2.3701 -1.4380  1.2124
 2313TIP3   OH228353   4.745   3.248  17.120 -0.2522  0.4964  0.3402
 2313TIP3    H128354   4.705   3.241  17.033  1.8384  0.2313 -0.6318
 2313TIP3    H228355   4.691   3.193  17.176 -1.3966  0.3538 -0.8722
 2314TIP3   OH228356   5.511   6.534   2.748  0.2909 -0.7435  0.1919
 2314TIP3    H128357   5.589   6.583   2.721 -1.2048  2.0855  0.8763
 2314TIP3    H228358   5.512   6.537   2.843 -0.0241 -1.7302  0.2314
 2315TIP3   OH228359   1.551   6.538   5.195  0.3376  0.2645  0.1843
 2315TIP3    H128360   1.632   6.557   5.148  0.0625  1.3355  0.1275
 2315TIP3    H228361   1.558   6.588   5.276 -1.0900  1.9516 -0.6690
 2316TIP3   OH228362   1.328   1.293  12.408 -0.0887  0.7983 -0.7261
 2316TIP3    H128363   1.259   1.304  12.473 -1.3643  0.6250 -2.0195
 2316TIP3    H228364   1.294   1.336  12.329  0.0141 -1.8191 -2.2455
 2317TIP3   OH228365   1.316   2.270  12.513  0.9991 -0.0343  0.0990
 2317TIP3    H128366   1.341   2.299  12.601  1.3109 -2.5725  0.8867
 2317TIP3    H228367   1.384   2.208  12.488 -0.6411 -1.5623 -0.6936
 2318TIP3   OH228368   5.989   6.783   0.592 -0.1683 -0.1358 -0.4323
 2318TIP3    H128369   5.984   6.840   0.515 -1.1532 -0.9059 -0.9498
 2318TIP3    H228370   6.030   6.702   0.560  0.6278  0.0216  0.1565
 2319TIP3   OH228371   1.632   3.543   0.715  0.2575 -0.1221 -0.8045
 2319TIP3    H128372   1.646   3.633   0.686 -2.7701  0.8806  0.7219
 2319TIP3    H228373   1.713   3.520   0.761  1.1484  1.7032 -1.4050
 2320TIP3   OH228374   4.644   5.730   2.313  0.4266 -0.1949  0.3429
 2320TIP3    H128375   4.690   5.688   2.386  2.1557 -0.2799 -0.7698
 2320TIP3    H228376   4.634   5.661   2.247  2.4203  0.8604 -1.0967
 2321TIP3   OH228377   0.474   3.061  15.143  0.0886  0.3969  0.7926
 2321TIP3    H128378   0.492   3.129  15.208  0.8292  0.3365  0.6598
 2321TIP3    H228379   0.537   3.078  15.073 -0.4600  0.2371  0.2565
 2322TIP3   OH228380   2.490   1.831   3.625 -0.4140 -0.1701 -0.1084
 2322TIP3    H128381   2.525   1.918   3.608 -2.1269  0.4141 -0.7689
 2322TIP3    H228382   2.554   1.771   3.586  0.7067  0.7971  0.2399
 2323TIP3   OH228383   6.329   1.881  11.493 -0.2311  0.1465 -0.1389
 2323TIP3    H128384   6.246   1.927  11.475 -0.0325  1.1667  1.5059
 2323TIP3    H228385   6.373   1.935  11.558  0.4551 -1.8948  1.1351
 2324TIP3   OH228386   1.335   3.605  11.499  0.5336  0.0048  0.2418
 2324TIP3    H128387   1.258   3.658  11.479  1.0126  1.2790  1.6344
 2324TIP3    H228388   1.401   3.669  11.527  1.6566 -1.1927  0.3856
 2325TIP3   OH228389   4.122   2.250  15.366  0.2704 -0.5187 -0.0932
 2325TIP3    H128390   4.130   2.334  15.411  1.8148 -0.3557 -0.6311
 2325TIP3    H228391   4.079   2.271  15.284  1.2583 -0.1219 -0.5241
 2326TIP3   OH228392   1.341   5.286   2.928 -0.5710 -0.1067  0.0430
 2326TIP3    H128393   1.421   5.237   2.947 -0.3815 -0.6905 -2.0608
 2326TIP3    H228394   1.271   5.230   2.960 -0.2840 -1.2390 -1.2284
 2327TIP3   OH228395   2.055   2.256   3.971  0.1464  0.3585  0.1805
 2327TIP3    H128396   2.076   2.224   4.059  0.8347  1.2649  0.3575
 2327TIP3    H228397   2.061   2.351   3.978 -0.4177  0.4610 -0.6967
 2328TIP3   OH228398   3.120   0.834  14.899 -0.0022 -0.2612 -0.3151
 2328TIP3    H128399   3.106   0.743  14.870  0.5566 -0.7816  0.9892
 2328TIP3    H228400   3.178   0.826  14.975 -0.5930  1.1268  0.3008
 2329TIP3   OH228401   3.731   2.566   6.340 -0.5203 -0.3399  0.5686
 2329TIP3    H128402   3.637   2.553   6.330 -0.4401 -0.9747  0.6614
 2329TIP3    H228403   3.771   2.498   6.286 -0.1006 -1.0219  1.7176
 2330TIP3   OH228404   6.344   4.078   4.069  0.2325 -0.3229 -0.4429
 2330TIP3    H128405   6.428   4.051   4.105  0.5218  0.2385 -0.6959
 2330TIP3    H228406   6.344   4.174   4.075 -0.3071 -0.3065 -0.6170
 2331TIP3   OH228407   4.535   4.481  13.172  0.1390  0.4822  0.6642
 2331TIP3    H128408   4.581   4.435  13.102  0.7394 -0.9996  1.9784
 2331TIP3    H228409   4.542   4.574  13.149 -0.7718 -0.0470 -1.8502
 2332TIP3   OH228410   5.430   1.308   4.160 -0.4951 -0.3851 -0.4137
 2332TIP3    H128411   5.523   1.324   4.145 -0.3395  0.1051  0.9701
 2332TIP3    H228412   5.408   1.362   4.236 -2.6035  1.7783 -2.4922
 2333TIP3   OH228413   4.041   3.837  15.289 -0.2212  0.4194 -0.2845
 2333TIP3    H128414   3.988   3.917  15.280  0.5141  0.9144 -0.2989
 2333TIP3    H228415   4.004   3.792  15.365 -0.5660  0.8376 -0.2004
 2334TIP3   OH228416   0.411   5.346   6.869  0.2362 -0.3634  0.3810
 2334TIP3    H128417   0.352   5.282   6.830 -0.0274 -0.5789  1.1286
 2334TIP3    H228418   0.438   5.307   6.952  0.7181  0.1324  0.4631
 2335TIP3   OH228419   5.578   6.316   1.184 -0.1775  0.4623 -0.2599
 2335TIP3    H128420   5.671   6.317   1.163 -0.1515 -0.5178 -0.2051
 2335TIP3    H228421   5.565   6.392   1.240  0.8592 -0.1663  0.8586
 2336TIP3   OH228422   4.900   2.133  14.458  0.3215 -0.4291  0.0045
 2336TIP3    H128423   4.938   2.220  14.445 -0.5999 -0.1105 -0.5208
 2336TIP3    H228424   4.969   2.072  14.431  0.2844  0.1577 -1.4236
 2337TIP3   OH228425   2.655   6.641  15.683  0.3602 -0.4801 -0.1879
 2337TIP3    H128426   2.695   6.635  15.596  1.4831 -0.8131  0.3428
 2337TIP3    H228427   2.691   6.722  15.720 -1.4534  0.5785 -0.6858
 2338TIP3   OH228428   1.949   6.564  17.059 -0.4973 -0.5921  0.2771
 2338TIP3    H128429   1.971   6.492  17.118  0.8350 -0.2163  0.2593
 2338TIP3    H228430   1.989   6.641  17.100 -0.5787 -0.1331 -0.5079
 2339TIP3   OH228431   1.173   5.786   5.967  0.6277  0.4641  0.1343
 2339TIP3    H128432   1.081   5.762   5.969  0.8302 -0.3356  0.2565
 2339TIP3    H228433   1.185   5.842   6.043 -0.2232  2.3759 -1.0971
 2340TIP3   OH228434   2.324   2.813  13.695 -0.4183 -0.2826 -0.3257
 2340TIP3    H128435   2.351   2.756  13.767 -0.7613 -0.6087 -0.4486
 2340TIP3    H228436   2.323   2.901  13.733  0.4542 -0.3138 -0.2258
 2341TIP3   OH228437   1.571   6.000  13.725 -0.1803 -0.1266  0.0136
 2341TIP3    H128438   1.570   5.913  13.685  0.3016 -0.8319  1.5001
 2341TIP3    H228439   1.656   6.005  13.769 -0.2541  1.0585  0.0239
 2342TIP3   OH228440   1.950   4.483  17.206  0.4671  0.2508  0.2747
 2342TIP3    H128441   1.949   4.574  17.176  0.8321  0.1484 -0.0499
 2342TIP3    H228442   1.859   4.454  17.198  0.6919 -0.0383 -1.5570
 2343TIP3   OH228443   6.182   5.938   3.041  0.1549 -0.5886 -0.3979
 2343TIP3    H128444   6.148   5.986   3.117 -3.1333  1.7297 -3.1612
 2343TIP3    H228445   6.215   6.007   2.983 -1.2103 -1.9600 -2.8344
 2344TIP3   OH228446   5.409   0.479   4.140  0.7505  0.0091 -0.2747
 2344TIP3    H128447   5.455   0.517   4.215 -1.0439  1.1627  0.2730
 2344TIP3    H228448   5.332   0.534   4.129 -2.0224 -3.5414  0.6151
 2345TIP3   OH228449   5.275   5.592   3.238 -0.7427 -0.1303 -0.2330
 2345TIP3    H128450   5.259   5.602   3.144  0.0002  2.3377 -0.1165
 2345TIP3    H228451   5.359   5.544   3.243  0.8080  2.4445 -0.8642
 2346TIP3   OH228452   3.712   3.359  11.373 -0.0575  0.0430 -0.9877
 2346TIP3    H128453   3.766   3.393  11.444 -0.1791  2.0650 -1.8284
 2346TIP3    H228454   3.764   3.289  11.335  1.1921  0.7776 -0.6489
 2347TIP3   OH228455   1.862   5.973  13.265 -0.5599 -0.4048  0.1192
 2347TIP3    H128456   1.793   6.038  13.254  0.7483  1.2782  1.3124
 2347TIP3    H228457   1.882   5.976  13.359  0.8406 -1.1355 -0.1398
 2348TIP3   OH228458   5.176   0.840   1.946 -0.2941  0.0584 -0.1512
 2348TIP3    H128459   5.197   0.752   1.977  0.3859  0.1365 -0.3873
 2348TIP3    H228460   5.083   0.836   1.925 -0.2646 -0.6113 -0.1787
 2349TIP3   OH228461   5.728   1.078  16.186 -0.3301 -0.0619  0.1136
 2349TIP3    H128462   5.767   1.155  16.227  1.0274 -0.4146 -0.4611
 2349TIP3    H228463   5.641   1.071  16.225 -0.8136  2.2704 -0.4958
 2350TIP3   OH228464   1.621   2.329  16.267  0.6118 -0.4783  0.1849
 2350TIP3    H128465   1.527   2.334  16.253  0.7177 -0.6917 -0.6728
 2350TIP3    H228466   1.631   2.297  16.356 -0.1292 -1.0820  0.0533
 2351TIP3   OH228467   4.485   4.819  11.139 -0.4039 -0.9913  0.2377
 2351TIP3    H128468   4.454   4.783  11.056 -1.3075 -0.5175  0.3637
 2351TIP3    H228469   4.409   4.866  11.175  0.9060  1.4572 -0.1325
 2352TIP3   OH228470   1.358   4.813   2.270  0.3923  0.2934 -0.1722
 2352TIP3    H128471   1.285   4.780   2.323  0.3197  2.4117  1.1132
 2352TIP3    H228472   1.432   4.756   2.293  0.0893  0.5055  1.4010
 2353TIP3   OH228473   2.839   2.596   5.394 -0.1205 -0.2714  0.5675
 2353TIP3    H128474   2.790   2.655   5.452 -0.3113  0.7015 -0.5563
 2353TIP3    H228475   2.893   2.543   5.453  0.4566  1.3947  1.5571
 2354TIP3   OH228476   3.042   1.333  16.635 -0.3967  0.1438  0.0665
 2354TIP3    H128477   3.087   1.360  16.715  0.9895 -0.1979 -0.5760
 2354TIP3    H228478   3.079   1.247  16.615 -1.7277 -0.3743 -0.1983
 2355TIP3   OH228479   3.642   5.340   2.080 -0.9965  0.3558  0.6021
 2355TIP3    H128480   3.578   5.273   2.057 -1.7437  1.6051 -1.1184
 2355TIP3    H228481   3.700   5.345   2.004 -0.0944  0.6658  1.3011
 2356TIP3   OH228482   5.750   2.115   3.595 -0.0054  0.0309  0.3606
 2356TIP3    H128483   5.823   2.169   3.564 -0.3252  0.1805 -0.1376
 2356TIP3    H228484   5.715   2.163   3.670 -0.8587  0.9829 -0.6357
 2357TIP3   OH228485   6.057   4.919  14.486  0.2833  0.3208 -0.1849
 2357TIP3    H128486   5.978   4.865  14.495  0.3628 -0.0760 -1.6126
 2357TIP3    H228487   6.024   5.008  14.472  0.0846  0.2031 -0.4828
 2358TIP3   OH228488   0.140   4.594  13.376  0.0042 -0.4130 -0.2929
 2358TIP3    H128489   0.203   4.523  13.383  0.3721 -0.0412  0.1781
 2358TIP3    H228490   0.056   4.554  13.398  0.2117 -0.7068 -0.0320
 2359TIP3   OH228491   3.430   5.860  11.468  0.3276 -0.0456  0.1846
 2359TIP3    H128492   3.374   5.888  11.540  0.9997  2.5280 -0.2370
 2359TIP3    H228493   3.449   5.768  11.487 -2.7814 -0.5812  1.1201
 2360TIP3   OH228494   3.462   3.703   0.252  0.1719 -0.2715 -0.0260
 2360TIP3    H128495   3.426   3.624   0.212 -1.2847  0.2554  0.2175
 2360TIP3    H228496   3.466   3.767   0.181  2.3524 -0.8602 -0.4732
 2361TIP3   OH228497   0.249   6.123  13.341 -0.2003 -0.0983 -0.2003
 2361TIP3    H128498   0.160   6.150  13.319 -0.8720 -0.7579  1.5975
 2361TIP3    H228499   0.239   6.034  13.374  1.1691 -0.2761 -0.2481
 2362TIP3   OH228500   2.065   3.436  16.379  0.0868  0.0120 -0.0630
 2362TIP3    H128501   2.145   3.481  16.404  0.0959 -0.4757  0.8017
 2362TIP3    H228502   2.093   3.347  16.358 -0.3104 -0.3369  0.8540
 2363TIP3   OH228503   5.855   2.664  12.044 -0.0533  0.2694 -0.3908
 2363TIP3    H128504   5.768   2.693  12.070 -0.1213 -0.1134 -0.1873
 2363TIP3    H228505   5.900   2.744  12.019  0.1048  0.6943  1.1727
 2364TIP3   OH228506   3.133   4.917  14.094 -0.0053  0.3720  0.2593
 2364TIP3    H128507   3.141   4.850  14.026 -3.4325  0.9049 -0.7745
 2364TIP3    H228508   3.114   4.868  14.174  0.2263 -0.0269  0.0715
 2365TIP3   OH228509   6.072   6.510   3.280 -0.0842 -0.2086 -0.0781
 2365TIP3    H128510   6.029   6.441   3.330  1.5922 -0.4478  1.0738
 2365TIP3    H228511   6.113   6.566   3.346  0.7479  0.4270 -1.1134
 2366TIP3   OH228512   0.505   5.341  14.790 -0.2535 -0.0053  0.8561
 2366TIP3    H128513   0.434   5.404  14.776 -0.8398 -0.6699  0.7806
 2366TIP3    H228514   0.476   5.290  14.866  0.2736 -0.1013  0.9904
 2367TIP3   OH228515   0.536   5.921  14.628 -0.5142  0.2183 -0.1385
 2367TIP3    H128516   0.451   5.891  14.661  0.6982 -0.3747  2.6142
 2367TIP3    H228517   0.567   5.849  14.574 -0.2231 -1.0961  1.7206
 2368TIP3   OH228518   1.844   4.812  13.761 -0.1316 -0.6623 -0.0822
 2368TIP3    H128519   1.876   4.832  13.849  0.7122 -0.7019 -0.3743
 2368TIP3    H228520   1.749   4.802  13.772 -0.1924  0.5415  0.6070
 2369TIP3   OH228521   4.974   0.125  14.285 -0.2194  0.2341 -0.2600
 2369TIP3    H128522   4.983   0.135  14.191  0.1878 -1.6900 -0.4546
 2369TIP3    H228523   5.064   0.113  14.317 -0.4152  0.1171  0.2639
 2370TIP3   OH228524   3.188   1.160   0.928  0.1180  0.2258 -0.1532
 2370TIP3    H128525   3.197   1.154   1.023  1.7711  0.0050 -0.3066
 2370TIP3    H228526   3.219   1.249   0.907 -1.6124  0.7988 -0.3434
 2371TIP3   OH228527   1.834   5.236   4.080  0.2231 -0.3362  0.1867
 2371TIP3    H128528   1.812   5.321   4.041 -0.4013 -0.5216  0.1227
 2371TIP3    H228529   1.923   5.218   4.050  0.5976  0.6017  0.7343
 2372TIP3   OH228530   2.374   1.814  11.762 -0.0982  0.2749 -0.0923
 2372TIP3    H128531   2.386   1.868  11.684 -3.0893 -0.4928 -1.1325
 2372TIP3    H228532   2.307   1.859  11.813 -1.7904 -1.7887 -0.4187
 2373TIP3   OH228533   3.867   6.746   0.919 -0.1518  0.6580 -0.3765
 2373TIP3    H128534   3.814   6.806   0.867 -1.4791 -0.0399  0.1296
 2373TIP3    H228535   3.889   6.795   0.998 -0.5201  0.7657 -0.3396
 2374TIP3   OH228536   1.237   5.713   1.041 -0.4895 -0.3130 -0.1617
 2374TIP3    H128537   1.159   5.666   1.070 -0.3636 -1.0680 -1.0010
 2374TIP3    H228538   1.228   5.718   0.946 -0.0900  0.6392 -0.1553
 2375TIP3   OH228539   2.613   5.931  11.030 -0.0595 -0.6321  0.2795
 2375TIP3    H128540   2.694   5.973  10.999 -0.7131 -0.3318 -1.0561
 2375TIP3    H228541   2.622   5.840  11.001 -0.9917 -0.1900 -1.4853
 2376TIP3   OH228542   4.273   0.773   0.370  0.5999 -0.1826  0.5449
 2376TIP3    H128543   4.288   0.865   0.347  1.1838 -0.1181  1.1725
 2376TIP3    H228544   4.239   0.733   0.290 -0.4740  0.7752  0.5099
 2377TIP3   OH228545   4.617   1.462   5.242  0.3179 -0.1146 -0.7230
 2377TIP3    H128546   4.600   1.542   5.193 -1.6435 -0.1043 -0.0789
 2377TIP3    H228547   4.555   1.398   5.207 -0.0515 -0.5409  0.6643
 2378TIP3   OH228548   0.457   4.374   5.585 -0.0800 -0.0596  0.3845
 2378TIP3    H128549   0.404   4.447   5.616 -0.5877 -0.6806  1.0115
 2378TIP3    H228550   0.461   4.314   5.660 -2.1156 -2.0232 -0.9919
 2379TIP3   OH228551   3.914   6.210   6.513 -0.5207 -0.4361 -0.2026
 2379TIP3    H128552   3.883   6.254   6.435  2.3754  0.0348 -1.1719
 2379TIP3    H228553   4.004   6.184   6.492  0.5611  0.2609  3.1535
 2380TIP3   OH228554   0.742   5.753   3.353 -0.4065  0.7370  0.0560
 2380TIP3    H128555   0.709   5.745   3.264 -1.0312 -1.0626  0.4146
 2380TIP3    H228556   0.665   5.774   3.406 -0.6009 -1.0970  0.5563
 2381TIP3   OH228557   2.670   6.103   3.896  0.0968  1.1933 -0.5476
 2381TIP3    H128558   2.629   6.190   3.905 -0.2881  1.3022 -3.0764
 2381TIP3    H228559   2.599   6.042   3.914 -0.0474  1.3883 -0.4424
 2382TIP3   OH228560   0.269   5.327   5.045  0.7120 -0.4904 -0.7664
 2382TIP3    H128561   0.209   5.312   5.117 -0.3966 -0.0970 -1.6057
 2382TIP3    H228562   0.356   5.307   5.082  0.1559 -0.3439  0.6436
 2383TIP3   OH228563   3.962   5.290   0.783  0.0240  0.3153 -0.1822
 2383TIP3    H128564   4.036   5.305   0.841 -0.6893  1.8544  0.3740
 2383TIP3    H228565   3.999   5.291   0.695  0.7345  0.5297  0.1229
 2384TIP3   OH228566   3.391   4.547  10.558  0.5993  0.3109 -0.2640
 2384TIP3    H128567   3.476   4.541  10.603  0.4938  0.1749 -0.0826
 2384TIP3    H228568   3.361   4.456  10.552  0.0419  0.4446  0.4783
 2385TIP3   OH228569   4.307   3.755   3.765 -0.9202 -0.4223 -0.8730
 2385TIP3    H128570   4.294   3.822   3.698 -1.6321  1.2750  0.9116
 2385TIP3    H228571   4.262   3.789   3.842  1.8382 -1.2374  1.1864
 2386TIP3   OH228572   4.445   6.174   3.395 -0.0518  0.1047  0.1657
 2386TIP3    H128573   4.360   6.130   3.403 -0.7650  1.3620 -0.3611
 2386TIP3    H228574   4.442   6.217   3.310  0.7915  0.8409  0.5010
 2387TIP3   OH228575   1.390   3.017   6.640  0.7902 -0.0780  0.1125
 2387TIP3    H128576   1.365   2.958   6.569 -2.2718  1.4974 -0.2271
 2387TIP3    H228577   1.384   2.963   6.719  3.5889 -1.6649 -0.6724
 2388TIP3   OH228578   0.754   5.852  15.657  0.7607  0.2575  0.1753
 2388TIP3    H128579   0.720   5.913  15.592  0.4485  0.0242  0.1173
 2388TIP3    H228580   0.785   5.907  15.729  1.8530  0.5583 -0.5192
 2389TIP3   OH228581   1.413   2.957  13.202  0.3329  0.1108  0.7928
 2389TIP3    H128582   1.416   2.870  13.243  2.0381 -0.2392 -0.0385
 2389TIP3    H228583   1.324   2.963  13.167  0.1134 -1.2080  1.0758
 2390TIP3   OH228584   1.178   1.878  13.501  0.0918 -0.0947 -0.0204
 2390TIP3    H128585   1.224   1.912  13.424  0.1541 -0.6231 -0.2236
 2390TIP3    H228586   1.225   1.915  13.576  1.0309 -0.8516 -0.2248
 2391TIP3   OH228587   1.118   5.972  12.675 -0.4114  0.2189  0.6553
 2391TIP3    H128588   1.053   5.963  12.605 -0.5701 -0.5290  0.9034
 2391TIP3    H228589   1.080   5.926  12.750  1.0698 -1.5277  0.3662
 2392TIP3   OH228590   3.692   3.178  11.972 -0.3144 -0.0617  0.0347
 2392TIP3    H128591   3.734   3.104  11.929 -0.2542 -0.4894  0.8159
 2392TIP3    H228592   3.687   3.246  11.905  1.4292 -0.0785 -0.1166
 2393TIP3   OH228593   5.292   2.946  16.075 -0.0339  0.0053 -0.0954
 2393TIP3    H128594   5.331   3.016  16.127  0.4346 -1.0018  0.9142
 2393TIP3    H228595   5.245   2.992  16.005  1.7415  1.2752 -0.4857
 2394TIP3   OH228596   2.396   2.084   4.366  0.1997 -0.0858  0.0457
 2394TIP3    H128597   2.471   2.069   4.425 -1.7468  0.5372  2.8025
 2394TIP3    H228598   2.356   1.997   4.357  0.6595 -0.2334 -0.6163
 2395TIP3   OH228599   5.410   2.283   0.450  0.0424 -0.0731  0.2011
 2395TIP3    H128600   5.328   2.234   0.440  0.2516 -0.2490 -0.7756
 2395TIP3    H228601   5.476   2.216   0.470 -0.1407  0.1313  1.5303
 2396TIP3   OH228602   2.751   1.197   4.823 -0.2237  0.5217 -0.8143
 2396TIP3    H128603   2.801   1.272   4.856 -0.3404  0.0127  0.5517
 2396TIP3    H228604   2.809   1.156   4.759  0.7561  0.4467  0.1169
 2397TIP3   OH228605   1.826   0.524   0.040  0.3662 -0.0258 -0.2746
 2397TIP3    H128606   1.901   0.582   0.028 -0.5065  1.2423  0.2754
 2397TIP3    H228607   1.853   0.464   0.110  0.7456  0.6326  0.1501
 2398TIP3   OH228608   0.087   0.054  12.306  0.5692  0.0379  0.4285
 2398TIP3    H128609   0.089  -0.030  12.259  0.3371 -0.8473  1.9530
 2398TIP3    H228610   0.039   0.035  12.386  1.9051  1.2248  1.5439
 2399TIP3   OH228611   0.861   4.634   5.462 -0.3648  0.4800  0.3036
 2399TIP3    H128612   0.924   4.562   5.454 -0.1124  0.7457 -0.0756
 2399TIP3    H228613   0.777   4.595   5.436 -0.6405 -0.2821  2.2630
 2400TIP3   OH228614   4.271   6.554   5.750  0.0558  0.5492  0.3887
 2400TIP3    H128615   4.308   6.597   5.827 -0.4825  0.1690  0.8569
 2400TIP3    H228616   4.200   6.611   5.721  1.4792  1.6996 -0.9890
 2401TIP3   OH228617   6.669   5.258  13.918 -0.3590 -0.8824  0.3000
 2401TIP3    H128618   6.699   5.337  13.873  0.9485 -1.5384  0.0053
 2401TIP3    H228619   6.576   5.252  13.895 -0.6331  0.8896  0.8086
 2402TIP3   OH228620   5.401   1.306   1.058 -0.5911 -0.0662  0.0986
 2402TIP3    H128621   5.360   1.390   1.077  2.5499  1.1601  1.8744
 2402TIP3    H228622   5.401   1.259   1.141  1.1253 -0.1852  0.0644
 2403TIP3   OH228623   3.074   1.945   0.708  0.2382 -0.4527 -0.0318
 2403TIP3    H128624   2.987   1.937   0.747  1.1613 -0.2884  2.1292
 2403TIP3    H228625   3.115   2.016   0.757  1.8085 -0.9645 -0.6004
 2404TIP3   OH228626   1.528   5.691   2.705 -0.0010  0.3813  0.1695
 2404TIP3    H128627   1.595   5.624   2.700 -1.6601 -1.3454  0.6933
 2404TIP3    H228628   1.566   5.760   2.759  2.6458  1.0119 -2.3920
 2405TIP3   OH228629   1.826   1.001  13.434  1.0068 -0.2211  0.2298
 2405TIP3    H128630   1.790   1.016  13.347 -0.1229  0.6952  0.8311
 2405TIP3    H228631   1.910   1.047  13.435  0.2882  1.1252  0.1309
 2406TIP3   OH228632   4.928   6.023  15.389 -0.4187 -0.2863 -0.5798
 2406TIP3    H128633   4.839   5.988  15.379 -0.7082  0.6766 -1.5581
 2406TIP3    H228634   4.974   5.992  15.311  0.5458 -1.9919  0.6206
 2407TIP3   OH228635   3.343   3.498  12.299 -0.3502  0.2614  0.2725
 2407TIP3    H128636   3.280   3.454  12.242 -0.0707 -1.9959  1.6368
 2407TIP3    H228637   3.394   3.427  12.338  2.8300  2.0261 -0.5324
 2408TIP3   OH228638   5.315   2.442   3.041  0.0409 -0.3432 -0.4698
 2408TIP3    H128639   5.306   2.419   2.949 -1.2755 -0.0958 -0.4109
 2408TIP3    H228640   5.388   2.503   3.043 -1.1750  1.1719 -1.6192
 2409TIP3   OH228641   4.118   1.770   0.605 -0.3704  0.3712  0.9271
 2409TIP3    H128642   4.186   1.835   0.621  0.4810 -0.3947  0.5082
 2409TIP3    H228643   4.144   1.728   0.523 -0.1352 -1.4357  1.8868
 2410TIP3   OH228644   1.560   3.130   5.228 -0.3483 -0.3354  0.0030
 2410TIP3    H128645   1.521   3.076   5.298 -1.3105  0.0983 -0.1911
 2410TIP3    H228646   1.646   3.091   5.214 -0.5772 -1.1150  0.6691
 2411TIP3   OH228647   5.789   5.285   0.357 -0.3129 -0.1653  0.4600
 2411TIP3    H128648   5.848   5.237   0.416 -0.8328 -1.8218 -0.3350
 2411TIP3    H228649   5.707   5.292   0.405 -0.1844  0.0822  0.6436
 2412TIP3   OH228650   0.761   2.784  15.244  0.0001  0.2759  0.1665
 2412TIP3    H128651   0.765   2.879  15.229  0.2935  0.3503  0.6986
 2412TIP3    H228652   0.683   2.772  15.298  1.0079  0.4340  1.6878
 2413TIP3   OH228653   6.688   3.837  13.104 -0.9515 -0.0481 -0.1556
 2413TIP3    H128654   6.717   3.747  13.091 -0.3690  0.1461 -0.2461
 2413TIP3    H228655   6.655   3.865  13.018  1.2382  0.6524 -0.8061
 2414TIP3   OH228656   0.606   0.607  14.874 -0.2580 -0.0621 -0.2223
 2414TIP3    H128657   0.581   0.666  14.945 -0.6927  0.5499 -0.8743
 2414TIP3    H228658   0.645   0.532  14.918 -0.8455  0.1502  0.6776
 2415TIP3   OH228659   3.786   5.666   1.440  0.3096 -0.3660 -0.2640
 2415TIP3    H128660   3.744   5.626   1.364 -0.1966  0.9292 -0.6665
 2415TIP3    H228661   3.816   5.751   1.410 -2.2856  1.3058  1.6516
 2416TIP3   OH228662   6.575   0.917   6.316  0.0595  0.2537  0.5515
 2416TIP3    H128663   6.548   0.954   6.400  0.4759  0.5763  0.5493
 2416TIP3    H228664   6.668   0.940   6.309  0.7280 -2.0502  1.2215
 2417TIP3   OH228665   1.841   2.500   3.300 -0.3614 -0.7940  0.6486
 2417TIP3    H128666   1.834   2.504   3.395 -1.6936 -0.1724  0.5360
 2417TIP3    H228667   1.902   2.427   3.283  1.4654  0.3883  2.0007
 2418TIP3   OH228668   3.679   4.497  12.111  0.3366  0.0036 -0.2230
 2418TIP3    H128669   3.620   4.568  12.137 -0.4756  0.0442 -2.1051
 2418TIP3    H228670   3.663   4.486  12.017  2.3532 -0.9135 -0.4734
 2419TIP3   OH228671   5.789   2.899   3.413  0.1662 -0.6422  0.3348
 2419TIP3    H128672   5.796   2.891   3.318 -0.5865 -0.5381  0.2676
 2419TIP3    H228673   5.819   2.987   3.432 -2.4517  0.3805 -0.1152
 2420TIP3   OH228674   4.048   0.351  12.448 -0.6328 -0.1099  0.1097
 2420TIP3    H128675   4.133   0.307  12.450 -1.2081 -1.2903 -0.6731
 2420TIP3    H228676   4.068   0.442  12.470  1.0228 -0.0931 -1.3035
 2421TIP3   OH228677   5.782   0.534   5.526 -0.0475 -0.3266  0.0955
 2421TIP3    H128678   5.787   0.459   5.466  2.4760 -0.5684  0.5566
 2421TIP3    H228679   5.770   0.610   5.469 -1.4142 -0.9344 -0.4521
 2422TIP3   OH228680   6.641   0.645  13.493  0.4625  0.0171  0.1636
 2422TIP3    H128681   6.701   0.646  13.568  0.8972 -0.1550 -0.1824
 2422TIP3    H228682   6.698   0.636  13.416 -0.0645 -1.1018 -0.1080
 2423TIP3   OH228683   3.738   2.323   2.370  0.5338  0.1206  0.1772
 2423TIP3    H128684   3.648   2.349   2.352  1.0107  0.7958 -1.2992
 2423TIP3    H228685   3.732   2.229   2.390 -0.2173 -0.4236 -2.3573
 2424TIP3   OH228686   4.733   4.162  17.203 -0.2701  0.5402  0.4179
 2424TIP3    H128687   4.641   4.144  17.183 -0.4604  0.8577  1.0202
 2424TIP3    H228688   4.776   4.077  17.193 -0.2588  0.7860 -1.8982
 2425TIP3   OH228689   5.758   1.043   3.141  0.0316  0.3897  0.1021
 2425TIP3    H128690   5.794   1.124   3.104  2.1802 -0.2227  0.8057
 2425TIP3    H228691   5.749   0.984   3.066 -1.5632  1.2426 -0.4186
 2426TIP3   OH228692   5.786   4.381   2.724  0.4807  0.2698  0.1627
 2426TIP3    H128693   5.755   4.360   2.636 -0.2287  0.8845  0.2546
 2426TIP3    H228694   5.713   4.358   2.781  1.7637 -2.2946  0.8561
 2427TIP3   OH228695   1.322   3.989  11.516  0.0037  0.6626  0.4120
 2427TIP3    H128696   1.319   4.040  11.598 -0.1099  1.8295 -0.3048
 2427TIP3    H228697   1.288   4.049  11.450 -1.0133 -0.6655 -0.2986
 2428TIP3   OH228698   2.786   1.867  13.825  0.2065  0.0528  0.1235
 2428TIP3    H128699   2.772   1.860  13.919  1.6317 -1.4949  0.2414
 2428TIP3    H228700   2.714   1.817  13.786  0.3229 -0.3495  0.4256
 2429TIP3   OH228701   1.562   3.099  13.689 -0.3631 -0.1528 -0.4300
 2429TIP3    H128702   1.554   3.060  13.777 -0.6029 -0.6131 -0.6573
 2429TIP3    H228703   1.476   3.088  13.650 -0.0274 -0.6714 -1.0259
 2430TIP3   OH228704   4.781   0.969  14.459  0.1137  0.5348 -0.2068
 2430TIP3    H128705   4.810   1.024  14.386  0.6752  1.6423  0.8347
 2430TIP3    H228706   4.780   1.028  14.535 -1.0424 -0.4577  0.5685
 2431TIP3   OH228707   2.655   1.256   4.165 -0.0580 -0.2482 -0.2755
 2431TIP3    H128708   2.623   1.306   4.090 -1.0642 -0.3237  0.0990
 2431TIP3    H228709   2.749   1.276   4.169 -0.3954  1.4627 -0.2514
 2432TIP3   OH228710   5.025   2.666  17.002 -0.1143 -0.1418  0.0133
 2432TIP3    H128711   5.059   2.724  16.933 -0.2827 -3.3071 -2.8767
 2432TIP3    H228712   4.939   2.701  17.022 -0.4471  0.3380 -2.0871
 2433TIP3   OH228713   0.468   6.310   0.709 -0.2842 -0.6376  0.4217
 2433TIP3    H128714   0.422   6.379   0.662  0.3181  0.3871  1.3149
 2433TIP3    H228715   0.404   6.279   0.774 -0.9817 -1.7911 -0.7938
 2434TIP3   OH228716   0.279   5.536   1.366  0.0678 -0.2552  0.1952
 2434TIP3    H128717   0.242   5.587   1.294 -0.8708  0.0982  0.9141
 2434TIP3    H228718   0.233   5.452   1.363 -0.7815  0.1631  1.0528
 2435TIP3   OH228719   4.522   0.717   6.522  0.0905  0.1831  0.2809
 2435TIP3    H128720   4.545   0.681   6.607  1.2818 -2.0440 -0.9426
 2435TIP3    H228721   4.574   0.797   6.515  1.2503 -0.5013  0.9572
 2436TIP3   OH228722   2.001   3.191   4.450  0.3994  0.4790 -0.7070
 2436TIP3    H128723   2.053   3.250   4.394  1.9904 -1.2048 -1.0569
 2436TIP3    H228724   2.021   3.104   4.416  0.5992 -0.5001  1.8611
 2437TIP3   OH228725   4.027   3.701   2.286 -0.4830 -0.1407 -0.2980
 2437TIP3    H128726   3.960   3.637   2.308  0.3486 -1.7659 -2.2880
 2437TIP3    H228727   4.103   3.676   2.338 -1.0553  1.0594  1.1553
 2438TIP3   OH228728   5.062   4.879  11.867  0.0578 -0.2732  0.1422
 2438TIP3    H128729   5.030   4.847  11.951 -1.6326 -3.6544 -1.7020
 2438TIP3    H228730   4.995   4.852  11.804  0.7999  3.0241 -2.2134
 2439TIP3   OH228731   6.521   5.495  14.947 -0.0209 -0.2128 -0.2561
 2439TIP3    H128732   6.486   5.571  14.901  0.4801  0.0758 -0.1630
 2439TIP3    H228733   6.584   5.456  14.887  1.7985  1.0715  0.7704
 2440TIP3   OH228734   3.173   3.845  12.334 -0.0203  0.3743 -0.6422
 2440TIP3    H128735   3.267   3.863  12.342 -0.4479  2.1386  0.6870
 2440TIP3    H228736   3.161   3.818  12.243  1.7612  0.2115 -0.8356
 2441TIP3   OH228737   5.774   4.819   2.187  0.3288 -0.1246 -0.6930
 2441TIP3    H128738   5.776   4.828   2.091 -2.5409  0.1273 -0.7697
 2441TIP3    H228739   5.802   4.904   2.219  0.0233  0.2234 -1.3301
 2442TIP3   OH228740   1.777   0.491   1.847 -0.1779  0.0018  0.3419
 2442TIP3    H128741   1.818   0.490   1.934 -0.8806 -0.5310  0.6728
 2442TIP3    H228742   1.830   0.431   1.795  1.5337  1.9486 -0.2066
 2443TIP3   OH228743   0.420   2.111  12.882  0.0489  0.5467 -0.2951
 2443TIP3    H128744   0.393   2.105  12.974 -0.6407  1.2913 -0.4445
 2443TIP3    H228745   0.343   2.143  12.836  0.2699 -0.1961 -1.2080
 2444TIP3   OH228746   1.773   5.825  16.134 -0.0748  0.2393  0.8425
 2444TIP3    H128747   1.812   5.739  16.115 -0.7750 -0.0599  0.7416
 2444TIP3    H228748   1.839   5.869  16.188 -0.1750 -0.7971  1.8567
 2445TIP3   OH228749   0.814   4.297   2.818  0.0836  0.3022 -0.9427
 2445TIP3    H128750   0.840   4.255   2.736  1.1193  0.6433 -0.7916
 2445TIP3    H228751   0.732   4.254   2.842  1.5373 -2.2224 -0.3507
 2446TIP3   OH228752   0.154   5.594  15.215  0.1087 -0.2244  0.1636
 2446TIP3    H128753   0.097   5.546  15.275 -0.0166  1.5611  1.4961
 2446TIP3    H228754   0.103   5.602  15.134  0.3983 -2.9056 -0.3309
 2447TIP3   OH228755   1.551   1.361  13.823 -0.4410 -0.0129  0.3180
 2447TIP3    H128756   1.633   1.389  13.863 -0.0617  0.4960 -0.7990
 2447TIP3    H228757   1.568   1.273  13.791  0.4102  0.9351 -1.9496
 2448TIP3   OH228758   2.856   0.981  10.810  0.6892 -0.2533  0.3577
 2448TIP3    H128759   2.847   1.076  10.807  0.0475 -0.3234 -0.3467
 2448TIP3    H228760   2.890   0.958  10.723  0.3643 -0.6983  0.3418
 2449TIP3   OH228761   0.282   4.360   4.429  0.4806 -0.2128  0.3157
 2449TIP3    H128762   0.290   4.454   4.415 -2.4329  0.0044 -0.3202
 2449TIP3    H228763   0.351   4.321   4.375  0.9340  1.5071 -0.3772
 2450TIP3   OH228764   5.334   1.106  14.037 -0.0159  0.0803 -0.3881
 2450TIP3    H128765   5.342   1.159  13.958  2.1133 -0.6140 -0.6795
 2450TIP3    H228766   5.353   1.166  14.109  1.9615 -0.1390 -0.6890
 2451TIP3   OH228767   6.117   3.318  15.228 -0.6639  0.4172  0.0315
 2451TIP3    H128768   6.066   3.262  15.287  1.1284 -0.7071  0.5559
 2451TIP3    H228769   6.105   3.406  15.262 -0.2548 -0.1269  1.6582
 2452TIP3   OH228770   6.044   5.383  15.045  0.0302 -0.6496  0.0126
 2452TIP3    H128771   6.004   5.351  15.125 -2.0261  1.1705 -0.2340
 2452TIP3    H228772   6.034   5.311  14.982 -0.0303 -1.3797  0.8541
 2453TIP3   OH228773   5.978   0.681   0.836 -0.1618  0.6828  0.5265
 2453TIP3    H128774   6.062   0.670   0.880 -0.1977 -1.1344  0.1753
 2453TIP3    H228775   5.913   0.675   0.907 -0.1401 -0.8374  0.4368
 2454TIP3   OH228776   2.477   4.493   4.373  0.2190  0.4747 -0.3558
 2454TIP3    H128777   2.558   4.545   4.372  1.1494 -0.9413 -0.6630
 2454TIP3    H228778   2.426   4.527   4.299  0.4013  1.5763  0.0140
 2455TIP3   OH228779   6.680   5.718  13.266  0.3895  0.1594 -0.0972
 2455TIP3    H128780   6.684   5.630  13.229 -0.2188  0.3144 -0.5497
 2455TIP3    H228781   6.620   5.765  13.208 -0.1708  0.5516  0.7895
 2456TIP3   OH228782   2.197   4.037   3.422  0.1694  0.3698  0.0360
 2456TIP3    H128783   2.275   4.021   3.369  0.3136  0.0730  0.3398
 2456TIP3    H228784   2.230   4.048   3.511 -0.2310 -0.8094  0.3371
 2457TIP3   OH228785   3.018   3.176  12.691 -0.1151 -0.7244 -0.4021
 2457TIP3    H128786   2.977   3.254  12.653 -1.6458 -1.5242 -0.4493
 2457TIP3    H228787   2.969   3.161  12.772  2.2865  0.2241  1.2912
 2458TIP3   OH228788   4.101   0.068   1.606  0.2462  0.6257  0.1036
 2458TIP3    H128789   4.163   0.135   1.636  1.2658 -0.1591 -0.2457
 2458TIP3    H228790   4.146   0.024   1.534 -0.6715 -0.0443 -0.0695
 2459TIP3   OH228791   4.337   2.479  15.395 -0.0389 -0.3578 -0.0067
 2459TIP3    H128792   4.334   2.402  15.451 -0.0324 -0.3436  0.0124
 2459TIP3    H228793   4.246   2.492  15.367 -0.0198 -0.4492 -0.1143
 2460TIP3   OH228794   3.417   4.997  17.102 -0.2596 -0.1578 -0.3421
 2460TIP3    H128795   3.438   4.986  17.194 -2.1376  1.0150  0.2536
 2460TIP3    H228796   3.334   5.045  17.101 -0.4050 -0.3663 -2.6314
 2461TIP3   OH228797   3.321   4.946  10.311  0.2918  0.3512 -0.5139
 2461TIP3    H128798   3.289   4.867  10.355  2.3660  0.0818  0.6057
 2461TIP3    H228799   3.262   5.016  10.340 -0.0705 -0.3528  0.4599
 2462TIP3   OH228800   2.224   5.477   1.560  0.3662 -0.3943 -0.3837
 2462TIP3    H128801   2.244   5.510   1.647  1.3263 -1.7722 -0.0585
 2462TIP3    H228802   2.145   5.524   1.534 -0.4517 -0.6268  1.6052
 2463TIP3   OH228803   3.001   6.108  17.098 -0.1615 -0.3191 -0.3563
 2463TIP3    H128804   3.061   6.072  17.163 -0.7705 -1.3055 -0.3338
 2463TIP3    H228805   3.004   6.203  17.112  0.3531 -0.4677  0.5475
 2464TIP3   OH228806   6.513   5.194   1.739  0.1870 -0.4417 -0.1418
 2464TIP3    H128807   6.495   5.189   1.833 -0.0978 -2.1774 -0.2778
 2464TIP3    H228808   6.429   5.217   1.700 -0.6404 -3.5223 -0.3030
 2465TIP3   OH228809   0.183   4.079  11.434  0.4757  0.6426 -0.7159
 2465TIP3    H128810   0.126   4.138  11.481  1.0207 -0.8789  1.9575
 2465TIP3    H228811   0.126   4.033  11.373 -0.5397  1.4669 -0.3917
 2466TIP3   OH228812   1.471   0.319   2.398  0.4903 -0.0398  0.1747
 2466TIP3    H128813   1.560   0.323   2.435  1.0867  1.8575 -1.3694
 2466TIP3    H228814   1.472   0.243   2.341  0.3025 -1.5681  2.1649
 2467TIP3   OH228815   4.607   0.557  15.410  0.0022  0.8197  0.2292
 2467TIP3    H128816   4.595   0.636  15.462 -0.3117 -0.0106  1.4256
 2467TIP3    H228817   4.522   0.513  15.410 -0.2235  1.1879 -1.6423
 2468TIP3   OH228818   4.233   6.184   1.787 -0.1398 -0.0317 -0.1126
 2468TIP3    H128819   4.194   6.097   1.790 -1.6735  0.6761  1.0404
 2468TIP3    H228820   4.171   6.237   1.737  1.1800  0.2161 -1.5181
 2469TIP3   OH228821   2.881   4.028  15.428  0.5266 -0.1974 -0.2498
 2469TIP3    H128822   2.837   3.948  15.454  1.3846 -0.4079  0.5809
 2469TIP3    H228823   2.814   4.096  15.433  0.2747 -0.5279  0.9030
 2470TIP3   OH228824   5.553   6.592  13.653 -0.1881  0.0602 -0.5821
 2470TIP3    H128825   5.476   6.537  13.637 -1.0365  0.8624  0.7002
 2470TIP3    H228826   5.579   6.572  13.743  2.1793 -1.5025 -1.5491
 2471TIP3   OH228827   1.087   5.215  10.525  0.2313  0.3338 -0.3165
 2471TIP3    H128828   1.044   5.285  10.573  0.2976  2.2044 -2.8515
 2471TIP3    H228829   1.172   5.253  10.500  0.7666 -1.0915 -0.6844
 2472TIP3   OH228830   0.246   0.386   4.886  0.2388  0.0578 -0.6014
 2472TIP3    H128831   0.287   0.413   4.803  2.4457  1.4325  0.9010
 2472TIP3    H228832   0.287   0.303   4.907  0.6793  0.3788 -0.1934
 2473TIP3   OH228833   6.534   0.880  15.798 -0.4806  0.1744  0.6827
 2473TIP3    H128834   6.571   0.795  15.822  3.5645  1.6029  0.0521
 2473TIP3    H228835   6.512   0.921  15.881  0.0459 -0.4973  1.1588
 2474TIP3   OH228836   3.777   2.454  14.613  0.0320  0.0784 -0.4420
 2474TIP3    H128837   3.750   2.540  14.648 -1.0876 -0.1722 -0.6562
 2474TIP3    H228838   3.835   2.475  14.540 -0.1173  0.6541 -0.4008
 2475TIP3   OH228839   5.866   5.819   0.332 -0.0542  0.0727  0.0379
 2475TIP3    H128840   5.816   5.851   0.407 -0.3869 -1.5069  0.5116
 2475TIP3    H228841   5.827   5.735   0.311  1.4870 -0.5411 -0.4711
 2476TIP3   OH228842   1.636   6.387   1.130 -0.0182 -0.2378  0.2626
 2476TIP3    H128843   1.611   6.478   1.147  2.6081  0.8572 -1.5043
 2476TIP3    H228844   1.679   6.359   1.211 -0.5971  0.1721  0.7217
 2477TIP3   OH228845   3.315   3.990   3.869 -0.2655  0.1043 -0.2630
 2477TIP3    H128846   3.405   3.956   3.861  0.6385  1.9145  1.7799
 2477TIP3    H228847   3.310   4.059   3.802 -0.6180 -0.9090 -1.3094
 2478TIP3   OH228848   1.902   0.105   2.680 -0.2438 -0.2472  0.2658
 2478TIP3    H128849   1.982   0.141   2.719 -0.5538 -1.1944  1.7832
 2478TIP3    H228850   1.921   0.104   2.586  0.7864  1.3486  0.4338
 2479TIP3   OH228851   2.262   0.048   0.900  0.0998  0.1415  0.3926
 2479TIP3    H128852   2.250   0.001   0.982 -2.5392  0.4722  0.2320
 2479TIP3    H228853   2.244  -0.018   0.832 -0.1526  0.4779  0.1276
 2480TIP3   OH228854   2.119   3.765   0.829  0.6991  0.0377 -0.0747
 2480TIP3    H128855   2.109   3.839   0.770  0.8599  1.1574  1.2885
 2480TIP3    H228856   2.213   3.753   0.837  0.6864  0.2386  0.3852
 2481TIP3   OH228857   2.679   3.055  14.284 -0.2502 -0.8139 -0.7878
 2481TIP3    H128858   2.643   2.982  14.334  1.8265 -1.5295 -0.2961
 2481TIP3    H228859   2.691   3.020  14.196 -1.1829 -0.4306 -1.0723
 2482TIP3   OH228860   6.781   5.862   3.286  0.0140  0.0700 -0.0621
 2482TIP3    H128861   6.788   5.846   3.380  2.5711  0.7514 -0.0804
 2482TIP3    H228862   6.751   5.953   3.279  0.6392  0.2963  0.1210
 2483TIP3   OH228863   4.742   3.252  12.938  0.0124  0.0842 -0.3095
 2483TIP3    H128864   4.697   3.292  13.012 -1.2368 -0.3127 -0.8469
 2483TIP3    H228865   4.753   3.160  12.963  1.7921  0.4790  0.4098
 2484TIP3   OH228866   0.678   1.770   4.650  0.3107 -0.0436  0.4676
 2484TIP3    H128867   0.636   1.685   4.665 -0.6346  0.3924  0.3697
 2484TIP3    H228868   0.715   1.764   4.562 -0.8858  0.0906 -0.0537
 2485TIP3   OH228869   2.398   2.460  12.307 -0.0595  0.3328  0.1873
 2485TIP3    H128870   2.379   2.385  12.364  0.5914  0.5516  0.6921
 2485TIP3    H228871   2.407   2.534  12.367  0.1077  0.6607 -0.2436
 2486TIP3   OH228872   2.771   2.754  15.227  0.2972 -0.4979  0.0767
 2486TIP3    H128873   2.867   2.757  15.227  0.3492 -1.0743  2.8722
 2486TIP3    H228874   2.747   2.775  15.137  2.9928  1.5143 -0.2418
 2487TIP3   OH228875   2.737   2.656  13.277  0.2690 -0.7454 -0.1833
 2487TIP3    H128876   2.751   2.632  13.186 -0.0080 -0.3649 -0.3285
 2487TIP3    H228877   2.749   2.752  13.279  2.0364 -0.9517  0.5058
 2488TIP3   OH228878   0.345   0.151  12.549 -0.2296 -0.2641  0.0381
 2488TIP3    H128879   0.360   0.226  12.606  0.5664  1.0185 -1.7941
 2488TIP3    H228880   0.259   0.118  12.574 -0.8616  1.6559  0.4383
 2489TIP3   OH228881   0.678   5.863  16.300 -0.2975 -0.2286 -0.1657
 2489TIP3    H128882   0.760   5.911  16.310 -1.0208  0.9530  0.2804
 2489TIP3    H228883   0.610   5.929  16.316 -1.3126 -1.4457  0.6507
 2490TIP3   OH228884   3.144   3.035  14.874 -0.1099 -0.3333  0.2176
 2490TIP3    H128885   3.171   2.960  14.927 -0.0740 -0.7117 -0.3297
 2490TIP3    H228886   3.106   2.996  14.795  1.1297  0.2312 -0.6746
 2491TIP3   OH228887   6.622   5.937   1.728 -0.3777 -0.1221  0.6930
 2491TIP3    H128888   6.573   5.959   1.648  0.6414  0.1586  0.1426
 2491TIP3    H228889   6.660   5.851   1.710 -0.5408 -0.2686  1.0593
 2492TIP3   OH228890   3.206   2.803  15.525 -0.2236 -0.2581 -0.2418
 2492TIP3    H128891   3.192   2.773  15.435  0.0306 -0.5065 -0.2011
 2492TIP3    H228892   3.126   2.779  15.572 -0.6252  0.4585 -0.5531
 2493TIP3   OH228893   4.415   0.134   0.570  0.3655  0.3306 -0.2670
 2493TIP3    H128894   4.439   0.068   0.505 -0.3618  0.4319 -0.6398
 2493TIP3    H228895   4.382   0.208   0.519 -3.8688 -1.0410  0.2857
 2494TIP3   OH228896   4.195   0.273  16.280  0.3470 -0.0752 -0.7503
 2494TIP3    H128897   4.256   0.199  16.286 -0.7413 -1.1616 -2.6532
 2494TIP3    H228898   4.201   0.302  16.190 -1.0243  0.6005 -0.6420
 2495TIP3   OH228899   1.236   4.114   0.405 -0.1605 -0.5553  0.0692
 2495TIP3    H128900   1.153   4.067   0.401  0.5284 -1.7278 -0.6666
 2495TIP3    H228901   1.251   4.128   0.498 -0.9289 -0.7964  0.2309
 2496TIP3   OH228902   6.618   5.424   4.869  0.2527  0.4301  0.0300
 2496TIP3    H128903   6.573   5.364   4.810  1.1076 -2.1569  1.8773
 2496TIP3    H228904   6.549   5.457   4.927  0.0688 -0.3647  0.2762
 2497TIP3   OH228905   3.861   2.665   4.908 -0.1143 -0.2730  0.2056
 2497TIP3    H128906   3.767   2.667   4.928  0.1768 -0.7000  1.6483
 2497TIP3    H228907   3.885   2.757   4.894 -1.3033 -0.3861 -2.8822
 2498TIP3   OH228908   1.058   0.345  13.137  0.1467 -0.2676  0.6370
 2498TIP3    H128909   1.080   0.384  13.222  3.6967 -1.2094  0.2427
 2498TIP3    H228910   1.126   0.378  13.078 -1.0484 -1.3224 -1.3677
 2499TIP3   OH228911   1.338   6.563   3.421 -0.9764 -0.6079 -0.3076
 2499TIP3    H128912   1.276   6.615   3.370 -0.3844 -0.8550 -1.2882
 2499TIP3    H228913   1.413   6.551   3.363  0.3967  0.5061  1.2222
 2500TIP3   OH228914   6.055   5.405  15.509 -0.0859 -0.0870  0.0900
 2500TIP3    H128915   6.049   5.372  15.599  3.0942  1.3976  0.9530
 2500TIP3    H228916   6.018   5.493  15.513 -0.5572 -0.2696 -0.2138
 2501TIP3   OH228917   5.747   4.965  16.589  0.1338  0.3541  0.0988
 2501TIP3    H128918   5.654   4.947  16.607  0.6453 -0.4873  2.0578
 2501TIP3    H228919   5.760   5.055  16.617 -0.1915  0.6387 -0.6399
 2502TIP3   OH228920   4.095   1.401  13.234 -0.0545 -0.0509 -0.0934
 2502TIP3    H128921   4.047   1.352  13.167  0.6592  1.1684 -1.5080
 2502TIP3    H228922   4.153   1.459  13.185  2.0348 -0.6710  1.6026
 2503TIP3   OH228923   4.251   0.389  16.832  0.4094  0.0225  0.4678
 2503TIP3    H128924   4.210   0.353  16.754  1.4037 -1.5440  0.6555
 2503TIP3    H228925   4.189   0.372  16.903 -0.0466  0.5656  0.2080
 2504TIP3   OH228926   5.632   4.101   3.343  0.0323 -0.1289  0.5782
 2504TIP3    H128927   5.615   4.026   3.285  0.3827  0.1943  0.0582
 2504TIP3    H228928   5.635   4.063   3.431  2.9370 -1.1496  0.0695
 2505TIP3   OH228929   1.662   2.410  13.287 -0.2877  0.3284  0.4437
 2505TIP3    H128930   1.617   2.388  13.369  0.4668 -0.2174  0.7152
 2505TIP3    H228931   1.652   2.332  13.233  0.6778  0.0570  0.6570
 2506TIP3   OH228932   0.279   6.493   4.042  0.5815  0.4169  0.2268
 2506TIP3    H128933   0.364   6.512   4.002  0.6858  1.7585  1.0473
 2506TIP3    H228934   0.299   6.441   4.120  0.4439 -1.4621 -0.9792
 2507TIP3   OH228935   6.533   5.555  15.227 -0.2664 -0.7782  0.5623
 2507TIP3    H128936   6.441   5.570  15.250  0.0588  1.5345  0.4643
 2507TIP3    H228937   6.531   5.536  15.133 -0.3979  1.9588 -0.0118
 2508TIP3   OH228938   5.742   2.568  15.863 -0.2493  0.0068  0.1154
 2508TIP3    H128939   5.655   2.529  15.869 -0.7390  1.0364 -0.0315
 2508TIP3    H228940   5.739   2.644  15.922 -0.0225  1.0391 -1.1639
 2509TIP3   OH228941   4.591   0.006  11.527  0.0225 -0.2872  0.5213
 2509TIP3    H128942   4.609   0.100  11.523 -0.8665 -0.1217  0.4001
 2509TIP3    H228943   4.538  -0.005  11.606  0.6923 -0.7831  0.9062
 2510TIP3   OH228944   1.158   1.074  12.297  0.1604 -0.4272 -0.1370
 2510TIP3    H128945   1.251   1.081  12.319  0.0558  1.3720 -0.1738
 2510TIP3    H228946   1.144   1.140  12.230 -0.6448 -2.3404 -1.9001
 2511TIP3   OH228947   3.804   6.149   2.389  0.3710 -0.1243  0.6852
 2511TIP3    H128948   3.889   6.109   2.405  0.6776  0.1163 -0.2832
 2511TIP3    H228949   3.812   6.238   2.424  1.1223  0.4850 -0.9615
 2512TIP3   OH228950   2.123   4.343  13.726 -0.2433  0.0875 -0.0956
 2512TIP3    H128951   2.089   4.433  13.725 -0.2635  0.1245  1.7203
 2512TIP3    H228952   2.213   4.352  13.756  0.4561 -0.2970 -2.0718
 2513TIP3   OH228953   6.555   5.989  16.118 -0.2254 -0.1986 -0.4593
 2513TIP3    H128954   6.623   5.981  16.050  0.3076  0.9669 -0.0745
 2513TIP3    H228955   6.561   5.908  16.168  0.8352 -0.1380 -0.4807
 2514TIP3   OH228956   5.510   2.869  15.517  0.0857  0.3773 -0.0823
 2514TIP3    H128957   5.506   2.920  15.436 -1.6437  1.9780  0.9775
 2514TIP3    H228958   5.552   2.927  15.580 -1.8595  0.5039  1.1217
 2515TIP3   OH228959   2.998   3.911   5.154 -0.2772  0.4341 -0.1239
 2515TIP3    H128960   3.016   4.003   5.174  0.2806 -0.1772  2.2760
 2515TIP3    H228961   2.913   3.894   5.195 -0.6851  0.0484 -1.1180
 2516TIP3   OH228962   1.478   2.325  12.715  0.1502  0.6655  0.1189
 2516TIP3    H128963   1.547   2.368  12.766  0.0307  1.0141 -0.0117
 2516TIP3    H228964   1.525   2.274  12.649  0.2606  2.4379 -1.2150
 2517TIP3   OH228965   0.120   3.445   3.035 -0.3566  0.0319 -0.0087
 2517TIP3    H128966   0.131   3.448   2.940 -0.1999  0.8471  0.0335
 2517TIP3    H228967   0.147   3.357   3.060  0.1875  0.0162 -0.6503
 2518TIP3   OH228968   2.485   5.434  13.571 -0.2893 -0.4258 -0.1215
 2518TIP3    H128969   2.401   5.471  13.596  0.4071 -0.4234  2.3765
 2518TIP3    H228970   2.512   5.485  13.495 -1.3514  1.3432  0.6492
 2519TIP3   OH228971   3.151   2.033  10.624 -0.2301 -0.3293 -0.2819
 2519TIP3    H128972   3.142   2.048  10.718  0.9414 -2.6071  0.2195
 2519TIP3    H228973   3.192   1.947  10.616 -1.5102 -0.7615 -2.9198
 2520TIP3   OH228974   0.629   2.746   2.828  0.3847 -0.4004  0.6662
 2520TIP3    H128975   0.663   2.718   2.913  0.9707  0.7700  0.8273
 2520TIP3    H228976   0.688   2.705   2.764  0.0717 -1.1015  0.8112
 2521TIP3   OH228977   3.482   0.124   2.196 -0.3050 -0.3692  0.0796
 2521TIP3    H128978   3.561   0.175   2.176 -0.0154 -0.7006  0.3973
 2521TIP3    H228979   3.435   0.121   2.112 -0.0277 -0.0992 -0.0891
 2522TIP3   OH228980   0.785   4.092  12.902  0.0756  0.7546  0.5894
 2522TIP3    H128981   0.870   4.059  12.931  0.4069  0.9393 -0.1811
 2522TIP3    H228982   0.725   4.068  12.973  0.4927 -0.6606  0.4672
 2523TIP3   OH228983   4.938   2.853   0.713  0.6147  0.3062  0.2119
 2523TIP3    H128984   4.879   2.922   0.744 -0.3366 -0.5418  0.3120
 2523TIP3    H228985   4.881   2.791   0.669  1.3664 -0.7924  0.7779
 2524TIP3   OH228986   5.838   3.397  15.851  0.1369  0.5650 -0.1474
 2524TIP3    H128987   5.815   3.349  15.772  0.3126 -1.5230  1.0296
 2524TIP3    H228988   5.933   3.400  15.852  0.1876 -0.8805  0.8104
 2525TIP3   OH228989   0.072   2.929  16.484  0.3255  0.0339 -0.2551
 2525TIP3    H128990   0.020   2.943  16.563 -1.4463  0.2625 -1.4447
 2525TIP3    H228991   0.161   2.917  16.517 -0.6239 -1.5404  1.9130
 2526TIP3   OH228992   0.103   2.221  12.431 -0.3321  0.2669 -0.1074
 2526TIP3    H128993   0.064   2.230  12.518 -0.7927 -2.0436 -0.0458
 2526TIP3    H228994   0.039   2.261  12.373 -1.7603 -1.4482  0.2465
 2527TIP3   OH228995   0.845   4.874  16.982  0.1252  0.2203 -0.4961
 2527TIP3    H128996   0.870   4.782  16.978 -0.3891  0.0045  0.8924
 2527TIP3    H228997   0.750   4.873  16.972  0.1469  0.6180 -0.7439
 2528TIP3   OH228998   1.632   6.306   3.575 -0.1393 -0.0752  0.1706
 2528TIP3    H128999   1.559   6.360   3.605 -1.0934 -0.5647 -1.2365
 2528TIP3    H229000   1.615   6.292   3.482  1.2607 -0.9608  0.0393
 2529TIP3   OH229001   5.787   0.942  10.890  0.1281 -0.2787  0.3464
 2529TIP3    H129002   5.766   0.999  10.817  1.7537  0.0811  0.1282
 2529TIP3    H229003   5.848   0.993  10.944  2.0517 -1.9561 -0.1412
 2530TIP3   OH229004   3.875   4.270  13.933 -0.1764 -0.6471 -0.2569
 2530TIP3    H129005   3.848   4.275  14.025 -0.8199 -2.3717 -0.3335
 2530TIP3    H229006   3.926   4.189  13.927  2.1873  0.8580 -0.8589
 2531TIP3   OH229007   6.159   4.041  14.468 -0.1200 -0.1547  0.3218
 2531TIP3    H129008   6.074   4.084  14.458  0.0868  0.3892  0.8421
 2531TIP3    H229009   6.194   4.035  14.379 -0.1491  0.7637  0.2451
 2532TIP3   OH229010   3.466   4.802  16.535  0.0456  0.5948 -0.0207
 2532TIP3    H129011   3.432   4.734  16.476  0.6238  0.7257 -0.5095
 2532TIP3    H229012   3.495   4.872  16.476  1.5903  0.2844  0.3582
 2533TIP3   OH229013   6.208   4.698  15.210  0.1086  0.4318 -0.0989
 2533TIP3    H129014   6.267   4.769  15.185  1.1059  0.2186  1.5583
 2533TIP3    H229015   6.206   4.702  15.306 -2.3207  0.2271 -0.1123
 2534TIP3   OH229016   0.695   4.204   0.645 -0.5197 -0.5847 -0.3039
 2534TIP3    H129017   0.639   4.183   0.720  1.4700 -1.5080  0.9393
 2534TIP3    H229018   0.643   4.178   0.569 -3.1590  1.6876  0.6173
 2535TIP3   OH229019   3.183   3.427  12.695 -0.3633  0.1314  0.4567
 2535TIP3    H129020   3.197   3.517  12.723 -0.6532  0.4287 -0.3375
 2535TIP3    H229021   3.167   3.379  12.776  2.9987  0.1776  1.2333
 2536TIP3   OH229022   1.990   2.958   1.484 -0.1561 -0.2110  0.1716
 2536TIP3    H129023   1.949   2.888   1.535 -1.8293 -0.5337 -1.5639
 2536TIP3    H229024   1.972   3.038   1.534 -0.5389 -0.6937  0.8060
 2537TIP3   OH229025   1.319   1.277   0.812  0.3670 -0.5797  0.2656
 2537TIP3    H129026   1.342   1.203   0.868 -0.9345 -0.9607  0.3099
 2537TIP3    H229027   1.229   1.297   0.835  0.3817  0.3688 -0.4776
 2538TIP3   OH229028   1.266   5.317   5.543 -0.4274 -0.1709  0.5239
 2538TIP3    H129029   1.321   5.306   5.620  1.0518  1.4574 -0.2790
 2538TIP3    H229030   1.325   5.306   5.468 -1.6226 -0.5990 -0.3797
 2539TIP3   OH229031   1.523   0.198  15.215  0.5016  0.1899 -0.5481
 2539TIP3    H129032   1.592   0.263  15.200  2.6910 -1.8006  0.4724
 2539TIP3    H229033   1.485   0.183  15.128  0.1062  2.6359 -0.8278
 2540TIP3   OH229034   0.315   1.983  14.529  0.2426  0.5852 -0.0651
 2540TIP3    H129035   0.289   2.053  14.469 -0.8597  1.1756  1.0819
 2540TIP3    H229036   0.233   1.947  14.561  0.8108 -1.0391 -0.3911
 2541TIP3   OH229037   2.386   6.482   1.687 -0.0572 -0.1146 -0.7027
 2541TIP3    H129038   2.299   6.467   1.724 -0.2509  0.1364 -1.0568
 2541TIP3    H229039   2.434   6.528   1.756 -0.2418 -0.1583 -0.5464
 2542TIP3   OH229040   1.271   1.984  13.731 -0.0423  0.4292 -0.4770
 2542TIP3    H129041   1.360   1.972  13.765 -1.0999 -0.7921  1.9562
 2542TIP3    H229042   1.238   2.062  13.776  0.0752  1.3721 -2.0004
 2543TIP3   OH229043   3.743   3.677  15.924 -0.1555 -0.5821 -0.4251
 2543TIP3    H129044   3.750   3.672  15.828  1.0749  1.4255 -0.4610
 2543TIP3    H229045   3.807   3.743  15.949  0.1223 -1.6922  1.8788
 2544TIP3   OH229046   6.163   3.186  11.315  0.2879 -0.3221 -0.3729
 2544TIP3    H129047   6.128   3.143  11.236  0.7990 -2.0009  0.2984
 2544TIP3    H229048   6.086   3.225  11.356 -0.3048 -1.2223 -0.6103
 2545TIP3   OH229049   5.198   3.237   5.070  0.2043  0.0011 -0.4188
 2545TIP3    H129050   5.131   3.286   5.023  0.6618  0.8742 -0.1737
 2545TIP3    H229051   5.176   3.146   5.055 -1.6518  0.2638  0.4947
 2546TIP3   OH229052   3.382   3.196   3.686 -0.4392 -0.2201 -0.4405
 2546TIP3    H129053   3.474   3.218   3.675 -0.2502 -1.7663 -2.2836
 2546TIP3    H229054   3.379   3.100   3.682 -2.1367 -0.1929 -0.5546
 2547TIP3   OH229055   4.324   4.155   3.900  0.0299  0.1051  0.0263
 2547TIP3    H129056   4.252   4.095   3.921 -0.2904 -0.5529 -2.7562
 2547TIP3    H229057   4.305   4.184   3.810  3.2329 -0.0925 -0.7662
 2548TIP3   OH229058   6.748   0.556   5.096 -0.4798  0.4476  0.6143
 2548TIP3    H129059   6.830   0.604   5.082  0.3580 -0.7795  1.2023
 2548TIP3    H229060   6.767   0.467   5.065 -1.5901  0.1508  0.7593
 2549TIP3   OH229061   1.645   3.823  15.577  0.2192  0.0144  0.8865
 2549TIP3    H129062   1.703   3.886  15.620  2.4107 -1.7427  0.5700
 2549TIP3    H229063   1.630   3.755  15.642 -1.1635  0.2248  0.8106
 2550TIP3   OH229064   3.718   2.343  12.863 -0.2892  0.0626  0.1487
 2550TIP3    H129065   3.754   2.415  12.812 -0.9612  1.5435  1.6940
 2550TIP3    H229066   3.705   2.273  12.800  0.7295  1.1649 -1.3231
 2551TIP3   OH229067   0.646   1.009   5.204 -0.6518  0.1761 -0.1154
 2551TIP3    H129068   0.668   1.045   5.118 -0.2154  3.0134  1.1295
 2551TIP3    H229069   0.728   1.012   5.253 -1.2917  0.2163  0.9612
 2552TIP3   OH229070   3.897   0.858  11.581 -0.1671 -0.0918 -0.0395
 2552TIP3    H129071   3.937   0.847  11.668 -1.0167  1.0772  0.5052
 2552TIP3    H229072   3.939   0.936  11.545 -1.3450  0.6592  0.1938
 2553TIP3   OH229073   4.833   6.257   2.875  0.0165 -0.1421  0.4893
 2553TIP3    H129074   4.910   6.262   2.819  0.7797  2.7567  1.6914
 2553TIP3    H229075   4.769   6.317   2.835 -0.5846 -0.4410  0.9799
 2554TIP3   OH229076   2.106   2.586   1.491 -0.3446  0.4264  0.0501
 2554TIP3    H129077   2.062   2.667   1.516 -0.8552  0.2027 -0.1075
 2554TIP3    H229078   2.191   2.614   1.456 -0.1661  0.8281  0.8034
 2555TIP3   OH229079   0.258   2.028  15.158  0.1671  0.4847 -0.2566
 2555TIP3    H129080   0.230   2.105  15.110 -2.4788  0.0585  0.5603
 2555TIP3    H229081   0.202   1.957  15.126 -0.0831 -0.2838  1.7816
 2556TIP3   OH229082   2.053   1.198   4.019 -0.1785 -0.1454 -0.1835
 2556TIP3    H129083   2.002   1.118   4.028  1.1828 -1.0111 -0.0234
 2556TIP3    H229084   2.143   1.168   4.005  0.8685  1.3533  2.8673
 2557TIP3   OH229085   6.257   1.697  13.944  0.5620 -0.0421 -0.3186
 2557TIP3    H129086   6.218   1.758  13.881 -0.1507  0.3880  0.5351
 2557TIP3    H229087   6.351   1.698  13.924  0.4519  0.7571 -0.8031
 2558TIP3   OH229088   4.990   0.445  13.487  0.0098 -0.0093  0.6726
 2558TIP3    H129089   4.931   0.520  13.500 -0.1451  0.1757 -1.0179
 2558TIP3    H229090   5.065   0.464  13.543 -0.5222  0.8732  1.0989
 2559TIP3   OH229091   3.001   0.676  12.554 -0.3297  0.2001 -0.4801
 2559TIP3    H129092   3.028   0.590  12.587  0.5094  0.1723 -1.2244
 2559TIP3    H229093   2.945   0.656  12.478 -0.8877  0.2958 -0.0968
 2560TIP3   OH229094   0.893   6.317   2.663 -0.0138 -0.2267  0.1326
 2560TIP3    H129095   0.840   6.382   2.616 -0.6233 -2.0648 -1.8284
 2560TIP3    H229096   0.840   6.292   2.738 -0.5174  0.2988 -0.0461
 2561TIP3   OH229097   4.860   4.845  12.869 -0.7167  0.1832  0.3086
 2561TIP3    H129098   4.885   4.824  12.959 -1.2068 -3.6054 -0.3553
 2561TIP3    H229099   4.914   4.786  12.815 -2.4388  0.3937 -1.7122
 2562TIP3   OH229100   4.195   4.215   2.082 -0.2511  0.3086 -0.2026
 2562TIP3    H129101   4.173   4.306   2.061  1.4106  0.6865 -0.3238
 2562TIP3    H229102   4.195   4.171   1.997  1.3979  0.7400 -0.4418
 2563TIP3   OH229103   6.200   4.151   3.812  0.2922 -0.6055  0.0151
 2563TIP3    H129104   6.198   4.116   3.901  3.4918  3.4803  1.8855
 2563TIP3    H229105   6.123   4.207   3.806 -1.2295 -2.7232 -0.6877
 2564TIP3   OH229106   5.264   0.628   0.208 -0.1269 -0.0436  0.0954
 2564TIP3    H129107   5.294   0.714   0.236  1.5688 -0.4595 -0.3716
 2564TIP3    H229108   5.299   0.568   0.274  0.2172 -0.5596 -0.5468
 2565TIP3   OH229109   5.871   1.154   3.798 -0.4362  0.1135  0.1382
 2565TIP3    H129110   5.843   1.078   3.848  0.3702  0.5026  1.2060
 2565TIP3    H229111   5.916   1.210   3.862 -1.8840  1.9532 -0.3970
 2566TIP3   OH229112   6.530   0.589  13.822 -0.0993  0.1902  0.1469
 2566TIP3    H129113   6.441   0.624  13.814 -0.1774  0.2021  1.0633
 2566TIP3    H229114   6.585   0.655  13.781 -0.4876  0.2921 -0.2202
 2567TIP3   OH229115   3.085   4.000   2.515  0.3402 -0.3753  0.3162
 2567TIP3    H129116   3.148   4.030   2.581 -0.7303  1.2780  0.6193
 2567TIP3    H229117   3.076   3.906   2.531  0.7497 -0.1498  1.9634
 2568TIP3   OH229118   3.944   3.836  13.874  0.4418 -0.8709 -0.2745
 2568TIP3    H129119   3.877   3.768  13.861 -0.8655  0.3689 -0.1612
 2568TIP3    H229120   3.985   3.845  13.788 -0.3274 -0.8410 -0.6502
 2569TIP3   OH229121   5.309   2.687   0.129 -0.2447  0.0761  0.0597
 2569TIP3    H129122   5.216   2.702   0.146 -0.3530 -1.7208  1.2517
 2569TIP3    H229123   5.354   2.727   0.203 -0.0330  1.2569 -0.6975
 2570TIP3   OH229124   2.742   5.268   5.218 -0.3093 -0.6953 -0.4347
 2570TIP3    H129125   2.828   5.240   5.187  0.0279  1.8444 -1.9000
 2570TIP3    H229126   2.760   5.318   5.297 -0.5414 -0.9746 -0.2004
 2571TIP3   OH229127   0.633   0.066   5.986 -0.0142 -0.0999  0.0291
 2571TIP3    H129128   0.671   0.011   6.055 -0.9299 -0.8018 -0.0077
 2571TIP3    H229129   0.706   0.120   5.956  0.6460 -0.5128  0.8332
 2572TIP3   OH229130   3.082   1.734  13.449  0.7807 -0.2823  0.3039
 2572TIP3    H129131   3.000   1.725  13.499  1.0396  1.1167  0.9999
 2572TIP3    H229132   3.054   1.737  13.358  0.1597 -1.1296  0.4563
 2573TIP3   OH229133   6.421   3.869   3.541  0.0902 -0.0213 -0.5447
 2573TIP3    H129134   6.347   3.928   3.526  0.7341  1.2774  1.1422
 2573TIP3    H229135   6.440   3.878   3.635  2.6184 -0.0643 -1.0098
 2574TIP3   OH229136   4.887   3.082  16.795 -0.0699  0.1697  0.3856
 2574TIP3    H129137   4.941   3.154  16.826  0.5144 -0.4475  0.8164
 2574TIP3    H229138   4.927   3.057  16.711  1.2773 -1.2946  1.4286
 2575TIP3   OH229139   4.067   3.381   5.044  0.2539 -0.2937 -0.5375
 2575TIP3    H129140   4.110   3.296   5.042  0.1608 -0.3890  0.8792
 2575TIP3    H229141   4.059   3.402   5.138 -1.5009  0.3630 -0.8125
 2576TIP3   OH229142   0.365   5.003  16.528  0.4447 -0.2590 -0.0686
 2576TIP3    H129143   0.432   4.988  16.594  0.5859  0.1799 -0.1172
 2576TIP3    H229144   0.298   4.936  16.546  0.7286 -0.4738  0.1872
 2577TIP3   OH229145   1.560   4.892  14.065 -0.2859 -0.8632 -0.8485
 2577TIP3    H129146   1.484   4.836  14.079 -0.6942 -0.6720 -2.1701
 2577TIP3    H229147   1.533   4.978  14.099 -0.8690 -0.6663 -1.7690
 2578TIP3   OH229148   1.529   3.123  13.396  0.3431  0.0244 -0.3271
 2578TIP3    H129149   1.506   3.212  13.369  1.3074  0.2143 -0.5199
 2578TIP3    H229150   1.483   3.067  13.333  1.8064  0.4511 -1.8150
 2579TIP3   OH229151   5.989   1.212   3.375  0.2831  0.0671 -0.4582
 2579TIP3    H129152   6.066   1.267   3.357  1.7164 -1.6273  0.3775
 2579TIP3    H229153   5.970   1.170   3.292 -1.1623  2.1778 -1.2543
 2580TIP3   OH229154   1.781   1.429  13.122 -0.7622 -0.3933  0.8472
 2580TIP3    H129155   1.831   1.385  13.191  1.4679  0.4040 -0.2221
 2580TIP3    H229156   1.758   1.358  13.062  0.4377 -0.5493  0.5526
 2581TIP3   OH229157   4.959   5.215  14.424 -0.0910 -0.1106  0.1236
 2581TIP3    H129158   4.985   5.306  14.434  0.2823 -0.1007 -0.8604
 2581TIP3    H229159   4.934   5.207  14.332  2.6848 -1.7016 -0.5608
 2582TIP3   OH229160   3.897   0.007  14.112  0.2830  0.7496  0.3468
 2582TIP3    H129161   3.824   0.014  14.174 -0.0448 -0.2593  0.0684
 2582TIP3    H229162   3.864   0.046  14.031 -1.2600 -3.0512 -0.9416
 2583TIP3   OH229163   0.532   2.155   0.269  0.3550  0.2247  0.1076
 2583TIP3    H129164   0.571   2.081   0.222  1.5749 -0.7048  2.5261
 2583TIP3    H229165   0.506   2.119   0.354  0.9764  2.5507  1.3384
 2584TIP3   OH229166   0.208   5.057   2.739 -0.5718 -0.6198 -0.4580
 2584TIP3    H129167   0.254   5.032   2.819 -1.0523  0.1351  0.0661
 2584TIP3    H229168   0.264   5.025   2.668  0.2848 -0.5501  0.1725
 2585TIP3   OH229169   3.294   5.494  14.430 -0.3884  0.1764  0.1123
 2585TIP3    H129170   3.340   5.456  14.505  0.7495  1.0339 -0.1326
 2585TIP3    H229171   3.202   5.489  14.453 -0.2408 -2.0725  0.3900
 2586TIP3   OH229172   3.671   5.840  11.306  0.1400  0.0547 -0.2629
 2586TIP3    H129173   3.629   5.912  11.352  0.6800  0.2051  0.0046
 2586TIP3    H229174   3.700   5.878  11.223  1.9784  0.6220  0.5977
 2587TIP3   OH229175   3.106   0.103   4.544 -0.3067 -0.1456 -0.1988
 2587TIP3    H129176   3.018   0.133   4.522 -0.2988  1.2424  1.5426
 2587TIP3    H229177   3.133   0.159   4.617  1.6092 -1.2484 -0.0245
 2588TIP3   OH229178   4.720   5.455   1.581  0.0394  0.0624 -0.0480
 2588TIP3    H129179   4.778   5.531   1.575  0.3592 -0.2545 -0.9630
 2588TIP3    H229180   4.633   5.490   1.566  0.3662 -0.0200 -2.2397
 2589TIP3   OH229181   3.663   1.926   5.534 -0.0665 -0.3551  0.5192
 2589TIP3    H129182   3.624   1.889   5.613  1.3694 -1.5655  0.6968
 2589TIP3    H229183   3.591   1.934   5.472 -1.0696 -0.0714  1.7107
 2590TIP3   OH229184   1.594   3.308   5.715 -0.2672  0.2482  0.4966
 2590TIP3    H129185   1.541   3.244   5.669  1.3277 -1.1195  0.5128
 2590TIP3    H229186   1.548   3.322   5.798 -1.3958  0.2494 -0.1200
 2591TIP3   OH229187   4.456   6.657  14.071 -0.3316  0.6055 -0.0735
 2591TIP3    H129188   4.428   6.718  14.003  1.9546  0.8166 -0.8673
 2591TIP3    H229189   4.426   6.697  14.152 -1.5277  1.2445 -0.8104
 2592TIP3   OH229190   1.929   1.697  14.489  0.1368  0.9251  0.3502
 2592TIP3    H129191   1.928   1.704  14.393  2.0435  0.1801  0.2483
 2592TIP3    H229192   2.017   1.666  14.509 -1.1300 -1.7532  2.1332
 2593TIP3   OH229193   4.865   0.771  14.768 -1.1763  0.0271 -0.7600
 2593TIP3    H129194   4.791   0.717  14.739 -0.7094 -1.2148  0.3317
 2593TIP3    H229195   4.942   0.719  14.747 -0.7797 -0.4286  1.6456
 2594TIP3   OH229196   1.016   4.401   5.633 -0.3614 -0.2763  0.3923
 2594TIP3    H129197   1.086   4.336   5.644 -0.9868 -0.9631  0.3798
 2594TIP3    H229198   0.978   4.380   5.547 -0.4408  0.2354  0.3020
 2595TIP3   OH229199   4.332   5.017   0.879 -0.5905  0.3835 -0.2931
 2595TIP3    H129200   4.402   5.082   0.866 -1.2118  1.3673  1.1566
 2595TIP3    H229201   4.252   5.063   0.853 -0.9895  0.0692  0.3809
 2596TIP3   OH229202   3.012   4.634  12.320  0.5113  0.5594 -0.6922
 2596TIP3    H129203   3.054   4.701  12.266 -0.4106  1.4789 -0.2872
 2596TIP3    H229204   3.040   4.551  12.282 -0.0441  1.1873 -2.4985
 2597TIP3   OH229205   3.679   5.138   4.643 -0.4740 -0.9063  0.2023
 2597TIP3    H129206   3.752   5.126   4.703 -0.5687 -0.5831  0.3860
 2597TIP3    H229207   3.643   5.050   4.630 -0.4335 -0.9776  0.5909
 2598TIP3   OH229208   5.361   2.419   6.134  0.2501 -0.1643 -0.0956
 2598TIP3    H129209   5.438   2.454   6.179 -0.2266 -0.1871  0.7566
 2598TIP3    H229210   5.382   2.326   6.120  0.6276 -0.0304 -0.4218
 2599TIP3   OH229211   1.683   5.056   2.421  0.2837 -0.2944 -0.4277
 2599TIP3    H129212   1.705   5.033   2.331  0.7695  0.9566 -0.6410
 2599TIP3    H229213   1.717   5.145   2.432  1.2321 -0.8533  1.3426
 2600TIP3   OH229214   6.266   1.041  14.619 -0.6236 -0.9098  0.0183
 2600TIP3    H129215   6.266   1.122  14.568  0.4321 -1.2269 -0.5016
 2600TIP3    H229216   6.353   1.004  14.605 -0.4240 -1.1672  1.8094
 2601TIP3   OH229217   4.137   5.911   1.717  0.1929 -0.4461  0.1183
 2601TIP3    H129218   4.199   5.881   1.651  0.0952 -0.5126  0.0561
 2601TIP3    H229219   4.054   5.871   1.692  0.2023 -0.6544  0.4092
 2602TIP3   OH229220   3.338   6.169   0.627 -0.0381 -0.4196 -0.7520
 2602TIP3    H129221   3.392   6.139   0.701  0.8087  0.3892 -1.0285
 2602TIP3    H229222   3.315   6.089   0.580  0.7864 -0.7925 -0.5299
 2603TIP3   OH229223   0.791   5.476   2.357  0.1063  0.2436 -0.5839
 2603TIP3    H129224   0.824   5.555   2.400  1.4375 -0.2465 -0.6881
 2603TIP3    H229225   0.798   5.495   2.264 -0.5583  0.3919 -0.6100
 2604TIP3   OH229226   5.326   3.667   2.628 -0.0446  0.3991  0.0845
 2604TIP3    H129227   5.411   3.709   2.638  0.5369 -0.8772  0.7027
 2604TIP3    H229228   5.289   3.667   2.717  0.5937 -1.6565  0.3737
 2605TIP3   OH229229   0.068   1.436  17.188  0.6776  0.0861  0.1070
 2605TIP3    H129230   0.015   1.464  17.114 -0.5685 -0.7310  0.6693
 2605TIP3    H229231   0.033   1.350  17.212  2.6433 -0.7399  0.1253
 2606TIP3   OH229232   6.606   4.494   2.150 -0.0950  0.4708 -0.8025
 2606TIP3    H129233   6.604   4.499   2.054  0.3853 -0.1684 -0.8515
 2606TIP3    H229234   6.543   4.560   2.179 -0.3289  0.5870 -1.5609
 2607TIP3   OH229235   2.422   1.320  14.893 -0.7655  0.3096 -0.4050
 2607TIP3    H129236   2.494   1.312  14.831  0.1295 -1.5936  0.8260
 2607TIP3    H229237   2.412   1.414  14.907  2.5735  0.5800  0.6064
 2608TIP3   OH229238   4.619   3.970   3.431  0.0409 -0.3182  0.0218
 2608TIP3    H129239   4.635   3.961   3.337 -0.2558 -1.0969  0.0423
 2608TIP3    H229240   4.638   3.884   3.467  2.5822  0.6154  1.0299
 2609TIP3   OH229241   3.474   6.378  11.951  0.0408 -0.7559 -0.1295
 2609TIP3    H129242   3.514   6.291  11.942  2.1585  0.3506 -1.5067
 2609TIP3    H229243   3.428   6.393  11.868 -0.0333 -0.3937 -0.0240
 2610TIP3   OH229244   1.454   0.807   0.173 -0.2706 -0.6505 -0.5986
 2610TIP3    H129245   1.540   0.849   0.171 -0.7800  0.3335 -2.3516
 2610TIP3    H229246   1.460   0.743   0.244  0.5717  2.2737  2.1057
 2611TIP3   OH229247   1.786   2.243   2.726 -0.0434  0.3055  0.4509
 2611TIP3    H129248   1.723   2.220   2.794 -1.8679 -1.9678 -1.8648
 2611TIP3    H229249   1.869   2.208   2.756 -0.7388 -0.3237  1.6610
 2612TIP3   OH229250   0.100   5.330   1.337 -0.1342  0.4224  0.1896
 2612TIP3    H129251   0.039   5.266   1.373  0.9070 -0.6775  0.0343
 2612TIP3    H229252   0.120   5.298   1.249  0.0183  1.2231 -0.0737
 2613TIP3   OH229253   2.026   2.322  14.896 -0.6777 -0.2252 -0.0518
 2613TIP3    H129254   1.962   2.380  14.936 -1.2795 -1.6202  1.0699
 2613TIP3    H229255   2.093   2.380  14.860 -1.8204  1.1842  0.0713
 2614TIP3   OH229256   0.950   3.584   2.243  0.2004 -0.3765  0.2843
 2614TIP3    H129257   1.006   3.559   2.168  0.1008 -1.0032  0.4147
 2614TIP3    H229258   1.011   3.593   2.316  0.1587 -0.8830  0.3852
 2615TIP3   OH229259   0.988   1.500   3.752  0.0829  0.3095  0.6454
 2615TIP3    H129260   0.905   1.527   3.792 -0.3359  1.5857 -1.0133
 2615TIP3    H229261   1.009   1.571   3.692  1.3504 -0.9693 -0.4369
 2616TIP3   OH229262   5.013   0.991  13.616 -0.2827  0.5748 -0.2846
 2616TIP3    H129263   5.028   1.040  13.696 -0.3173  0.3442 -0.1373
 2616TIP3    H229264   4.945   1.040  13.570  1.2657  1.9033 -1.1979
 2617TIP3   OH229265   4.186   0.594   6.397  0.0660  0.0125  0.2056
 2617TIP3    H129266   4.239   0.526   6.439  1.3350  1.1697  0.5198
 2617TIP3    H229267   4.107   0.598   6.450 -0.4451 -1.8706 -0.3787
 2618TIP3   OH229268   5.121   0.190   1.667 -0.3210 -0.3573 -0.6675
 2618TIP3    H129269   5.037   0.145   1.665 -0.2464 -0.4740 -1.2798
 2618TIP3    H229270   5.179   0.133   1.616 -0.0640  0.1136 -0.9003
 2619TIP3   OH229271   0.709   6.120  14.564 -0.2224  0.1241 -0.1366
 2619TIP3    H129272   0.664   6.037  14.582 -3.2896  1.3591 -1.8277
 2619TIP3    H229273   0.743   6.110  14.475 -1.6038  1.0733 -0.7885
 2620TIP3   OH229274   0.618   3.583   6.388  0.1072  0.1734 -0.1037
 2620TIP3    H129275   0.582   3.497   6.366 -1.0486  0.0898  1.9875
 2620TIP3    H229276   0.711   3.578   6.363 -0.4963 -0.8257 -2.2419
 2621TIP3   OH229277   3.387   3.240  12.028  0.0977  0.2860  0.2177
 2621TIP3    H129278   3.469   3.193  12.041 -0.3663 -0.3581  0.8783
 2621TIP3    H229279   3.390   3.271  11.938  0.7498 -0.3487  0.0231
 2622TIP3   OH229280   1.050   2.247  12.453 -0.5455 -0.4082  0.0323
 2622TIP3    H129281   1.145   2.253  12.462 -0.3309  1.8040 -3.0047
 2622TIP3    H229282   1.036   2.174  12.392 -0.6614  0.6984 -1.2784
 2623TIP3   OH229283   0.737   3.816  15.056 -0.6946 -0.2988 -0.8933
 2623TIP3    H129284   0.815   3.803  15.003 -0.6892  2.6597 -1.6856
 2623TIP3    H229285   0.752   3.763  15.134  1.8952 -0.1574 -1.2652
 2624TIP3   OH229286   5.255   4.078   2.346  0.3362 -0.2977 -0.6740
 2624TIP3    H129287   5.225   4.119   2.264  0.2757  0.2843 -0.3631
 2624TIP3    H229288   5.349   4.096   2.348  0.1615  0.6128 -0.1004
 2625TIP3   OH229289   3.447   2.043   1.065  0.2958  0.0490  0.3302
 2625TIP3    H129290   3.444   2.103   0.991 -0.5984  0.6298  0.8233
 2625TIP3    H229291   3.526   1.991   1.051  0.1198  0.1292 -1.0432
 2626TIP3   OH229292   6.294   5.210   2.877  0.2428 -0.0514 -0.4819
 2626TIP3    H129293   6.292   5.301   2.849  1.3651 -0.4713 -2.0175
 2626TIP3    H229294   6.374   5.174   2.837 -0.1142 -1.6653  0.1988
 2627TIP3   OH229295   3.620   2.618   5.302 -0.3138 -0.8985 -0.2401
 2627TIP3    H129296   3.585   2.565   5.374 -2.3395 -0.8831 -1.1839
 2627TIP3    H229297   3.609   2.564   5.224  0.6994 -0.4050 -0.7353
 2628TIP3   OH229298   3.519   3.168   5.277  0.4733  0.1759  0.5100
 2628TIP3    H129299   3.492   3.160   5.368  2.2272 -0.5977  0.9801
 2628TIP3    H229300   3.611   3.142   5.277 -0.1509 -2.3008 -1.8572
 2629TIP3   OH229301   2.719   0.890   0.625  0.0210  0.0792 -0.4890
 2629TIP3    H129302   2.765   0.841   0.557 -0.3014  2.0607 -2.1689
 2629TIP3    H229303   2.788   0.926   0.680  0.4335  1.3132 -1.7869
 2630TIP3   OH229304   3.588   3.118   2.812  0.2519 -0.0444  0.8950
 2630TIP3    H129305   3.591   3.061   2.735 -4.6343 -1.6443  1.6856
 2630TIP3    H229306   3.670   3.166   2.810  1.0390 -1.3135 -4.3257
 2631TIP3   OH229307   6.696   0.928  11.496  0.7976  0.0397 -0.3277
 2631TIP3    H129308   6.780   0.957  11.462  1.7267 -0.9005  1.1333
 2631TIP3    H229309   6.711   0.838  11.524 -0.7609 -0.2177 -0.2733
 2632TIP3   OH229310   2.108   3.370  12.340  0.8092  0.4694 -0.5149
 2632TIP3    H129311   2.133   3.390  12.430 -0.6292 -0.0817  0.0139
 2632TIP3    H229312   2.138   3.281  12.326  0.0228  0.1517 -0.1990
 2633TIP3   OH229313   1.340   3.803   4.059 -0.5777 -0.2200 -0.2029
 2633TIP3    H129314   1.415   3.863   4.055 -0.3854 -0.3514  1.0543
 2633TIP3    H229315   1.354   3.754   4.140 -1.8222 -0.5210 -0.1631
 2634TIP3   OH229316   1.282   0.345   2.615 -0.3222  0.1262 -0.2347
 2634TIP3    H129317   1.370   0.360   2.580 -0.5365  0.9511 -0.4457
 2634TIP3    H229318   1.295   0.286   2.690  0.4714  0.6585  0.0545
 2635TIP3   OH229319   4.331   6.145  16.571 -0.2648  0.0242  0.2648
 2635TIP3    H129320   4.301   6.178  16.656  1.4515  0.7895  0.5767
 2635TIP3    H229321   4.288   6.060  16.562 -0.2864 -0.1562  1.9935
 2636TIP3   OH229322   2.944   5.001  11.010 -0.1661  0.0018 -0.2187
 2636TIP3    H129323   2.922   4.908  11.000 -2.9067  0.5177  0.5045
 2636TIP3    H229324   2.947   5.034  10.920 -1.1893 -0.3684 -0.3977
 2637TIP3   OH229325   6.117   1.902   1.743  0.0436 -0.2324 -0.5930
 2637TIP3    H129326   6.102   1.953   1.663 -0.5186 -0.5895 -0.7188
 2637TIP3    H229327   6.131   1.813   1.712 -0.7636 -0.4814 -0.2649
 2638TIP3   OH229328   2.955   6.761  10.714 -0.0046  0.9515  0.2405
 2638TIP3    H129329   2.878   6.800  10.756 -0.2890  2.3178 -1.5309
 2638TIP3    H229330   2.986   6.828  10.653  1.7073 -0.1706 -0.1436
 2639TIP3   OH229331   3.409   0.713   2.938  0.1832 -0.5780 -0.4352
 2639TIP3    H129332   3.493   0.733   2.979 -0.0284 -1.1405  0.2751
 2639TIP3    H229333   3.347   0.706   3.011 -0.3914 -0.6174 -0.9167
 2640TIP3   OH229334   0.408   3.272  11.847 -0.3747  0.5332  0.3342
 2640TIP3    H129335   0.405   3.254  11.753  1.0942 -0.2048  0.4203
 2640TIP3    H229336   0.469   3.208  11.882  0.8511  2.2747  1.4597
 2641TIP3   OH229337   4.115   2.713   5.904 -0.1875 -0.3060 -0.4078
 2641TIP3    H129338   4.039   2.677   5.858 -0.2181  1.7219 -2.0461
 2641TIP3    H229339   4.108   2.678   5.993 -2.6902 -0.6807 -0.6989
 2642TIP3   OH229340   5.810   2.682   3.958 -0.3260 -0.4004  0.3022
 2642TIP3    H129341   5.732   2.689   4.013 -1.6001  0.2872 -1.5380
 2642TIP3    H229342   5.795   2.604   3.905  0.1190 -0.1198 -0.2478
 2643TIP3   OH229343   4.425   4.578  16.015  1.0861 -0.5836  0.2814
 2643TIP3    H129344   4.335   4.558  16.040  0.7219  0.3424 -0.2633
 2643TIP3    H229345   4.477   4.553  16.091  0.1987  0.3061  1.1965
 2644TIP3   OH229346   2.175   3.009  14.217 -0.0731 -0.2409 -0.2692
 2644TIP3    H129347   2.120   2.968  14.284 -3.2794  2.1542 -1.3533
 2644TIP3    H229348   2.211   3.087  14.260  1.2828 -0.9709 -0.0528
 2645TIP3   OH229349   1.398   0.329  12.304  0.2383  0.0302 -0.0270
 2645TIP3    H129350   1.372   0.411  12.261 -2.3951 -0.3149  0.8244
 2645TIP3    H229351   1.428   0.273  12.232  1.3015  1.4427 -0.7058
 2646TIP3   OH229352   5.964   5.053   0.795 -0.4198 -0.4475  0.1809
 2646TIP3    H129353   5.960   5.148   0.789 -0.5339 -0.5371 -1.4701
 2646TIP3    H229354   5.898   5.030   0.860 -1.7888  0.4730 -0.8714
 2647TIP3   OH229355   1.944   3.281  13.815 -0.1080  0.4807 -0.3984
 2647TIP3    H129356   1.864   3.246  13.776 -0.6967  1.9465 -0.5385
 2647TIP3    H229357   2.010   3.269  13.746 -0.1565 -0.8720 -0.2239
 2648TIP3   OH229358   5.489   1.271  13.457 -0.8460 -0.2757 -0.3032
 2648TIP3    H129359   5.411   1.322  13.434 -1.3211  0.5403  2.8798
 2648TIP3    H229360   5.475   1.247  13.549  2.7223  0.0490  0.3870
 2649TIP3   OH229361   5.605   3.048  12.239 -0.3486  0.1755  0.4417
 2649TIP3    H129362   5.594   3.027  12.332 -0.6945 -0.7285  0.2038
 2649TIP3    H229363   5.698   3.071  12.230 -0.1939 -0.2673  0.9026
 2650TIP3   OH229364   4.870   5.238   1.655  0.1495  0.1673 -0.6206
 2650TIP3    H129365   4.825   5.322   1.645 -0.4260  0.0867  1.1711
 2650TIP3    H229366   4.959   5.261   1.681 -0.0740  0.2133  0.1003
 2651TIP3   OH229367   4.347   4.721   1.400  0.6145  0.7625 -0.1804
 2651TIP3    H129368   4.252   4.720   1.391  0.8259  0.1723 -2.7104
 2651TIP3    H229369   4.378   4.775   1.328  2.3188 -0.9752 -0.8052
 2652TIP3   OH229370   4.466   1.683   6.299 -0.3926  0.0776 -0.0885
 2652TIP3    H129371   4.521   1.673   6.377 -0.7225 -1.1175  0.0070
 2652TIP3    H229372   4.390   1.732   6.330  0.7622  2.0372 -0.2995
 2653TIP3   OH229373   4.487   0.224  14.101  0.0017  0.0662 -0.2329
 2653TIP3    H129374   4.454   0.173  14.175 -1.2495  2.2563  0.7636
 2653TIP3    H229375   4.408   0.257  14.058  0.7551 -0.2080 -1.8516
 2654TIP3   OH229376   5.929   3.721   0.981  0.0317 -0.4441 -0.2031
 2654TIP3    H129377   5.992   3.714   0.910  0.7425  1.1153  0.2508
 2654TIP3    H229378   5.879   3.639   0.977 -0.6781  0.0678 -3.1627
 2655TIP3   OH229379   3.039   3.335  14.077 -0.1723 -0.4398  0.2666
 2655TIP3    H129380   3.066   3.263  14.134  1.3365 -1.0380 -1.1492
 2655TIP3    H229381   3.002   3.292  14.000  0.7678  0.2836 -0.5978
 2656TIP3   OH229382   3.347   4.574  15.669 -0.5641 -0.3800 -0.4407
 2656TIP3    H129383   3.391   4.571  15.755 -1.7856 -1.1366  0.1691
 2656TIP3    H229384   3.345   4.667  15.647 -0.0486 -0.1940  0.2582
 2657TIP3   OH229385   5.780   0.138  14.165 -0.0600  0.4359 -0.1725
 2657TIP3    H129386   5.856   0.089  14.134 -0.1350 -0.0461  0.4001
 2657TIP3    H229387   5.791   0.226  14.127  2.3323  1.2783  2.2301
 2658TIP3   OH229388   5.314   0.292   4.677  0.1793  0.4602  0.6290
 2658TIP3    H129389   5.332   0.198   4.685  0.2935  0.5587  1.5841
 2658TIP3    H229390   5.401   0.332   4.673  0.1361  0.5452  0.5625
 2659TIP3   OH229391   1.803   3.987  12.605  0.5172 -0.8938 -0.3872
 2659TIP3    H129392   1.889   3.973  12.565  1.1488 -3.1479  1.6913
 2659TIP3    H229393   1.762   3.900  12.605 -0.5884 -0.3891  1.2697
 2660TIP3   OH229394   6.510   3.242   1.132  0.1462 -0.0906 -0.9916
 2660TIP3    H129395   6.484   3.160   1.174 -1.6912  0.6168 -0.6931
 2660TIP3    H229396   6.457   3.247   1.053  0.4505  0.6638 -1.1558
 2661TIP3   OH229397   4.654   0.086  14.799 -0.1405 -0.1694  0.1619
 2661TIP3    H129398   4.587   0.055  14.859 -0.6995  1.0985  0.2089
 2661TIP3    H229399   4.621   0.062  14.712 -1.2013  1.4233  0.1048
 2662TIP3   OH229400   3.103   6.782  12.688  0.3588 -0.0694 -0.6900
 2662TIP3    H129401   3.105   6.687  12.696 -0.3044 -0.2048 -1.8543
 2662TIP3    H229402   3.172   6.814  12.745  0.8888 -1.2826 -0.6564
 2663TIP3   OH229403   5.031   4.329   1.323 -1.1421 -0.0008 -0.3364
 2663TIP3    H129404   5.059   4.248   1.366  1.2273  1.2549  0.5900
 2663TIP3    H229405   5.014   4.304   1.232 -0.4811 -1.5540 -0.0445
 2664TIP3   OH229406   6.780   1.765  16.922 -0.0682  0.1081 -0.4132
 2664TIP3    H129407   6.783   1.674  16.951  0.6226  0.9333  2.2936
 2664TIP3    H229408   6.700   1.772  16.871 -0.9507 -1.6442  0.7053
 2665TIP3   OH229409   0.736   5.207  15.843 -0.1366  0.0707 -0.1020
 2665TIP3    H129410   0.821   5.203  15.799  0.6065  0.7180  1.2391
 2665TIP3    H229411   0.694   5.285  15.807  0.0245  0.0092 -0.4266
 2666TIP3   OH229412   1.946   4.202  14.992 -0.0786 -0.2770 -0.2607
 2666TIP3    H129413   1.975   4.290  15.017 -1.3094 -0.0409  0.3937
 2666TIP3    H229414   1.976   4.146  15.063  1.1392 -0.4828 -0.9180
 2667TIP3   OH229415   3.197   4.292   3.996  0.5226 -0.7342  0.4366
 2667TIP3    H129416   3.221   4.322   4.084  0.1041  1.4936 -0.1760
 2667TIP3    H229417   3.281   4.278   3.952  0.7529  1.8228  0.0098
 2668TIP3   OH229418   2.828   1.546   3.094 -0.7768  0.0979 -0.4579
 2668TIP3    H129419   2.871   1.483   3.152 -1.6572 -0.4844 -0.4235
 2668TIP3    H229420   2.894   1.612   3.077  0.3132 -1.0699 -0.8340
 2669TIP3   OH229421   5.762   1.644   5.011 -0.1390 -0.2186  0.1386
 2669TIP3    H129422   5.780   1.735   4.988 -2.9422 -0.2850 -2.6753
 2669TIP3    H229423   5.830   1.594   4.966  0.1367  0.3373 -0.0676
 2670TIP3   OH229424   2.477   4.551  13.198  0.6361  0.0751 -0.1464
 2670TIP3    H129425   2.414   4.623  13.203  1.4689  0.7774  0.6016
 2670TIP3    H229426   2.557   4.592  13.164  1.4812 -0.2131  1.4167
 2671TIP3   OH229427   2.268   0.022  14.048  0.0903 -0.0067  0.2786
 2671TIP3    H129428   2.259   0.053  14.138 -0.9214  0.8200 -0.1031
 2671TIP3    H229429   2.321  -0.058  14.056 -1.6129 -1.0106  1.8220
 2672TIP3   OH229430   4.850   4.098   4.193  0.6423  0.7246 -0.3647
 2672TIP3    H129431   4.798   4.051   4.128  0.5578  2.3790 -1.5268
 2672TIP3    H229432   4.870   4.182   4.151  0.7896  1.7200  1.6597
 2673TIP3   OH229433   3.332   2.581   5.036  0.7798  0.0601 -0.4377
 2673TIP3    H129434   3.241   2.567   5.063  1.4762 -0.8454  1.5537
 2673TIP3    H229435   3.365   2.645   5.098  2.0658 -1.1044  0.0957
 2674TIP3   OH229436   4.191   1.574   2.513  0.0882  0.6624 -0.5853
 2674TIP3    H129437   4.119   1.598   2.571  1.1386  2.0479  0.1582
 2674TIP3    H229438   4.148   1.548   2.432 -1.2394  2.0480 -0.3538
 2675TIP3   OH229439   4.966   2.059   3.501 -0.2630 -0.6100  0.2926
 2675TIP3    H129440   4.986   2.083   3.592  0.2021 -2.2645  0.6420
 2675TIP3    H229441   4.965   2.142   3.454  3.6664 -0.0971  0.9879
 2676TIP3   OH229442   2.516   1.318  11.933 -0.2595  0.8855  0.3469
 2676TIP3    H129443   2.476   1.394  11.890 -1.1057 -0.0543 -0.5413
 2676TIP3    H229444   2.476   1.315  12.019 -1.6164  0.3512 -0.2936
 2677TIP3   OH229445   3.298   4.040   0.843  0.2748 -0.1830 -0.1896
 2677TIP3    H129446   3.254   4.123   0.857 -0.0732 -0.2236 -1.0443
 2677TIP3    H229447   3.380   4.062   0.801 -0.3956 -0.3684 -1.6205
 2678TIP3   OH229448   0.469   4.716  13.449 -0.5007  0.7269 -0.5651
 2678TIP3    H129449   0.536   4.756  13.393 -0.7277  1.4618 -0.3213
 2678TIP3    H229450   0.460   4.627  13.416  2.4446 -0.2073  1.0313
 2679TIP3   OH229451   1.496   4.091   2.325 -0.6663  0.4149  0.1911
 2679TIP3    H129452   1.470   4.065   2.413  0.3472 -1.8171 -0.1388
 2679TIP3    H229453   1.461   4.023   2.268  2.2761 -0.4465 -0.6818
 2680TIP3   OH229454   3.642   0.052   1.843  0.1090 -0.0674  0.1255
 2680TIP3    H129455   3.700   0.076   1.771  1.0015  0.4306  0.9971
 2680TIP3    H229456   3.701   0.031   1.915 -0.7761 -0.6335  0.6874
 2681TIP3   OH229457   4.223   3.126  13.486  0.3574 -0.0905 -0.4780
 2681TIP3    H129458   4.145   3.161  13.445  0.5411 -0.1606 -0.8881
 2681TIP3    H229459   4.295   3.174  13.446  0.5006  0.2917  0.2202
 2682TIP3   OH229460   2.740   1.505  14.929  0.3227  0.7292  0.4872
 2682TIP3    H129461   2.731   1.439  14.997 -0.6277  0.8475  0.4956
 2682TIP3    H229462   2.665   1.563  14.942 -0.1629  0.4606 -0.9691
 2683TIP3   OH229463   1.539   4.388   2.463  0.8723  0.5060 -0.1006
 2683TIP3    H129464   1.555   4.296   2.438  0.2559  0.1502  0.8142
 2683TIP3    H229465   1.465   4.415   2.408  0.1703  0.0314  0.6008
 2684TIP3   OH229466   1.549   1.414  14.580  0.0566  0.9595 -0.1060
 2684TIP3    H129467   1.459   1.415  14.548 -0.6873  1.0109  1.9053
 2684TIP3    H229468   1.602   1.388  14.504 -1.8021 -0.4602 -0.9350
 2685TIP3   OH229469   1.712   6.184   1.358 -0.0323  0.2907 -0.3524
 2685TIP3    H129470   1.631   6.222   1.392 -0.2395 -0.1352 -0.3579
 2685TIP3    H229471   1.750   6.139   1.434 -0.0140  0.1421 -0.4494
 2686TIP3   OH229472   4.242   5.347   0.882  0.2670  0.0678 -0.3343
 2686TIP3    H129473   4.306   5.308   0.822 -1.2506 -0.6570 -1.5282
 2686TIP3    H229474   4.256   5.441   0.874  0.7190 -0.0563 -1.1217
 2687TIP3   OH229475   3.237   3.047  12.607  0.0222  0.2510 -0.0024
 2687TIP3    H129476   3.164   3.109  12.608  0.5107  0.8385 -0.2143
 2687TIP3    H229477   3.312   3.100  12.580  1.0324  0.2115  2.6265
 2688TIP3   OH229478   6.747   2.826   2.501 -0.0701  0.2927 -0.0536
 2688TIP3    H129479   6.775   2.778   2.423 -1.5659  0.7930 -0.9102
 2688TIP3    H229480   6.782   2.776   2.574 -0.1527 -1.1541 -0.9990
 2689TIP3   OH229481   5.532   5.462   2.251  0.0750 -0.3124 -0.3153
 2689TIP3    H129482   5.502   5.522   2.319 -0.2787  0.8516 -1.4920
 2689TIP3    H229483   5.462   5.461   2.186  0.8949 -0.5658 -1.2052
 2690TIP3   OH229484   1.562   1.042   5.715 -0.5082 -0.1073  0.5828
 2690TIP3    H129485   1.629   1.078   5.774  1.6620 -0.8954 -1.3233
 2690TIP3    H229486   1.597   1.056   5.628 -1.3850 -3.3564 -0.3540
 2691TIP3   OH229487   1.739   2.802   5.406  0.4518  0.3642 -0.1091
 2691TIP3    H129488   1.821   2.767   5.442  0.3103  0.1949  0.0516
 2691TIP3    H229489   1.697   2.846   5.480 -0.4767 -1.1429  0.2819
 2692TIP3   OH229490   0.624   0.531   0.057 -0.2075 -0.2383 -0.2098
 2692TIP3    H129491   0.636   0.447   0.013 -2.0091 -0.8546  0.4523
 2692TIP3    H229492   0.713   0.558   0.081  0.2857 -2.7408  1.0041
 2693TIP3   OH229493   1.753   2.269   2.195  0.4186 -0.4415  0.4817
 2693TIP3    H129494   1.777   2.319   2.273  1.0128 -1.6891  1.1147
 2693TIP3    H229495   1.668   2.231   2.216  0.1851 -0.0846  0.1867
 2694TIP3   OH229496   2.542   5.281   0.201 -0.3567  0.0612 -0.2041
 2694TIP3    H129497   2.578   5.272   0.113 -0.3940  0.5833 -0.2721
 2694TIP3    H229498   2.598   5.346   0.243 -0.4663 -0.0380  0.0932
 2695TIP3   OH229499   4.633   2.375  11.159  0.2221  0.1938  0.0688
 2695TIP3    H129500   4.578   2.382  11.081 -0.4331 -1.5438  0.3585
 2695TIP3    H229501   4.671   2.288  11.155  0.1208  0.0475  1.7289
 2696TIP3   OH229502   0.284   2.941  12.566 -0.0915 -0.0548  0.3226
 2696TIP3    H129503   0.353   2.929  12.631 -0.1300  1.0578  0.5837
 2696TIP3    H229504   0.203   2.925  12.614 -0.1127  0.6286  0.5206
 2697TIP3   OH229505   4.589   4.862  13.847  0.0753  0.1985  0.1932
 2697TIP3    H129506   4.635   4.900  13.772  0.4969  0.2263  0.4651
 2697TIP3    H229507   4.515   4.921  13.861 -1.1738 -0.9195 -1.4795
 2698TIP3   OH229508   6.458   4.443   1.422  0.5465  0.5240 -0.2579
 2698TIP3    H129509   6.551   4.449   1.445  0.7086  0.3458 -0.8646
 2698TIP3    H229510   6.435   4.352   1.441  0.2474  0.8140  0.8126
 2699TIP3   OH229511   3.261   3.413   3.428  0.1577 -0.1736 -0.3081
 2699TIP3    H129512   3.270   3.505   3.455 -0.1833  0.0617 -0.9963
 2699TIP3    H229513   3.207   3.373   3.496 -2.6349  0.9605 -1.7964
 2700TIP3   OH229514   2.861   1.232   0.969 -0.6675 -0.7172 -0.2766
 2700TIP3    H129515   2.772   1.200   0.965  0.1544 -3.0541 -0.5235
 2700TIP3    H229516   2.914   1.156   0.991  1.3148  0.5451 -0.4676
 2701TIP3   OH229517   3.262   6.019  12.810 -0.3364 -0.3203 -0.4044
 2701TIP3    H129518   3.290   6.054  12.894 -0.8644  1.4543 -0.9410
 2701TIP3    H229519   3.341   5.980  12.773 -0.1540 -1.2865  0.9989
 2702TIP3   OH229520   3.335   1.824   4.056  0.4162 -0.2425 -0.5201
 2702TIP3    H129521   3.395   1.810   4.129 -0.6253 -1.1916  0.1660
 2702TIP3    H229522   3.299   1.911   4.072  0.4153 -0.3221 -0.0744
 2703TIP3   OH229523   5.512   2.266  13.131 -0.5535 -0.2665 -0.4293
 2703TIP3    H129524   5.471   2.198  13.077  1.2768 -0.9672 -0.9535
 2703TIP3    H229525   5.450   2.279  13.203 -1.0663 -2.2746 -0.4827
 2704TIP3   OH229526   0.641   1.304   1.722 -0.1960 -0.1838 -0.3159
 2704TIP3    H129527   0.624   1.397   1.710  1.1762  0.2742  1.1146
 2704TIP3    H229528   0.588   1.261   1.656 -1.1025  1.5990 -0.7708
 2705TIP3   OH229529   1.109   4.045  13.715  0.4632 -0.4557  0.3648
 2705TIP3    H129530   1.077   4.131  13.742 -1.0367 -0.6155 -0.8498
 2705TIP3    H229531   1.104   3.992  13.795 -0.8710 -0.0569  0.5553
 2706TIP3   OH229532   3.917   0.520  12.009  0.4131 -0.2281 -0.6259
 2706TIP3    H129533   3.884   0.456  12.071 -0.6199  0.8612 -0.0342
 2706TIP3    H229534   3.984   0.569  12.057 -0.8921  1.0910 -0.1194
 2707TIP3   OH229535   3.260   1.643   0.263 -0.5265 -0.3978 -0.2177
 2707TIP3    H129536   3.252   1.611   0.173  0.1985 -1.5421  0.1239
 2707TIP3    H229537   3.243   1.567   0.317  1.4481 -0.2853  0.5970
 2708TIP3   OH229538   5.664   1.423  16.762 -0.1719 -0.7823 -0.2541
 2708TIP3    H129539   5.585   1.370  16.775  0.0710 -1.0040  0.2979
 2708TIP3    H229540   5.736   1.361  16.772  0.1821  0.0173  2.3011
 2709TIP3   OH229541   2.752   6.046   4.174  0.6276 -0.1821  0.0977
 2709TIP3    H129542   2.713   6.120   4.220  1.8174 -0.4778  1.6270
 2709TIP3    H229543   2.727   6.059   4.083 -0.8407  1.0264  0.6382
 2710TIP3   OH229544   4.561   4.929   4.918  0.2887 -0.5623  0.0951
 2710TIP3    H129545   4.545   4.861   4.984 -0.3328 -0.1935  0.3300
 2710TIP3    H229546   4.629   4.891   4.861  0.4861 -1.0773  0.6580
 2711TIP3   OH229547   3.099   2.034  10.894 -0.8163  0.3254 -0.4994
 2711TIP3    H129548   3.085   1.940  10.881  0.8099  0.2414 -1.8224
 2711TIP3    H229549   3.169   2.038  10.958  0.3092  0.6006 -1.7266
 2712TIP3   OH229550   4.246   5.817   3.710  0.1535 -0.0125 -0.1564
 2712TIP3    H129551   4.262   5.785   3.799 -4.3058 -0.4084  0.6056
 2712TIP3    H229552   4.190   5.750   3.670 -1.0350  1.9796 -1.9391
 2713TIP3   OH229553   4.833   2.924   3.346  0.1850 -0.0319  0.6854
 2713TIP3    H129554   4.917   2.884   3.323 -0.7922 -1.1701 -0.9750
 2713TIP3    H229555   4.848   3.018   3.339  2.0092 -0.1058  2.8731
 2714TIP3   OH229556   5.420   4.757   2.282 -0.6597  0.4606 -0.1088
 2714TIP3    H129557   5.501   4.782   2.326 -0.6814  0.1233  0.1236
 2714TIP3    H229558   5.364   4.724   2.352 -0.2244 -1.2926 -0.5511
 2715TIP3   OH229559   1.593   0.081   3.362  0.5709 -0.5888  0.3186
 2715TIP3    H129560   1.528   0.066   3.294  0.3837 -0.6171  0.5031
 2715TIP3    H229561   1.671   0.111   3.315 -0.4228  2.1266  0.3312
 2716TIP3   OH229562   6.224   3.601   4.681 -0.2292  0.0364  0.2753
 2716TIP3    H129563   6.259   3.539   4.745  1.8793 -0.8257 -1.6367
 2716TIP3    H229564   6.265   3.684   4.703  0.4818 -0.2550  0.0534
 2717TIP3   OH229565   3.870   2.494  11.228  0.2172 -0.3423  1.0309
 2717TIP3    H129566   3.779   2.466  11.242 -0.0517  1.2477  2.6252
 2717TIP3    H229567   3.880   2.494  11.132 -0.5164 -3.4020  0.9042
 2718TIP3   OH229568   0.950   1.421  14.695 -0.3089 -0.1644  0.2095
 2718TIP3    H129569   0.964   1.489  14.630  0.1617  1.0306  1.5453
 2718TIP3    H229570   0.911   1.467  14.770  1.9786 -0.9427  1.9436
 2719TIP3   OH229571   5.629   1.188   2.919  0.6696 -0.4757 -0.7206
 2719TIP3    H129572   5.641   1.278   2.891  1.5341 -0.7434 -1.2300
 2719TIP3    H229573   5.541   1.186   2.958 -0.1430  0.1297 -2.4997
 2720TIP3   OH229574   1.029   1.358   0.837 -0.8059  0.1330  0.2143
 2720TIP3    H129575   1.007   1.366   0.744 -1.9836  0.8950  0.5476
 2720TIP3    H229576   1.038   1.449   0.867  1.4589 -0.1394  0.4150
 2721TIP3   OH229577   1.361   5.805  12.512  0.0127  0.0096  0.0430
 2721TIP3    H129578   1.328   5.892  12.492 -0.5292  0.1880  1.6528
 2721TIP3    H229579   1.456   5.813  12.506 -0.1207  0.0976 -2.1971
 2722TIP3   OH229580   1.923   0.166  11.552 -0.1269  0.4341 -0.2513
 2722TIP3    H129581   1.927   0.257  11.523  0.8350  0.0925 -1.2051
 2722TIP3    H229582   1.850   0.129  11.503 -0.7033  0.7614  0.3517
 2723TIP3   OH229583   5.821   4.328  15.282 -0.0728 -0.2160 -0.2054
 2723TIP3    H129584   5.895   4.369  15.327 -0.4163  0.0962  0.0815
 2723TIP3    H229585   5.743   4.366  15.324 -0.4126  1.0448 -1.9165
 2724TIP3   OH229586   2.698   2.505  15.733 -0.1423 -0.4258  0.2740
 2724TIP3    H129587   2.665   2.588  15.699  0.8979  0.3756  1.1974
 2724TIP3    H229588   2.702   2.517  15.827 -0.5737 -1.7498  0.4789
 2725TIP3   OH229589   3.087   4.490   1.727 -0.4146 -0.2400 -0.0641
 2725TIP3    H129590   3.031   4.475   1.650 -0.8882  2.0317 -0.2155
 2725TIP3    H229591   3.174   4.504   1.690 -0.3035 -0.9300 -0.0569
 2726TIP3   OH229592   4.934   6.626   0.849  0.6993 -0.0782 -0.2859
 2726TIP3    H129593   4.882   6.577   0.786  0.2372 -0.2453  0.2195
 2726TIP3    H229594   4.891   6.711   0.854  1.5619  0.4174 -1.2399
 2727TIP3   OH229595   5.314   2.341  11.724 -0.3182  0.8419 -0.1451
 2727TIP3    H129596   5.229   2.375  11.751 -0.1630  1.9098 -0.9550
 2727TIP3    H229597   5.377   2.387  11.779 -0.2698 -0.1511  0.6452
 2728TIP3   OH229598   3.460   3.073   4.137 -0.0754  0.1425  0.4085
 2728TIP3    H129599   3.520   3.073   4.212 -0.2750  1.3160  0.5865
 2728TIP3    H229600   3.483   3.153   4.089 -1.4501  0.5683  0.4372
 2729TIP3   OH229601   4.500   3.847   5.089 -0.2417 -0.2075  0.5269
 2729TIP3    H129602   4.514   3.757   5.117 -1.8160 -0.5985  0.1223
 2729TIP3    H229603   4.501   3.844   4.994 -0.4443  0.1679  0.5087
 2730TIP3   OH229604   4.168   0.683  11.248  0.3748 -0.2944 -0.6617
 2730TIP3    H129605   4.210   0.611  11.296  1.7785  0.2832 -0.9911
 2730TIP3    H229606   4.146   0.645  11.162 -0.2028 -0.7236 -0.3301
 2731TIP3   OH229607   6.275   1.768   3.857  0.3686 -0.5304 -0.0974
 2731TIP3    H129608   6.346   1.832   3.853  1.2683 -1.4794  0.2670
 2731TIP3    H229609   6.311   1.696   3.910 -1.4083 -0.3444  1.4148
 2732TIP3   OH229610   3.396   0.988  12.553  0.2812 -0.0279  0.1608
 2732TIP3    H129611   3.372   1.079  12.534  1.2782  0.6578  2.0495
 2732TIP3    H229612   3.454   0.962  12.481  2.3145  1.8055  1.0805
 2733TIP3   OH229613   5.984   4.645   1.163 -0.3847 -0.2019 -0.3013
 2733TIP3    H129614   5.977   4.556   1.129 -0.9608 -0.6218  0.9067
 2733TIP3    H229615   5.905   4.657   1.216  0.3016  0.5920  0.5597
 2734TIP3   OH229616   1.171   4.876  15.391  0.1442 -0.5240 -0.0943
 2734TIP3    H129617   1.205   4.924  15.467  3.1334 -0.2682 -1.5166
 2734TIP3    H229618   1.183   4.784  15.413  0.5894 -0.4570 -0.0442
 2735TIP3   OH229619   0.428   1.556   2.789 -0.2755 -0.2155 -0.6429
 2735TIP3    H129620   0.407   1.491   2.856  1.3856 -1.0638 -0.9345
 2735TIP3    H229621   0.438   1.505   2.709  0.1266  0.5075 -1.0564
 2736TIP3   OH229622   3.112   1.680   3.634  0.0182 -0.7348  0.7183
 2736TIP3    H129623   3.177   1.750   3.623 -0.2956 -0.5476 -0.0376
 2736TIP3    H229624   3.132   1.618   3.564 -1.2056 -0.2016 -0.1087
 2737TIP3   OH229625   4.508   5.128   2.507 -0.5016  0.2785 -0.2516
 2737TIP3    H129626   4.585   5.176   2.537 -0.6581 -0.8048  1.9087
 2737TIP3    H229627   4.444   5.138   2.577 -1.7428 -0.2753 -1.2773
 2738TIP3   OH229628   2.622   6.446  14.683 -0.0139 -0.0594 -0.3709
 2738TIP3    H129629   2.711   6.416  14.699  0.5628 -0.2350 -3.6090
 2738TIP3    H229630   2.628   6.541  14.682  0.1141 -0.0695 -0.5057
 2739TIP3   OH229631   3.859   3.365   0.943  0.7801 -0.4032 -1.0415
 2739TIP3    H129632   3.857   3.342   0.850  1.1062 -2.1874 -0.6244
 2739TIP3    H229633   3.772   3.398   0.962  0.5197 -0.6305 -1.8360
 2740TIP3   OH229634   2.407   1.483   3.961  0.3283 -0.0865  0.1217
 2740TIP3    H129635   2.358   1.451   4.037  1.0250 -1.0808  0.1607
 2740TIP3    H229636   2.443   1.405   3.921  0.7634  0.5230 -0.6946
 2741TIP3   OH229637   6.148   5.557   4.901  0.1597 -0.0056  0.1915
 2741TIP3    H129638   6.097   5.478   4.883  1.1245 -0.3706 -1.0339
 2741TIP3    H229639   6.084   5.622   4.928 -0.8013 -0.8339 -0.0857
 2742TIP3   OH229640   2.693   2.413   5.030  0.2064  0.0898  0.5562
 2742TIP3    H129641   2.599   2.414   5.050  0.2169  0.6209  0.5947
 2742TIP3    H229642   2.734   2.379   5.109  0.0393 -0.1963  0.5200
 2743TIP3   OH229643   1.840   0.555   4.028 -0.0623  0.5209 -0.1836
 2743TIP3    H129644   1.834   0.470   4.071 -1.2283  0.4763 -0.4012
 2743TIP3    H229645   1.824   0.619   4.098 -1.3007  0.4736 -0.4153
 2744TIP3   OH229646   0.204   2.097  12.178  0.3181  0.6295 -0.3923
 2744TIP3    H129647   0.183   2.153  12.253 -0.2258 -0.9160  0.6328
 2744TIP3    H229648   0.189   2.008  12.209  0.8487 -0.0871 -2.1035
 2745TIP3   OH229649   2.492   5.062   0.941 -0.4329 -0.1994 -0.2049
 2745TIP3    H129650   2.525   5.078   1.029 -1.9582  0.3037  0.2936
 2745TIP3    H229651   2.475   5.149   0.906 -1.7520 -0.4637 -0.2358
 2746TIP3   OH229652   5.423   5.449  14.113 -0.1885 -0.3704 -0.1370
 2746TIP3    H129653   5.480   5.510  14.160  0.7076 -0.4962 -1.0504
 2746TIP3    H229654   5.423   5.481  14.023  0.4271 -1.8064 -0.6620
 2747TIP3   OH229655   5.396   4.713   4.614 -0.1117 -0.5005 -0.0719
 2747TIP3    H129656   5.371   4.650   4.547 -1.1691 -1.0129  0.7905
 2747TIP3    H229657   5.313   4.750   4.645  0.3962  0.0472  0.6491
 2748TIP3   OH229658   1.912   0.343  10.860 -0.0630 -0.0370 -0.3137
 2748TIP3    H129659   1.944   0.363  10.772  3.0330  1.1624  1.0260
 2748TIP3    H229660   1.922   0.248  10.869 -0.8910 -0.2344 -1.4219
 2749TIP3   OH229661   4.791   3.023  12.097 -0.1981  0.2835 -0.3517
 2749TIP3    H129662   4.720   3.056  12.042 -0.0983  1.2291  0.0770
 2749TIP3    H229663   4.778   3.066  12.181 -1.2386 -2.2906  0.8498
 2750TIP3   OH229664   4.620   4.913   0.462  0.7260  0.1156  0.7163
 2750TIP3    H129665   4.618   4.997   0.508 -0.9678 -0.2591  1.3470
 2750TIP3    H229666   4.530   4.898   0.434  0.9655 -1.5792  0.7720
 2751TIP3   OH229667   5.454   2.699   2.870 -0.0110  0.0242  0.4917
 2751TIP3    H129668   5.506   2.623   2.843  1.2393  1.4433 -1.2412
 2751TIP3    H229669   5.470   2.764   2.802 -0.9198  1.9176  2.0392
 2752TIP3   OH229670   1.947   3.485  15.755 -0.2029 -0.0324 -0.1387
 2752TIP3    H129671   1.972   3.453  15.842 -0.3448 -0.7995 -0.3741
 2752TIP3    H229672   2.009   3.443  15.696  2.9209  4.0573 -0.0121
 2753TIP3   OH229673   2.945   4.327  15.730 -0.0448  0.1059 -0.0665
 2753TIP3    H129674   3.031   4.366  15.745 -0.1510  1.7478 -3.1693
 2753TIP3    H229675   2.963   4.249  15.678 -0.1358 -2.0009  2.9703
 2754TIP3   OH229676   4.384   0.504  15.138  0.3348  0.2550 -0.1281
 2754TIP3    H129677   4.455   0.441  15.131 -0.5629 -0.8816  0.7584
 2754TIP3    H229678   4.340   0.482  15.220 -0.9872  0.9861 -0.6183
 2755TIP3   OH229679   3.493   2.877   5.044  0.0327  0.4433 -0.0429
 2755TIP3    H129680   3.584   2.904   5.030 -0.4117  2.9372  1.5753
 2755TIP3    H229681   3.442   2.939   4.992 -0.7700 -0.2681 -0.0928
 2756TIP3   OH229682   6.224   2.233  16.963  0.9627  0.0797 -0.1322
 2756TIP3    H129683   6.168   2.164  16.926  0.4915  0.7296 -0.6406
 2756TIP3    H229684   6.178   2.260  17.043  0.5640  0.5867 -0.5308
 2757TIP3   OH229685   4.848   4.140   3.510 -0.4258 -0.3359 -0.1404
 2757TIP3    H129686   4.767   4.148   3.459 -0.8985 -0.9605  0.4797
 2757TIP3    H229687   4.833   4.194   3.587 -0.5502 -1.0158  0.3229
 2758TIP3   OH229688   1.173   6.753  17.022  0.1922  0.0987  0.5104
 2758TIP3    H129689   1.227   6.794  16.954  1.6178  1.9834  2.6820
 2758TIP3    H229690   1.208   6.664  17.029  1.9656  0.7723  0.7071
 2759TIP3   OH229691   2.411   3.989  15.496 -0.5407 -0.4867  0.2197
 2759TIP3    H129692   2.326   4.032  15.482 -1.0391 -0.5572  2.8012
 2759TIP3    H229693   2.410   3.913  15.438 -2.2060 -0.4326  0.1627
 2760TIP3   OH229694   5.507   0.291   3.222  0.5378  0.4651 -0.2876
 2760TIP3    H129695   5.489   0.231   3.150  1.0243 -0.6891  0.5247
 2760TIP3    H229696   5.421   0.313   3.257  0.3589  0.1075 -0.4934
 2761TIP3   OH229697   6.667   5.474   6.396 -0.0747 -0.0061 -0.7458
 2761TIP3    H129698   6.657   5.387   6.359  0.4000 -0.8981  1.1769
 2761TIP3    H229699   6.647   5.464   6.489  2.5877  1.3748  0.0400
 2762TIP3   OH229700   3.908   3.616   0.708 -0.0857  0.3755 -0.2638
 2762TIP3    H129701   3.923   3.617   0.613 -1.1500 -2.8007 -0.5149
 2762TIP3    H229702   3.993   3.594   0.746  0.2794  1.3882 -0.4807
 2763TIP3   OH229703   3.140   1.542   2.079 -0.6604  0.0630  0.0744
 2763TIP3    H129704   3.044   1.545   2.086 -0.5628 -1.1831  2.1542
 2763TIP3    H229705   3.171   1.532   2.169  1.5106  1.9207 -0.4093
 2764TIP3   OH229706   3.402   3.620   2.995  0.2235 -0.1941  0.4602
 2764TIP3    H129707   3.489   3.589   2.966  0.0634  0.4791 -0.7911
 2764TIP3    H229708   3.355   3.540   3.019  0.5430 -0.7482 -0.7085
 2765TIP3   OH229709   5.851   0.432  13.884  0.4723  0.0066  0.1954
 2765TIP3    H129710   5.906   0.417  13.961  2.0723  2.3288 -0.4604
 2765TIP3    H229711   5.911   0.462  13.817 -0.9663 -1.5966 -1.8883
 2766TIP3   OH229712   1.451   3.120   0.690 -0.0246  0.2888 -0.2298
 2766TIP3    H129713   1.470   3.171   0.612 -1.1313  1.5314  0.2989
 2766TIP3    H229714   1.486   3.033   0.671 -0.3392  0.5544 -2.1324
 2767TIP3   OH229715   4.910   5.274  11.881 -0.3607  0.5468  0.4197
 2767TIP3    H129716   4.869   5.358  11.903 -0.3626  0.5007  0.6009
 2767TIP3    H229717   4.837   5.215  11.864 -0.3521  0.6606 -0.0096
 2768TIP3   OH229718   0.540   3.303  13.730 -0.2410 -0.4606 -0.3181
 2768TIP3    H129719   0.521   3.382  13.781 -0.7020 -0.0507 -1.1172
 2768TIP3    H229720   0.610   3.329  13.670 -0.8072 -0.4946 -0.9942
 2769TIP3   OH229721   3.607   4.827   5.019  0.1133 -0.4103  0.2213
 2769TIP3    H129722   3.683   4.777   4.990 -0.2960 -1.7646  1.4225
 2769TIP3    H229723   3.608   4.906   4.965  1.2698 -1.3064 -1.0986
 2770TIP3   OH229724   3.760   4.485   1.050  0.2422 -0.1597  0.2287
 2770TIP3    H129725   3.743   4.579   1.055 -0.9269 -0.3236 -0.4696
 2770TIP3    H229726   3.851   4.475   1.079 -0.3201  0.9286  2.4163
 2771TIP3   OH229727   5.674   0.510  15.364  0.2624  0.1482 -0.2331
 2771TIP3    H129728   5.623   0.429  15.358  0.0015  0.3700 -1.0978
 2771TIP3    H229729   5.717   0.517  15.279  1.8235 -0.0881  0.5219
 2772TIP3   OH229730   0.309   4.913   5.216 -0.0649  0.2407 -0.7747
 2772TIP3    H129731   0.382   4.931   5.157  0.5217 -1.9864 -0.7538
 2772TIP3    H229732   0.255   4.849   5.171 -0.5469 -0.1881  0.3760
 2773TIP3   OH229733   3.686   4.812   0.638  0.1737  0.2088 -0.3425
 2773TIP3    H129734   3.738   4.743   0.598  2.6462  1.2418  1.0182
 2773TIP3    H229735   3.739   4.891   0.629 -0.6525  1.0707  2.1016
 2774TIP3   OH229736   0.424   1.774   4.979  0.0798  0.0528 -0.1525
 2774TIP3    H129737   0.405   1.862   4.950  0.6039  0.7993  1.6772
 2774TIP3    H229738   0.348   1.722   4.952 -0.6702  1.2567 -0.3662
 2775TIP3   OH229739   5.000   6.328  13.935 -0.1363  0.7858  0.3668
 2775TIP3    H129740   5.051   6.271  13.992  1.9155 -0.5190 -2.6357
 2775TIP3    H229741   4.990   6.409  13.985  1.3927 -0.3723  2.6389
 2776TIP3   OH229742   0.330   3.290  14.329  0.3447  0.8303  0.1437
 2776TIP3    H129743   0.371   3.204  14.332  0.5218  0.9291  0.7026
 2776TIP3    H229744   0.376   3.341  14.396 -0.6945  0.9416  0.7947
 2777TIP3   OH229745   2.545   4.979  11.988 -0.2294  0.0986 -0.0458
 2777TIP3    H129746   2.463   5.022  11.965 -0.3730  0.6636  1.4745
 2777TIP3    H229747   2.583   5.033  12.057  0.6551 -1.0102  0.3687
 2778TIP3   OH229748   6.771   2.326   4.433 -0.6436 -0.7767 -0.3990
 2778TIP3    H129749   6.706   2.385   4.395  1.2762 -0.1236 -2.7960
 2778TIP3    H229750   6.746   2.319   4.525 -2.6127  1.4749 -0.7103
 2779TIP3   OH229751   2.014   0.188   5.603  0.1139 -0.0332 -0.1585
 2779TIP3    H129752   2.068   0.114   5.632  1.0145  1.0131  0.8316
 2779TIP3    H229753   2.033   0.258   5.665 -0.8925  0.9833 -0.9802
 2780TIP3   OH229754   4.864   5.233  14.702  0.0953  0.8087 -0.3455
 2780TIP3    H129755   4.901   5.192  14.624 -2.2793  0.6419 -1.4389
 2780TIP3    H229756   4.789   5.179  14.725 -1.5391  3.0209 -0.2625
 2781TIP3   OH229757   6.682   6.333  12.379 -0.4919  0.5803  0.2254
 2781TIP3    H129758   6.614   6.287  12.429  1.8394 -2.9300  0.3764
 2781TIP3    H229759   6.672   6.301  12.289  1.1462 -0.2488  0.3206
 2782TIP3   OH229760   6.228   1.224  13.205  0.6368  0.2655  0.4939
 2782TIP3    H129761   6.220   1.297  13.143 -0.7540 -1.0592 -0.9381
 2782TIP3    H229762   6.181   1.253  13.283  0.1987  0.9554 -0.0193
 2783TIP3   OH229763   4.362   4.505   4.851 -0.0799  0.0609  0.0894
 2783TIP3    H129764   4.410   4.581   4.819 -0.4546  0.4179  0.3731
 2783TIP3    H229765   4.396   4.432   4.800 -0.3143  0.5434 -0.7615
 2784TIP3   OH229766   1.612   5.724  14.335 -0.6770 -0.2763  0.0093
 2784TIP3    H129767   1.632   5.780  14.260  0.4689 -1.4816 -0.5973
 2784TIP3    H229768   1.547   5.773  14.384 -0.6149  1.0336 -1.1796
 2785TIP3   OH229769   6.203   5.791  13.412 -0.1294  0.7214  0.4555
 2785TIP3    H129770   6.228   5.713  13.462 -0.5382 -0.0464 -0.5225
 2785TIP3    H229771   6.285   5.838  13.397  0.2410  0.0281  0.2926
 2786TIP3   OH229772   5.764   5.390   1.432  0.2243 -0.5529  0.3418
 2786TIP3    H129773   5.812   5.425   1.507 -0.6256 -3.1700  2.2127
 2786TIP3    H229774   5.673   5.415   1.449 -0.2373 -2.6493  1.1781
 2787TIP3   OH229775   3.980   2.960   5.528  0.3657  0.5322  0.5016
 2787TIP3    H129776   3.890   2.927   5.523  0.7684 -0.5881  0.5085
 2787TIP3    H229777   4.023   2.904   5.593  1.3131  0.4999 -0.1419
 2788TIP3   OH229778   4.778   3.599   4.815 -0.1343 -0.7800 -0.1096
 2788TIP3    H129779   4.853   3.555   4.776 -0.4225 -0.8495 -0.5926
 2788TIP3    H229780   4.726   3.529   4.853 -0.7810 -0.9048 -1.2010
 2789TIP3   OH229781   4.867   5.296   1.146 -0.1919 -0.1011 -0.3151
 2789TIP3    H129782   4.958   5.288   1.174 -0.1923 -2.0673 -0.7841
 2789TIP3    H229783   4.816   5.301   1.227  0.3684  1.4847 -0.0597
 2790TIP3   OH229784   0.567   4.234   2.926  0.2842  0.4045 -0.0137
 2790TIP3    H129785   0.477   4.259   2.948 -0.3379  1.1532 -3.0731
 2790TIP3    H229786   0.560   4.145   2.893  0.9393 -0.1492  1.3249
 2791TIP3   OH229787   6.704   2.168  10.254 -0.1023  0.1615  0.0092
 2791TIP3    H129788   6.623   2.121  10.274 -0.8356  0.6033 -1.8200
 2791TIP3    H229789   6.698   2.249  10.304 -0.2827 -0.3080  0.7440
 2792TIP3   OH229790   0.944   1.636  14.895  0.0235  0.1220  0.5969
 2792TIP3    H129791   1.018   1.678  14.851 -1.0063  0.1135 -1.1944
 2792TIP3    H229792   0.945   1.672  14.984  0.8770  1.7506 -0.0529
 2793TIP3   OH229793   4.311   0.882   4.186  0.4986 -0.5764  0.0762
 2793TIP3    H129794   4.330   0.808   4.128 -0.5143 -0.2780 -0.6423
 2793TIP3    H229795   4.278   0.950   4.128 -0.9617 -0.4318  1.0680
 2794TIP3   OH229796   4.459   5.314   2.292  0.1174  0.5978  0.3186
 2794TIP3    H129797   4.496   5.371   2.224  0.6343 -0.2778 -0.1482
 2794TIP3    H229798   4.529   5.305   2.357 -0.1729  0.9707  0.6858
 2795TIP3   OH229799   5.634   6.247  16.679 -0.6192  0.4225 -0.2568
 2795TIP3    H129800   5.565   6.183  16.659 -0.4732  0.3008 -0.3726
 2795TIP3    H229801   5.712   6.212  16.637 -0.4680  0.5188 -0.0508
 2796TIP3   OH229802   6.477   1.861  16.491 -0.1549  0.2382  0.2538
 2796TIP3    H129803   6.503   1.770  16.479  0.7929  0.3960  1.0957
 2796TIP3    H229804   6.542   1.898  16.550  0.3774  1.8938 -1.2972
 2797TIP3   OH229805   1.239   2.624   5.907 -0.3641 -0.1110 -0.5167
 2797TIP3    H129806   1.176   2.684   5.948  0.0174  0.4546 -0.7478
 2797TIP3    H229807   1.214   2.621   5.815  1.6563  2.3922 -1.2287
 2798TIP3   OH229808   3.847   6.250   4.741  0.1513  0.6655  0.2800
 2798TIP3    H129809   3.862   6.157   4.725 -1.5864  0.3365  0.5379
 2798TIP3    H229810   3.904   6.270   4.816 -0.1882 -0.4069  0.8346
 2799TIP3   OH229811   3.449   6.645   5.718  0.2640 -0.2172  0.2218
 2799TIP3    H129812   3.512   6.597   5.771  0.7087  0.3560  0.2123
 2799TIP3    H229813   3.427   6.722   5.770 -1.8272 -1.3205  1.0480
 2800TIP3   OH229814   1.681   5.513  15.763 -0.6061  0.0116 -0.5368
 2800TIP3    H129815   1.599   5.555  15.739  0.2275  1.2096 -1.3368
 2800TIP3    H229816   1.746   5.583  15.760  0.4079 -0.8733  0.3003
 2801TIP3   OH229817   3.902   5.844   0.033 -0.3289  0.3305  0.6960
 2801TIP3    H129818   3.816   5.804   0.019  0.3658 -1.0384  0.3140
 2801TIP3    H229819   3.937   5.856  -0.055 -0.2808  1.2515  0.8333
 2802TIP3   OH229820   3.808   3.472  13.396 -0.7745 -0.2038  0.1464
 2802TIP3    H129821   3.758   3.391  13.384 -0.2061 -0.4525 -0.5135
 2802TIP3    H229822   3.793   3.521  13.315 -0.3259 -0.0687  0.1481
 2803TIP3   OH229823   6.495   3.989   4.405  0.4604  0.1609  0.0133
 2803TIP3    H129824   6.498   3.953   4.493 -2.3324 -1.9790 -0.7005
 2803TIP3    H229825   6.429   4.059   4.410 -1.3890 -1.4876 -0.8674
 2804TIP3   OH229826   3.138   4.861   2.583  0.6251  0.1571 -0.2400
 2804TIP3    H129827   3.183   4.927   2.531 -0.5843 -0.1354 -1.6774
 2804TIP3    H229828   3.130   4.786   2.525  0.9284 -0.8538  0.9945
 2805TIP3   OH229829   3.704   6.229   3.649  0.3333 -0.2858 -1.0692
 2805TIP3    H129830   3.755   6.295   3.602  0.0545  1.3959  0.8802
 2805TIP3    H229831   3.764   6.155   3.660  2.3729  1.5746  1.0155
 2806TIP3   OH229832   3.146   1.613   4.948  0.1380  0.1681 -0.1529
 2806TIP3    H129833   3.131   1.605   4.854 -2.4805  3.1492 -0.0701
 2806TIP3    H229834   3.241   1.609   4.957  0.4138 -0.5936 -2.8683
 2807TIP3   OH229835   2.483   5.267   2.667 -0.3277  0.0231 -0.1598
 2807TIP3    H129836   2.566   5.232   2.637  0.5217  1.7659  0.1034
 2807TIP3    H229837   2.491   5.269   2.763 -1.6165 -2.0654  0.0282
 2808TIP3   OH229838   3.585   1.324  11.334 -0.1344  0.2467 -0.3732
 2808TIP3    H129839   3.552   1.295  11.248  0.1366 -0.9288 -0.0963
 2808TIP3    H229840   3.647   1.393  11.314 -0.4538  0.3307 -1.1024
 2809TIP3   OH229841   4.694   5.349  16.143 -0.2302  0.2816  0.3864
 2809TIP3    H129842   4.789   5.348  16.131 -0.1786 -1.0325  0.8294
 2809TIP3    H229843   4.659   5.332  16.055  0.0033 -1.7867  0.6729
 2810TIP3   OH229844   5.098   1.281   4.711  0.2545 -0.2337 -0.0622
 2810TIP3    H129845   5.134   1.192   4.717  0.8518  0.0355  0.4126
 2810TIP3    H229846   5.068   1.288   4.620  0.5074 -0.8082 -0.1967
 2811TIP3   OH229847   6.120   4.380   2.230 -0.4522 -0.0620  0.7225
 2811TIP3    H129848   6.071   4.415   2.304  1.5445  1.3571  1.4229
 2811TIP3    H229849   6.075   4.413   2.153 -1.1096  0.4828  1.3371
 2812TIP3   OH229850   5.847   2.541   5.034  0.4644  0.6881 -0.4684
 2812TIP3    H129851   5.842   2.627   4.993 -2.2370  1.2705  0.9596
 2812TIP3    H229852   5.851   2.558   5.128  0.5533 -0.7189 -0.1961
 2813TIP3   OH229853   3.725   0.719   1.067 -0.0700  0.1971  0.5249
 2813TIP3    H129854   3.773   0.642   1.035  0.4389  0.9166 -0.4790
 2813TIP3    H229855   3.659   0.735   0.999  0.4488  1.2193  0.2607
 2814TIP3   OH229856   1.563   0.493  12.950 -0.0315  0.0685 -0.7872
 2814TIP3    H129857   1.522   0.576  12.974 -0.1696  0.5493 -2.5989
 2814TIP3    H229858   1.503   0.426  12.980  0.1987  0.6058  0.9172
 2815TIP3   OH229859   5.124   4.139  16.764  0.2614 -0.1526  0.1789
 2815TIP3    H129860   5.125   4.088  16.845  2.1635  0.3574  0.5190
 2815TIP3    H229861   5.137   4.075  16.694  2.0872 -0.2237  0.5606
 2816TIP3   OH229862   0.768   4.061  10.482 -0.5405  0.2663  0.2592
 2816TIP3    H129863   0.697   4.013  10.524 -1.8766  2.5998  0.8098
 2816TIP3    H229864   0.724   4.121  10.422  1.0691  0.5709 -0.6505
 2817TIP3   OH229865   6.167   4.682  11.838 -0.0472  0.4685 -0.1600
 2817TIP3    H129866   6.160   4.723  11.925 -0.4550 -0.4804  0.2554
 2817TIP3    H229867   6.111   4.605  11.843  0.2357  0.1925 -1.1469
 2818TIP3   OH229868   0.873   3.756  13.817 -0.3955  0.0636  0.0774
 2818TIP3    H129869   0.873   3.667  13.782 -0.2937 -0.7278  2.0753
 2818TIP3    H229870   0.964   3.773  13.840 -0.3677  0.8058 -0.5358
 2819TIP3   OH229871   0.566   4.919  13.000  0.3305 -0.4880  0.2947
 2819TIP3    H129872   0.470   4.922  13.001  0.3168 -0.6140 -0.4141
 2819TIP3    H229873   0.587   4.826  12.998  0.4625 -0.4558  0.1685
 2820TIP3   OH229874   2.323   4.450  12.065 -0.1711  0.1631  0.5401
 2820TIP3    H129875   2.268   4.519  12.028 -0.0603 -1.1927 -2.3405
 2820TIP3    H229876   2.270   4.410  12.134 -2.0845  0.0844 -0.9393
 2821TIP3   OH229877   5.821   2.012  17.065  0.1798  0.1135  0.2162
 2821TIP3    H129878   5.754   2.069  17.102 -0.9187 -0.9161 -0.1371
 2821TIP3    H229879   5.782   1.924  17.068  1.0781 -0.3450 -1.0078
 2822TIP3   OH229880   1.904   2.660   6.927 -0.1209 -0.1834  0.0473
 2822TIP3    H129881   1.875   2.751   6.935  1.8814  0.3780  1.1086
 2822TIP3    H229882   1.948   2.657   6.842 -2.3553 -0.8043 -1.1295
 2823TIP3   OH229883   4.322   0.064  16.733 -0.3422 -0.2881  0.0239
 2823TIP3    H129884   4.332   0.133  16.667 -0.7485  0.6049  0.8880
 2823TIP3    H229885   4.297   0.110  16.813 -1.4678 -1.5213  0.3973
 2824TIP3   OH229886   0.931   6.660  16.858  1.0485 -0.1692  0.1321
 2824TIP3    H129887   1.001   6.725  16.855  0.4583  0.4196 -1.6529
 2824TIP3    H229888   0.940   6.611  16.776  2.5938 -3.5880  2.2286
 2825TIP3   OH229889   6.314   1.304   5.097  0.0048 -0.4890  0.0576
 2825TIP3    H129890   6.379   1.260   5.043  2.2704  0.1662  2.1468
 2825TIP3    H229891   6.309   1.393   5.061 -0.1081 -0.6902 -0.4224
 2826TIP3   OH229892   2.595   2.798  15.850  0.5821 -0.0009 -0.1461
 2826TIP3    H129893   2.566   2.824  15.762  1.0428 -0.4386 -0.4286
 2826TIP3    H229894   2.600   2.881  15.899 -1.2383  0.0741 -0.0554
 2827TIP3   OH229895   4.512   0.463  13.841 -0.2268  0.0808  0.5179
 2827TIP3    H129896   4.484   0.553  13.857 -0.9498 -0.5016  2.7611
 2827TIP3    H229897   4.607   0.465  13.850 -0.1895  0.7109  0.0281
 2828TIP3   OH229898   0.521   3.783   5.987  0.1016  0.4623 -0.3233
 2828TIP3    H129899   0.468   3.704   5.995  0.2573  0.3556 -0.3598
 2828TIP3    H229900   0.520   3.822   6.074 -0.5879  0.8097 -0.4785
 2829TIP3   OH229901   6.420   4.812  16.237 -0.1417 -0.0534  0.3540
 2829TIP3    H129902   6.378   4.734  16.202 -0.2387  0.2450 -0.1953
 2829TIP3    H229903   6.513   4.799  16.223  0.0861 -1.2718  2.6735
 2830TIP3   OH229904   2.694   1.278  14.321 -0.3962 -0.1150  0.2799
 2830TIP3    H129905   2.661   1.247  14.405 -1.5578  0.2590 -0.0356
 2830TIP3    H229906   2.626   1.336  14.288  0.3645  0.2866 -0.6001
 2831TIP3   OH229907   5.459   6.492  17.190 -0.3174  0.5998 -0.4376
 2831TIP3    H129908   5.444   6.533  17.275  0.9761  0.5207 -0.1709
 2831TIP3    H229909   5.449   6.398  17.207  1.7452  0.4465  0.0262
 2832TIP3   OH229910   3.924   1.671  15.682  0.2112 -0.0359 -0.1943
 2832TIP3    H129911   3.950   1.696  15.771 -2.0987 -1.6131  0.9928
 2832TIP3    H229912   3.998   1.622  15.648  0.2748 -1.3137  1.7102
 2833TIP3   OH229913   3.917   5.475   3.001  0.4562 -0.1575 -0.6645
 2833TIP3    H129914   3.884   5.472   3.091  0.9085 -0.6173 -0.5102
 2833TIP3    H229915   3.850   5.524   2.953  1.0963  1.7514  0.3105
 2834TIP3   OH229916   4.694   2.226   2.751 -0.5213 -0.0801 -0.3369
 2834TIP3    H129917   4.771   2.170   2.759  0.9903  1.7703 -1.4375
 2834TIP3    H229918   4.699   2.285   2.827 -2.0059 -1.2543  0.7182
 2835TIP3   OH229919   6.743   6.057  17.096  0.3234  0.2328 -0.0595
 2835TIP3    H129920   6.815   6.016  17.048 -1.5553 -2.3738 -0.7866
 2835TIP3    H229921   6.672   6.061  17.032 -0.8031  0.8763  1.2242
 2836TIP3   OH229922   5.516   5.573   5.274  0.7137  0.1695 -0.0311
 2836TIP3    H129923   5.570   5.495   5.269  1.1391  0.5292 -1.2809
 2836TIP3    H229924   5.541   5.615   5.356  1.9143  0.0218 -0.3108
 2837TIP3   OH229925   1.413   4.469  12.073  0.0903  0.6086  0.2809
 2837TIP3    H129926   1.342   4.420  12.115  0.0748  0.8842  0.5774
 2837TIP3    H229927   1.382   4.559  12.072 -0.0038  0.5715 -0.5231
 2838TIP3   OH229928   0.889   3.256  12.796  0.1022 -0.8045 -0.2395
 2838TIP3    H129929   0.852   3.170  12.776 -0.2820 -0.5907 -0.4484
 2838TIP3    H229930   0.931   3.284  12.716  0.3945 -0.8830 -0.1126
 2839TIP3   OH229931   1.377   2.163  13.963  0.3418 -0.4007  0.0419
 2839TIP3    H129932   1.376   2.122  14.049 -0.2707 -0.9007 -0.1925
 2839TIP3    H229933   1.457   2.215  13.961  0.4155 -0.4852  0.8642
 2840TIP3   OH229934   1.995   2.442   3.568 -0.1548  0.2990  0.4220
 2840TIP3    H129935   2.048   2.521   3.580  0.7898 -0.2471 -0.0847
 2840TIP3    H229936   2.058   2.370   3.575 -1.2434 -0.5136  2.5286
 2841TIP3   OH229937   5.847   1.697  10.736 -0.1351 -0.9858  0.4011
 2841TIP3    H129938   5.935   1.732  10.732 -0.4282 -0.1337  1.2181
 2841TIP3    H229939   5.855   1.607  10.703  1.4684 -1.7589  2.8000
 2842TIP3   OH229940   2.324   0.279   3.768 -0.0335  0.4843  0.0961
 2842TIP3    H129941   2.309   0.221   3.693 -0.6021  0.5600  0.1482
 2842TIP3    H229942   2.415   0.306   3.760 -0.2677  0.9965 -0.9289
 2843TIP3   OH229943   4.510   5.482   0.946 -0.5318 -0.7655  0.4634
 2843TIP3    H129944   4.506   5.458   1.038 -0.6057 -1.7063  0.2212
 2843TIP3    H229945   4.564   5.413   0.906  0.3606  0.2027 -0.0126
 2844TIP3   OH229946   4.695   6.591  16.561 -0.0918  0.3999 -0.3279
 2844TIP3    H129947   4.737   6.620  16.642 -0.5341  0.7914 -0.2385
 2844TIP3    H229948   4.689   6.496  16.569 -0.8179  0.5132  0.4225
 2845TIP3   OH229949   0.991   6.191  12.257  0.3638  0.2367  0.2404
 2845TIP3    H129950   0.902   6.173  12.288 -0.5718  1.0404 -1.8663
 2845TIP3    H229951   0.984   6.185  12.162  2.0054  2.8377 -0.0788
 2846TIP3   OH229952   1.727   2.786  17.012 -0.0380  0.2949 -0.3246
 2846TIP3    H129953   1.644   2.768  16.967 -0.9966  0.7094  1.2677
 2846TIP3    H229954   1.742   2.879  16.997 -0.3282  0.4203  0.1427
 2847TIP3   OH229955   6.286   5.671   5.960  0.5916  0.1593 -0.1592
 2847TIP3    H129956   6.202   5.688   6.004  1.0817 -1.2309  1.3294
 2847TIP3    H229957   6.260   5.637   5.874 -0.3718  1.1354 -0.2726
 2848TIP3   OH229958   1.170   1.121   2.073 -0.2053  0.0413 -0.2692
 2848TIP3    H129959   1.122   1.048   2.035  0.3168 -0.3843 -0.1197
 2848TIP3    H229960   1.231   1.149   2.004  0.2912 -0.3124  0.0246
 2849TIP3   OH229961   3.641   4.966  15.366 -0.9830  0.5701 -0.2706
 2849TIP3    H129962   3.602   5.020  15.435 -1.2460 -0.6576  0.5552
 2849TIP3    H229963   3.736   4.978  15.378 -1.0474  1.2827 -0.4463
 2850TIP3   OH229964   2.745   4.889  11.856  0.1101 -0.3776 -0.1006
 2850TIP3    H129965   2.665   4.931  11.887  0.7086  0.8042 -0.1574
 2850TIP3    H229966   2.792   4.863  11.935 -0.0454 -0.5336 -0.0607
 2851TIP3   OH229967   1.272   1.080  13.275  0.0833  0.0732 -0.0540
 2851TIP3    H129968   1.181   1.108  13.267 -0.2734 -0.9303  0.5260
 2851TIP3    H229969   1.281   1.007  13.215  0.0742 -0.8858  1.0937
 2852TIP3   OH229970   4.230   3.104  11.053  0.3340  0.1459  0.2428
 2852TIP3    H129971   4.237   3.199  11.058 -0.2159  0.2982 -1.4500
 2852TIP3    H229972   4.276   3.072  11.130 -0.3412  1.8161  1.3599
 2853TIP3   OH229973   4.666   0.921   5.091 -0.3156 -0.0788 -0.3792
 2853TIP3    H129974   4.602   0.924   5.162 -0.8453 -1.9946 -0.7622
 2853TIP3    H229975   4.648   1.000   5.040 -1.0878  0.3974  0.6090
 2854TIP3   OH229976   1.618   1.022  12.534  0.4326 -0.0378 -0.2955
 2854TIP3    H129977   1.611   1.101  12.481  0.7873  0.7818  0.8704
 2854TIP3    H229978   1.711   1.014  12.553  0.1939  0.2879  1.1047
 2855TIP3   OH229979   0.245   2.001  15.825 -0.2410 -0.2440  0.3573
 2855TIP3    H129980   0.327   2.028  15.867 -0.1597 -0.6465  0.4643
 2855TIP3    H229981   0.250   1.905  15.823 -0.0589 -0.2264 -0.9166
 2856TIP3   OH229982   5.192   6.702  12.780 -0.4768 -0.0359  0.2776
 2856TIP3    H129983   5.232   6.786  12.801 -1.0436  0.0429  1.0683
 2856TIP3    H229984   5.252   6.637  12.816 -0.5368  0.0559  0.5429
 2857TIP3   OH229985   3.671   3.396   0.212  0.5031  0.1872 -0.4272
 2857TIP3    H129986   3.593   3.448   0.235  0.6244 -1.6007  4.6823
 2857TIP3    H229987   3.636   3.317   0.172 -0.2635  0.0886  0.4051
 2858TIP3   OH229988   2.715   3.751   6.577 -0.4248  0.0791  0.1037
 2858TIP3    H129989   2.689   3.680   6.518  0.1965  1.1528 -1.5282
 2858TIP3    H229990   2.671   3.829   6.542  0.5382  0.8710  0.6031
 2859TIP3   OH229991   2.511   1.040  13.968  0.1521  0.7510 -0.2853
 2859TIP3    H129992   2.534   0.987  14.045 -0.9155 -0.4534 -0.7818
 2859TIP3    H229993   2.591   1.088  13.948  1.2466 -0.9094  0.0050
 2860TIP3   OH229994   6.542   5.093  14.325  0.2583  0.4343  0.6041
 2860TIP3    H129995   6.552   5.175  14.275  1.2942  0.2794  0.5589
 2860TIP3    H229996   6.596   5.030  14.278 -1.9460 -0.7615 -0.4123
 2861TIP3   OH229997   3.647   4.430   2.255  0.1904 -0.1217  0.0807
 2861TIP3    H129998   3.578   4.494   2.236  0.5755  0.0537 -0.7258
 2861TIP3    H229999   3.727   4.482   2.264  0.1777 -0.3038  1.2621
 2862TIP3   OH230000   2.820   0.923  15.478 -0.3369 -0.2681  0.6142
 2862TIP3    H130001   2.878   0.852  15.450 -0.5864 -0.6751  1.1296
 2862TIP3    H230002   2.869   1.003  15.458  0.0994 -0.5909  0.3798
 2863TIP3   OH230003   1.120   4.409   0.304  0.3676 -0.1346  0.1952
 2863TIP3    H130004   1.180   4.349   0.260 -0.0745 -1.2056  1.0009
 2863TIP3    H230005   1.048   4.421   0.242  1.2215  0.8354 -0.6113
 2864TIP3   OH230006   3.969   2.229  12.820 -0.2433  0.2414 -0.9810
 2864TIP3    H130007   4.002   2.264  12.738 -0.0305  1.2450 -0.4739
 2864TIP3    H230008   3.889   2.278  12.838 -0.4732 -0.2043 -0.7530
 2865TIP3   OH230009   0.517   1.302  13.171  0.0368 -0.4133  0.3431
 2865TIP3    H130010   0.600   1.349  13.157  0.2445 -0.7482  0.4356
 2865TIP3    H230011   0.514   1.239  13.099 -1.1658  1.0184 -0.9000
 2866TIP3   OH230012   2.382   4.292  11.346  0.3298 -0.0294 -0.0776
 2866TIP3    H130013   2.399   4.226  11.278  0.6372 -0.6104  0.5575
 2866TIP3    H230014   2.288   4.288  11.360  0.2042  0.4052 -0.7882
 2867TIP3   OH230015   2.406   4.442   5.754 -0.0454 -0.7996  0.6543
 2867TIP3    H130016   2.345   4.515   5.741  0.9238 -0.3465 -1.5746
 2867TIP3    H230017   2.352   4.372   5.790 -1.3429  0.4382  1.1855
 2868TIP3   OH230018   0.606   0.074   4.140 -0.3365 -0.0335 -0.0956
 2868TIP3    H130019   0.659   0.072   4.220  1.4399  1.9328 -1.1385
 2868TIP3    H230020   0.636  -0.001   4.089 -0.9838 -0.8887  0.7645
 2869TIP3   OH230021   0.889   0.970   2.560  0.3848 -0.2287 -0.0302
 2869TIP3    H130022   0.958   0.940   2.618  0.7170  0.5423 -0.0167
 2869TIP3    H230023   0.921   1.054   2.526 -0.1458 -0.3032 -0.7215
 2870TIP3   OH230024   3.411   1.535  15.374 -0.7535  0.0591  0.4089
 2870TIP3    H130025   3.441   1.622  15.349 -1.7825 -0.2019 -1.8839
 2870TIP3    H230026   3.329   1.523  15.326  0.7256 -3.2439 -1.5114
 2871TIP3   OH230027   4.489   6.261  12.921 -0.1214  0.1041 -0.3979
 2871TIP3    H130028   4.485   6.357  12.920  0.2594  0.1263 -2.5362
 2871TIP3    H230029   4.555   6.240  12.987 -2.3735  1.1873  2.2906
 2872TIP3   OH230030   3.489   1.750  15.207  0.3751  0.1098 -0.2649
 2872TIP3    H130031   3.428   1.807  15.161 -0.7256 -0.3792  0.5723
 2872TIP3    H230032   3.561   1.808  15.232  0.0999  0.7601 -0.9555
 2873TIP3   OH230033   4.077   4.649  16.980  0.5844  0.1090 -0.5914
 2873TIP3    H130034   4.076   4.744  16.991 -3.2721  0.0821  0.0929
 2873TIP3    H230035   4.018   4.633  16.906 -1.8394 -1.9189  1.6565
 2874TIP3   OH230036   5.932   4.073  10.636  0.1161  1.1942 -0.0234
 2874TIP3    H130037   5.937   3.994  10.582  0.6104  0.9657  0.3482
 2874TIP3    H230038   6.013   4.071  10.688 -0.7797  0.9145  1.3984
 2875TIP3   OH230039   0.067   2.172   3.515 -0.3638 -0.1953  0.7951
 2875TIP3    H130040   0.137   2.234   3.531 -0.4589  0.3603 -0.8437
 2875TIP3    H230041   0.089   2.131   3.431 -1.4237 -0.8027  0.7999
 2876TIP3   OH230042   0.703   4.208  16.304 -0.0623  0.0590 -0.1541
 2876TIP3    H130043   0.627   4.150  16.293  0.2687 -0.6815  1.3063
 2876TIP3    H230044   0.669   4.285  16.349 -0.3088  0.5719 -1.2059
 2877TIP3   OH230045   1.820   5.954  14.520 -0.1330 -0.0426 -0.0774
 2877TIP3    H130046   1.819   5.977  14.612  0.0729 -1.2063  0.2229
 2877TIP3    H230047   1.836   6.036  14.474  2.0501  0.1539  1.0259
 2878TIP3   OH230048   1.798   2.235  16.955 -0.1330 -0.7008 -0.1100
 2878TIP3    H130049   1.715   2.258  16.914  0.0124  3.0688  1.4769
 2878TIP3    H230050   1.864   2.254  16.888 -0.3157 -0.7754 -0.3144
 2879TIP3   OH230051   3.626   0.792   3.079  0.4174 -0.4246  0.0965
 2879TIP3    H130052   3.659   0.879   3.057  0.3782 -0.0610  1.3897
 2879TIP3    H230053   3.627   0.790   3.175 -1.6122 -1.0640  0.1302
 2880TIP3   OH230054   3.933   0.975   5.233 -0.1916 -0.7929 -0.1884
 2880TIP3    H130055   3.921   1.064   5.202  0.9119 -1.0604 -1.4117
 2880TIP3    H230056   4.028   0.965   5.243 -0.4564 -0.8831  2.8117
 2881TIP3   OH230057   0.300   0.675  11.243  0.0760  0.1258  0.4220
 2881TIP3    H130058   0.328   0.671  11.335 -0.7411  1.0075  0.7125
 2881TIP3    H230059   0.366   0.623  11.196  0.8849  0.2448  1.4108
 2882TIP3   OH230060   0.059   2.984  11.983 -0.1329  0.1457  0.8155
 2882TIP3    H130061   0.108   2.987  11.900 -0.8154  1.3439  0.4435
 2882TIP3    H230062   0.119   3.021  12.048 -0.0814  0.4466  0.5979
 2883TIP3   OH230063   2.713   5.567   2.854  0.4406 -0.2721  0.0856
 2883TIP3    H130064   2.647   5.544   2.789  0.1498  1.7636 -0.3874
 2883TIP3    H230065   2.684   5.651   2.889  0.8117 -1.1460  2.5980
 2884TIP3   OH230066   0.243   4.201  15.847  0.2535 -0.8105 -0.2056
 2884TIP3    H130067   0.173   4.227  15.787 -0.2425 -0.2768  0.5917
 2884TIP3    H230068   0.215   4.117  15.882  0.2628 -0.8418 -0.2733
 2885TIP3   OH230069   3.077   0.803   5.973  0.2115  0.2607  0.3127
 2885TIP3    H130070   3.034   0.766   6.050  1.2652  0.4406  1.0037
 2885TIP3    H230071   3.121   0.728   5.931 -0.5214  0.1279 -0.2304
 2886TIP3   OH230072   6.421   6.242  11.686 -0.0694  0.4740 -0.6712
 2886TIP3    H130073   6.469   6.160  11.678 -2.0239 -0.6576 -1.1190
 2886TIP3    H230074   6.469   6.303  11.631  1.8037 -0.1613  0.1980
 2887TIP3   OH230075   6.558   1.865  15.153 -0.2237 -0.1523 -0.0120
 2887TIP3    H130076   6.548   1.945  15.205 -0.0012 -0.0528 -0.1251
 2887TIP3    H230077   6.550   1.794  15.217  3.1532  0.0248  0.6694
 2888TIP3   OH230078   5.948   5.445   0.924 -0.2228 -0.4456 -0.6716
 2888TIP3    H130079   5.915   5.384   0.858 -0.6843  0.2827 -1.1140
 2888TIP3    H230080   5.890   5.432   0.999 -0.1283 -0.7704 -0.6504
 2889TIP3   OH230081   5.137   4.301  12.520  0.3893  0.5499  0.7838
 2889TIP3    H130082   5.190   4.343  12.452  2.2524 -0.2698  1.6814
 2889TIP3    H230083   5.200   4.279  12.588 -1.3266  0.6104  2.4150
 2890TIP3   OH230084   4.043   2.029  13.779 -0.4928 -0.5320  0.0085
 2890TIP3    H130085   3.969   2.079  13.744 -1.1678 -0.7638  1.0585
 2890TIP3    H230086   4.073   2.081  13.854  1.0259  0.0373 -0.9702
 2891TIP3   OH230087   6.509   1.170   3.660 -0.1104 -0.2320 -0.3726
 2891TIP3    H130088   6.479   1.154   3.570  0.8571 -2.8285 -0.2698
 2891TIP3    H230089   6.580   1.233   3.651 -0.3660 -0.0730 -1.3721
 2892TIP3   OH230090   0.133   6.569  12.199  0.1628 -0.2594 -0.2590
 2892TIP3    H130091   0.088   6.487  12.181 -2.2782  0.6383  1.5005
 2892TIP3    H230092   0.169   6.558  12.287 -1.9564  1.2707  0.8323
 2893TIP3   OH230093   2.858   3.391   5.820  0.2586 -0.0201 -0.4602
 2893TIP3    H130094   2.904   3.473   5.835  1.4598 -0.6595 -0.6004
 2893TIP3    H230095   2.842   3.356   5.907 -1.7870  1.1783 -0.3225
 2894TIP3   OH230096   1.277   2.312  14.307 -0.1329  0.4365 -0.2827
 2894TIP3    H130097   1.360   2.268  14.320 -0.8951 -0.0694  3.4806
 2894TIP3    H230098   1.223   2.249  14.258  0.6283 -0.5502  0.1365
 2895TIP3   OH230099   4.351   3.874  17.026 -0.5645 -0.6579 -0.6284
 2895TIP3    H130100   4.425   3.850  16.970 -0.0083 -0.6884  0.0994
 2895TIP3    H230101   4.355   3.811  17.098  0.0248  0.7014  0.5562
 2896TIP3   OH230102   3.030   4.854   2.873 -0.5277  0.2001 -0.6633
 2896TIP3    H130103   3.037   4.811   2.788 -3.4541  0.7982 -1.2694
 2896TIP3    H230104   3.102   4.917   2.875 -0.3633  0.0903 -2.6464
 2897TIP3   OH230105   5.933   0.909  16.058  0.1750 -0.3959 -0.3915
 2897TIP3    H130106   5.951   0.904  15.964 -2.3527 -0.2963 -0.8998
 2897TIP3    H230107   5.935   1.003  16.077  0.5164 -0.4059 -0.3728
 2898TIP3   OH230108   2.838   4.971  12.948  0.2714 -0.5321  0.2721
 2898TIP3    H130109   2.908   5.034  12.930 -1.1428  0.9888 -0.0549
 2898TIP3    H230110   2.791   4.963  12.865  1.1340 -2.9692 -0.0326
 2899TIP3   OH230111   4.032   4.546  13.962 -0.0918  0.1739 -0.5408
 2899TIP3    H130112   3.973   4.487  13.915  0.1491  1.0057 -1.9236
 2899TIP3    H230113   4.119   4.506  13.949 -0.2524 -0.6895  0.9303
 2900TIP3   OH230114   1.792   5.487   3.299  0.1003  0.6468 -0.4382
 2900TIP3    H130115   1.733   5.439   3.240  0.1788 -0.7662  0.6051
 2900TIP3    H230116   1.867   5.509   3.244 -1.8754  3.5475 -2.1183
 2901TIP3   OH230117   2.657   6.360   1.780  0.0496 -0.0829  0.3144
 2901TIP3    H130118   2.597   6.286   1.794 -2.1058  1.5821  0.0389
 2901TIP3    H230119   2.688   6.382   1.868  0.0539 -0.7550  0.4895
 2902TIP3   OH230120   2.846   5.077   5.819 -0.0333  0.1479 -0.1154
 2902TIP3    H130121   2.756   5.053   5.840  0.7518 -1.2690  1.8040
 2902TIP3    H230122   2.895   5.058   5.899  2.1860 -0.3444 -1.5456
 2903TIP3   OH230123   6.586   4.810  14.443 -0.0440  0.6284  0.0143
 2903TIP3    H130124   6.567   4.737  14.502  1.9132 -0.4594 -0.6422
 2903TIP3    H230125   6.507   4.818  14.389 -0.3327 -0.9650  0.1606
 2904TIP3   OH230126   5.066   5.849   1.796  0.0405  0.7903 -0.1593
 2904TIP3    H130127   5.119   5.771   1.810 -0.8150 -0.2339 -2.2817
 2904TIP3    H230128   4.976   5.817   1.798 -0.2602  1.2821 -3.1963
 2905TIP3   OH230129   1.727   6.716   5.039  0.8284 -0.0723  0.1967
 2905TIP3    H130130   1.729   6.625   5.010  2.8679  0.1338 -0.3842
 2905TIP3    H230131   1.663   6.758   4.982  1.4806 -0.6623 -0.9843
 2906TIP3   OH230132   1.872   1.723   2.749 -0.0052  0.2943  0.1227
 2906TIP3    H130133   1.885   1.653   2.685 -0.5808 -0.4497  0.8112
 2906TIP3    H230134   1.777   1.730   2.758  0.0748 -1.5198  2.9472
 2907TIP3   OH230135   6.007   5.591  16.442 -0.2159 -0.5285  0.1280
 2907TIP3    H130136   6.007   5.685  16.464  0.1205 -0.1991 -1.2440
 2907TIP3    H230137   6.042   5.549  16.520  0.0027  0.5328  0.6209
 2908TIP3   OH230138   6.715   4.858   2.106  0.1481  0.3833  0.5449
 2908TIP3    H130139   6.773   4.810   2.166 -1.5372 -0.7305  1.3070
 2908TIP3    H230140   6.642   4.886   2.161 -1.5584 -0.8846 -1.0351
 2909TIP3   OH230141   2.403   0.699  10.923  0.2958 -0.2355 -0.5641
 2909TIP3    H130142   2.322   0.648  10.914  0.0849 -0.0335  0.1529
 2909TIP3    H230143   2.442   0.698  10.836 -0.8070  0.2113 -1.0714
 2910TIP3   OH230144   5.065   5.471  15.728 -0.7175 -0.2131 -0.1691
 2910TIP3    H130145   5.099   5.474  15.817  0.3383  1.4634 -0.5998
 2910TIP3    H230146   4.998   5.403  15.730  1.1695 -2.0808  1.2163
 2911TIP3   OH230147   4.951   2.794  10.753  0.3769 -0.1275  0.2466
 2911TIP3    H130148   4.992   2.710  10.730 -1.3214 -1.2472  1.2532
 2911TIP3    H230149   4.899   2.817  10.675  3.7660  1.9371 -1.5597
 2912TIP3   OH230150   2.798   0.337   2.275  0.3180  0.4869 -0.2453
 2912TIP3    H130151   2.810   0.322   2.368  0.3031  0.3418 -0.2675
 2912TIP3    H230152   2.869   0.290   2.232 -1.7949 -2.6018 -0.5388
 2913TIP3   OH230153   4.217   3.525  16.494  0.1591  0.2285 -0.6572
 2913TIP3    H130154   4.210   3.436  16.459 -0.2366 -0.0523  0.1098
 2913TIP3    H230155   4.177   3.519  16.582 -0.1270  1.2215 -0.7132
 2914TIP3   OH230156   1.496   0.114  12.150  0.1355  0.9082  0.0618
 2914TIP3    H130157   1.555   0.094  12.222 -0.3228  3.7616  1.3043
 2914TIP3    H230158   1.477   0.029  12.110  1.3321 -0.5829  2.5440
 2915TIP3   OH230159   4.480   5.680   3.076 -0.0579 -0.7678 -0.5246
 2915TIP3    H130160   4.469   5.651   2.986  1.0674  0.4314 -1.0665
 2915TIP3    H230161   4.406   5.641   3.123 -1.3248 -0.4301 -2.1859
 2916TIP3   OH230162   4.147   4.885   1.130  0.1177  0.3867 -0.0495
 2916TIP3    H130163   4.154   4.795   1.100  2.0257  0.0507  1.3333
 2916TIP3    H230164   4.097   4.929   1.061  0.9977 -1.2306 -1.7816
 2917TIP3   OH230165   0.656   4.691   4.155 -0.4919  0.2247  0.3671
 2917TIP3    H130166   0.578   4.637   4.157  0.0638 -0.5398  3.4676
 2917TIP3    H230167   0.729   4.629   4.150  0.0063  0.8143  0.1795
 2918TIP3   OH230168   5.413   2.839  16.820 -0.0611  0.3329  0.2671
 2918TIP3    H130169   5.387   2.758  16.863  0.0249  0.3346  0.3241
 2918TIP3    H230170   5.331   2.875  16.786  0.1338 -0.6692 -1.3121
 2919TIP3   OH230171   6.065   5.818  12.528  0.0115  0.3269  0.0200
 2919TIP3    H130172   5.988   5.876  12.521  0.4847  1.0890  1.0320
 2919TIP3    H230173   6.126   5.852  12.464  0.3557  1.0597  0.7325
 2920TIP3   OH230174   3.869   2.922   2.793 -0.2223  0.5625 -0.7944
 2920TIP3    H130175   3.846   2.945   2.703  1.2655 -1.2053 -1.6487
 2920TIP3    H230176   3.959   2.952   2.802 -1.0261  2.6466  0.8268
 2921TIP3   OH230177   2.385   5.710   4.872 -0.1854  0.1679  0.2765
 2921TIP3    H130178   2.325   5.724   4.799  0.2901  0.8543  0.0056
 2921TIP3    H230179   2.328   5.694   4.947 -0.7994  2.9934  0.4717
 2922TIP3   OH230180   2.508   2.536  12.990  0.1808 -0.4398 -0.4237
 2922TIP3    H130181   2.603   2.544  12.999  0.4056 -1.0180 -2.0687
 2922TIP3    H230182   2.491   2.551  12.897 -1.0464 -2.9115 -0.6477
 2923TIP3   OH230183   3.184   5.323  11.877  0.4163  0.3805  0.0881
 2923TIP3    H130184   3.112   5.349  11.934 -0.4464 -0.2826 -0.6932
 2923TIP3    H230185   3.215   5.405  11.838  1.0568  0.8426  1.5497
 2924TIP3   OH230186   2.552   5.843  11.928  0.0008 -0.0537 -0.0440
 2924TIP3    H130187   2.534   5.911  11.993 -1.4768 -1.0767  0.6414
 2924TIP3    H230188   2.648   5.834  11.929  0.3820  3.2088 -1.4053
 2925TIP3   OH230189   0.193   2.892   6.442  0.3218 -0.3831  0.1091
 2925TIP3    H130190   0.253   2.819   6.458  0.0698 -0.1136  2.4529
 2925TIP3    H230191   0.187   2.897   6.346  1.1294 -2.7783 -0.1143
 2926TIP3   OH230192   6.632   3.496   2.176  0.0087 -0.0382  0.1809
 2926TIP3    H130193   6.556   3.502   2.232  0.2214  1.4556  0.3342
 2926TIP3    H230194   6.603   3.445   2.101 -0.4116 -1.6214  1.3991
 2927TIP3   OH230195   1.095   3.800   5.015  0.5778 -0.3747 -0.1026
 2927TIP3    H130196   1.169   3.782   5.073 -0.0324  0.3030  0.9031
 2927TIP3    H230197   1.031   3.733   5.036  1.3721 -1.7209 -1.8469
 2928TIP3   OH230198   5.177   5.023  12.962 -0.2017 -0.3766 -0.0677
 2928TIP3    H130199   5.115   5.095  12.964  0.0614 -0.1673  0.4053
 2928TIP3    H230200   5.263   5.064  12.961 -0.0500 -0.6796  0.1711
 2929TIP3   OH230201   2.894   1.438  11.486  0.0120 -0.3700  1.0465
 2929TIP3    H130202   2.892   1.434  11.391  1.9878  0.1070  0.9723
 2929TIP3    H230203   2.858   1.524  11.507 -0.0768 -0.3257  0.7179
 2930TIP3   OH230204   1.793   6.465   0.908  0.0940  0.1444 -0.5422
 2930TIP3    H130205   1.753   6.547   0.879 -0.5271 -0.8222 -2.5022
 2930TIP3    H230206   1.741   6.438   0.983  0.2501  1.4784  0.0768
 2931TIP3   OH230207   6.501   3.070   2.173  0.3089 -0.2374  0.4613
 2931TIP3    H130208   6.503   3.085   2.267 -0.7675 -2.3172  0.8519
 2931TIP3    H230209   6.592   3.080   2.144  0.3064  2.6368  1.3150
 2932TIP3   OH230210   6.698   6.279  12.106 -0.2402 -1.2247  0.5901
 2932TIP3    H130211   6.727   6.190  12.089  0.0977 -0.7971 -1.1978
 2932TIP3    H230212   6.631   6.296  12.040 -1.6377 -0.7824  2.0910
 2933TIP3   OH230213   4.359   4.113   4.993  0.1367  0.2459 -0.1454
 2933TIP3    H130214   4.415   4.039   5.016 -0.4866 -0.4726 -0.9161
 2933TIP3    H230215   4.402   4.154   4.917  0.3977  0.5839  0.1827
 2934TIP3   OH230216   4.399   3.425   5.453 -0.0210 -0.0518 -0.3718
 2934TIP3    H130217   4.314   3.465   5.434 -0.2344 -1.1015 -1.7416
 2934TIP3    H230218   4.413   3.441   5.546 -2.9573 -2.1491  0.5226
 2935TIP3   OH230219   0.445   2.781  16.848  0.2193 -0.0509 -0.1036
 2935TIP3    H130220   0.488   2.723  16.911 -0.5557 -0.2824  0.2269
 2935TIP3    H230221   0.509   2.850  16.830  1.5446 -1.5444 -1.2646
 2936TIP3   OH230222   2.703   2.253  15.968 -0.8069 -0.4741 -0.3498
 2936TIP3    H130223   2.671   2.341  15.990 -1.6958 -0.9499  0.3097
 2936TIP3    H230224   2.628   2.196  15.984 -0.0241 -1.4416 -0.0926
 2937TIP3   OH230225   1.352   1.895  14.485 -0.5010 -0.3934  0.0367
 2937TIP3    H130226   1.316   1.925  14.568  0.3766 -0.5743  0.4898
 2937TIP3    H230227   1.363   1.975  14.433 -1.5781 -0.3431 -0.1211
 2938TIP3   OH230228   0.952   0.343  13.687  0.0649 -0.1326 -0.0055
 2938TIP3    H130229   0.887   0.379  13.626  0.5920 -0.2438 -0.6308
 2938TIP3    H230230   1.007   0.417  13.710 -0.7229  0.1213  1.0964
 2939TIP3   OH230231   5.534   3.431  14.999 -0.0829 -0.0565 -0.0396
 2939TIP3    H130232   5.546   3.517  14.960  0.5487  0.2461  0.8089
 2939TIP3    H230233   5.480   3.448  15.077  0.5456 -0.3344  0.4662
 2940TIP3   OH230234   5.287   3.835   1.166  0.0078  0.7547 -0.3245
 2940TIP3    H130235   5.302   3.928   1.185  0.9465  0.5995 -0.2863
 2940TIP3    H230236   5.325   3.822   1.079 -0.2675  0.4390 -0.3984
 2941TIP3   OH230237   5.890   4.274  10.477  0.5443  1.0364  0.6100
 2941TIP3    H130238   5.903   4.201  10.537 -0.9944  1.6156  1.6771
 2941TIP3    H230239   5.829   4.242  10.411  1.5097  0.6988 -0.1297
 2942TIP3   OH230240   4.905   1.680  12.552 -0.0317 -0.1978 -0.6102
 2942TIP3    H130241   4.972   1.614  12.536  0.5915  0.2426  0.1853
 2942TIP3    H230242   4.914   1.741  12.479  0.6421  0.0291 -0.3431
 2943TIP3   OH230243   3.777   1.737  14.039  0.0172  0.3370  0.8088
 2943TIP3    H130244   3.746   1.819  14.077 -1.6525 -0.0816  0.3701
 2943TIP3    H230245   3.749   1.669  14.100  0.5305 -0.0024  0.6734
 2944TIP3   OH230246   3.792   0.460  13.939  0.0084  0.3754  0.5537
 2944TIP3    H130247   3.825   0.446  14.028 -2.4187 -0.2048  1.4094
 2944TIP3    H230248   3.700   0.483  13.952 -0.2900  0.5811 -1.8163
 2945TIP3   OH230249   1.497   1.684  11.741  0.1981  0.1264 -0.1640
 2945TIP3    H130250   1.442   1.610  11.714 -0.1996  0.1829  0.4883
 2945TIP3    H230251   1.581   1.667  11.699 -0.4255  0.2427 -1.5100
 2946TIP3   OH230252   2.251   6.184   1.887  0.0888 -0.3531 -0.2487
 2946TIP3    H130253   2.175   6.133   1.915  0.7492  0.0609  2.4724
 2946TIP3    H230254   2.214   6.251   1.829 -1.7491  0.1870  1.4604
 2947TIP3   OH230255   0.018   2.400   1.897 -0.2633  0.4486  0.0872
 2947TIP3    H130256   0.064   2.470   1.853  0.0581 -0.7361 -1.5069
 2947TIP3    H230257  -0.067   2.395   1.852  0.3592 -1.2628 -0.9552
 2948TIP3   OH230258   0.261   0.132   0.396  0.0685  0.2635  0.1387
 2948TIP3    H130259   0.341   0.162   0.353  0.3276  1.7436  1.6225
 2948TIP3    H230260   0.247   0.194   0.468 -0.9708 -1.4985  1.5053
 2949TIP3   OH230261   3.228   5.659   2.330  0.0761  0.3542 -0.7384
 2949TIP3    H130262   3.318   5.691   2.323  0.4869 -0.1592  1.9425
 2949TIP3    H230263   3.185   5.722   2.387 -1.1917  0.3531 -1.6784
 2950TIP3   OH230264   2.777   0.999  11.087  0.5191 -0.6011  0.5461
 2950TIP3    H130265   2.795   0.908  11.114 -0.5088 -0.8483  0.4192
 2950TIP3    H230266   2.803   1.002  10.995  0.1862 -0.8865  0.4381
 2951TIP3   OH230267   2.277   2.469  12.060 -0.2179  0.3173  0.4917
 2951TIP3    H130268   2.291   2.555  12.021 -0.1116 -0.4871 -1.2928
 2951TIP3    H230269   2.321   2.474  12.145  0.6708  1.6884 -0.0296
 2952TIP3   OH230270   5.842   4.381  15.003  0.1556  0.2242 -0.6537
 2952TIP3    H130271   5.826   4.365  15.096 -1.9758 -1.2864 -1.2554
 2952TIP3    H230272   5.915   4.444  15.002  0.9950 -0.6251  2.0019
 2953TIP3   OH230273   2.376   2.100   2.520 -0.4017 -0.0173 -0.4487
 2953TIP3    H130274   2.305   2.163   2.510  0.0722  0.2811 -1.9930
 2953TIP3    H230275   2.412   2.118   2.606 -2.9125 -0.9184  0.8533
 2954TIP3   OH230276   5.738   4.169   5.496 -0.1591  0.3485  0.0033
 2954TIP3    H130277   5.825   4.138   5.472 -0.0487 -0.0319  0.8788
 2954TIP3    H230278   5.731   4.150   5.589 -0.2235  2.6018  0.5042
 2955TIP3   OH230279   1.785   1.947   6.434  0.4599 -0.8098  0.0644
 2955TIP3    H130280   1.806   2.014   6.499 -0.6851 -0.6545  0.2759
 2955TIP3    H230281   1.871   1.920   6.400  1.0094 -0.1920  0.9227
 2956TIP3   OH230282   6.768   2.236  12.715 -0.9063  0.8094 -0.2183
 2956TIP3    H130283   6.676   2.242  12.743 -1.1382  0.3807 -0.8890
 2956TIP3    H230284   6.805   2.167  12.769 -1.7361 -1.0525 -1.9639
 2957TIP3   OH230285   0.428   5.306   2.574 -0.1958 -0.1982 -0.3065
 2957TIP3    H130286   0.363   5.331   2.640 -1.1520 -0.2535 -1.2143
 2957TIP3    H230287   0.415   5.212   2.562  1.2483 -0.5347  0.7964
 2958TIP3   OH230288   5.741   5.652  16.427  0.4865 -0.2157 -0.1741
 2958TIP3    H130289   5.826   5.608  16.427  1.0329  0.7945 -2.1008
 2958TIP3    H230290   5.754   5.730  16.481  1.2692  0.7618 -1.7146
 2959TIP3   OH230291   1.098   5.386  15.915  0.2205  0.5429 -0.0014
 2959TIP3    H130292   1.085   5.452  15.982 -0.1497  1.4353 -0.9392
 2959TIP3    H230293   1.101   5.303  15.963 -1.9483  0.9759  0.9240
 2960TIP3   OH230294   1.959   4.196   3.630  0.0748 -0.6556 -0.4837
 2960TIP3    H130295   1.930   4.161   3.546 -0.3730  0.6243 -0.8558
 2960TIP3    H230296   2.034   4.251   3.609 -1.4838  1.5786 -0.3418
 2961TIP3   OH230297   2.579   5.853  16.376 -0.1389 -0.3244  0.8370
 2961TIP3    H130298   2.619   5.769  16.354 -2.9788 -1.2973 -0.7663
 2961TIP3    H230299   2.489   5.832  16.400 -0.8256  2.2421  0.6768
 2962TIP3   OH230300   6.249   5.617   2.406  0.9664  0.0332  0.5347
 2962TIP3    H130301   6.205   5.699   2.382  1.9652  1.0921  2.2914
 2962TIP3    H230302   6.204   5.550   2.353 -1.9204  1.2511  1.3496
 2963TIP3   OH230303   1.606   2.851  10.850  0.3450 -0.2703 -0.0317
 2963TIP3    H130304   1.602   2.799  10.770 -0.7481 -0.9845  0.4768
 2963TIP3    H230305   1.695   2.885  10.852 -0.1250  1.2303 -2.4781
 2964TIP3   OH230306   1.823   1.977   2.191  0.0345 -0.3864 -0.9081
 2964TIP3    H130307   1.807   2.071   2.182  0.0425 -0.4453 -1.6063
 2964TIP3    H230308   1.869   1.953   2.110 -1.2875 -1.2689 -1.4307
 2965TIP3   OH230309   4.430   4.056   1.376  0.2554  0.4997 -0.6339
 2965TIP3    H130310   4.392   3.968   1.384 -1.4382  1.1536 -1.3153
 2965TIP3    H230311   4.411   4.098   1.460 -1.5097  1.1836 -1.3483
 2966TIP3   OH230312   5.918   0.141  14.460  0.6393 -1.1615  0.2347
 2966TIP3    H130313   5.861   0.127  14.385 -0.1288  1.5774  0.2519
 2966TIP3    H230314   5.860   0.172  14.529  1.2067 -4.3554  2.2837
 2967TIP3   OH230315   3.607   4.873  16.241  0.0463  0.1585 -0.0027
 2967TIP3    H130316   3.625   4.940  16.175 -1.0654 -0.4066 -0.8739
 2967TIP3    H230317   3.597   4.792  16.192  0.9519 -0.5939  1.0217
 2968TIP3   OH230318   4.710   5.290   5.222  0.0976 -0.2157  0.7259
 2968TIP3    H130319   4.660   5.237   5.159 -0.8493 -1.7304  2.6890
 2968TIP3    H230320   4.800   5.261   5.212 -0.0881 -0.6409  0.2560
 2969TIP3   OH230321   3.153   5.525   6.211  0.0800  0.7390  0.0268
 2969TIP3    H130322   3.159   5.621   6.209  3.2324  0.5721 -1.2095
 2969TIP3    H230323   3.185   5.501   6.297  0.3891  0.7319 -0.0907
 2970TIP3   OH230324   5.104   0.630  14.720  0.4237  0.3924 -0.2812
 2970TIP3    H130325   5.082   0.572  14.647  1.2977 -0.3744  0.0421
 2970TIP3    H230326   5.198   0.648  14.709  0.2500  1.4017 -0.1307
 2971TIP3   OH230327   0.880   6.497  13.594 -0.4266  0.8867  0.2140
 2971TIP3    H130328   0.946   6.516  13.528 -0.4242 -1.7653 -0.5854
 2971TIP3    H230329   0.850   6.583  13.623  2.6539  2.1218 -0.1004
 2972TIP3   OH230330   3.025   4.286   5.705  0.0556  0.2512  0.0489
 2972TIP3    H130331   3.067   4.210   5.746  1.3808 -0.8923 -3.2882
 2972TIP3    H230332   3.078   4.303   5.627 -3.2249  1.4304 -1.9938
 2973TIP3   OH230333   1.866   5.134   1.942  0.5964 -0.0289 -0.2014
 2973TIP3    H130334   1.792   5.136   1.881 -0.6111 -1.8551  1.1632
 2973TIP3    H230335   1.937   5.094   1.892  0.0406 -0.2088 -0.8571
 2974TIP3   OH230336   0.460   4.385  14.234 -0.1148 -0.3781  0.0621
 2974TIP3    H130337   0.498   4.298  14.217  0.0307 -0.5913  1.3724
 2974TIP3    H230338   0.470   4.432  14.152  1.5907 -0.9600 -0.0966
 2975TIP3   OH230339   3.002   3.865   0.862 -0.1301  0.0683  0.1471
 2975TIP3    H130340   3.094   3.885   0.880 -0.4333  2.2488 -0.5576
 2975TIP3    H230341   2.986   3.903   0.776 -1.5945 -0.6065  0.1222
 2976TIP3   OH230342   1.069   0.764  11.502 -0.7567 -0.1681 -0.3239
 2976TIP3    H130343   1.017   0.687  11.526 -0.4808 -0.4043 -0.4772
 2976TIP3    H230344   1.142   0.764  11.564 -0.8651  0.0849 -0.1964
 2977TIP3   OH230345   5.103   1.504  12.492 -0.0519 -0.5379  0.1438
 2977TIP3    H130346   5.077   1.429  12.437  1.9478 -1.9326  1.0558
 2977TIP3    H230347   5.177   1.543  12.445  0.0570 -0.2284  0.5780
 2978TIP3   OH230348   3.466   3.193  14.748  0.0319  0.0974 -0.1149
 2978TIP3    H130349   3.440   3.231  14.664 -0.3308  0.8270  0.3189
 2978TIP3    H230350   3.451   3.099  14.737 -2.5209  0.4484 -0.0142
 2979TIP3   OH230351   1.631   2.924   0.632  0.4054  0.1089 -0.2454
 2979TIP3    H130352   1.719   2.900   0.662  0.4830  1.2718  0.5008
 2979TIP3    H230353   1.631   2.902   0.539  0.9507 -1.3720  0.0844
 2980TIP3   OH230354   6.050   5.837  12.231  0.6244  0.5706 -0.2529
 2980TIP3    H130355   6.025   5.778  12.301 -0.2993 -1.0705 -1.9178
 2980TIP3    H230356   6.139   5.865  12.252  0.6138 -0.4709  1.1686
 2981TIP3   OH230357   3.103   3.080   0.470 -0.7417 -0.1473  0.9591
 2981TIP3    H130358   3.124   3.061   0.561 -2.1620  0.4718  1.4323
 2981TIP3    H230359   3.019   3.036   0.455 -0.3248 -0.5738 -0.1668
 2982TIP3   OH230360   2.913   1.334   4.057 -0.4234  0.4631 -0.3255
 2982TIP3    H130361   2.990   1.322   4.003 -0.2365 -0.6198  0.1709
 2982TIP3    H230362   2.941   1.312   4.146 -1.4521 -0.5919 -0.2372
 2983TIP3   OH230363   0.458   3.655  16.317  0.7093 -0.5638  0.2349
 2983TIP3    H130364   0.432   3.572  16.275 -1.7502 -0.0316  0.5890
 2983TIP3    H230365   0.455   3.719  16.246  0.2882 -0.3517  0.4454
 2984TIP3   OH230366   5.672   1.514  12.354 -0.2086  0.3118  0.2864
 2984TIP3    H130367   5.696   1.521  12.447 -0.3271  1.1798  0.2572
 2984TIP3    H230368   5.724   1.582  12.311 -0.4316  0.1540 -0.2317
 2985TIP3   OH230369   2.064   6.641   1.458 -0.2907 -0.1525 -0.5914
 2985TIP3    H130370   2.109   6.623   1.540  0.6965 -0.7686 -1.2625
 2985TIP3    H230371   1.974   6.610   1.473 -0.9651  2.4617  1.2728
 2986TIP3   OH230372   5.263   5.359  11.051 -0.5421  0.2608 -0.0368
 2986TIP3    H130373   5.231   5.443  11.083  1.9226  0.7849  1.1441
 2986TIP3    H230374   5.289   5.375  10.961 -1.2335  0.4595 -0.1983
 2987TIP3   OH230375   6.717   0.434   4.373  0.7404 -0.1878  0.2626
 2987TIP3    H130376   6.736   0.473   4.287 -1.0656 -0.2630 -0.1881
 2987TIP3    H230377   6.803   0.416   4.410  1.5648 -0.9538 -1.8997
 2988TIP3   OH230378   6.235   0.204   2.707 -0.0402  0.2123 -0.1978
 2988TIP3    H130379   6.149   0.222   2.668 -0.9111 -0.5328  1.3554
 2988TIP3    H230380   6.298   0.227   2.637 -1.5279 -0.5192 -1.8102
 2989TIP3   OH230381   1.626   4.815   1.729 -0.3319  0.2018  0.0354
 2989TIP3    H130382   1.644   4.734   1.682  2.0042  0.8587 -0.2515
 2989TIP3    H230383   1.678   4.810   1.809 -0.9403  0.9790  0.4907
 2990TIP3   OH230384   3.898   2.628   2.826  0.7492 -0.2654 -0.1201
 2990TIP3    H130385   3.928   2.719   2.825 -0.5802  0.1856  0.2460
 2990TIP3    H230386   3.961   2.582   2.770  0.7391  1.0842 -1.2858
 2991TIP3   OH230387   4.745   6.401  12.032 -0.2051 -0.2348  0.0184
 2991TIP3    H130388   4.701   6.485  12.040 -0.8983 -0.4768 -1.1541
 2991TIP3    H230389   4.688   6.349  11.975  2.0923 -0.1707 -2.4551
 2992TIP3   OH230390   4.609   0.091  15.370  0.1670 -0.1168  0.3097
 2992TIP3    H130391   4.542   0.082  15.438  0.2852 -0.0502  0.4374
 2992TIP3    H230392   4.688   0.115  15.419  0.6349 -1.6452  0.3129
 2993TIP3   OH230393   1.430   1.751  12.955  0.1353 -1.1477 -0.0249
 2993TIP3    H130394   1.523   1.729  12.961  0.4518  0.3931  0.7647
 2993TIP3    H230395   1.428   1.846  12.946 -1.3820 -1.1602  0.0658
 2994TIP3   OH230396   2.407   3.812   3.548  0.4035  0.7348 -0.0497
 2994TIP3    H130397   2.398   3.793   3.455 -1.0995 -0.9674  0.4021
 2994TIP3    H230398   2.428   3.905   3.552 -0.3881  1.0218 -2.0586
 2995TIP3   OH230399   0.206   0.445   3.408  0.6752 -0.1581  0.2403
 2995TIP3    H130400   0.260   0.395   3.348 -1.1322 -1.1466 -0.5839
 2995TIP3    H230401   0.196   0.531   3.366  0.1918 -0.5430 -0.4528
 2996TIP3   OH230402   5.868   5.756  12.710  0.4526 -0.0611  0.0123
 2996TIP3    H130403   5.930   5.736  12.640 -1.4048  0.0652 -1.7098
 2996TIP3    H230404   5.907   5.831  12.755 -0.0747  2.2314 -3.1974
 2997TIP3   OH230405   4.861   0.404  12.208 -0.0626 -0.5971  0.4625
 2997TIP3    H130406   4.935   0.378  12.263 -0.0032  0.4003  0.8798
 2997TIP3    H230407   4.901   0.444  12.131 -0.1451 -2.1042 -0.3803
 2998TIP3   OH230408   2.734   6.268  13.622 -0.1228 -0.0729  0.5203
 2998TIP3    H130409   2.733   6.191  13.679 -0.5069 -0.7021 -0.3076
 2998TIP3    H230410   2.826   6.278  13.598 -0.1882 -0.8417 -0.0968
 2999TIP3   OH230411   0.238   0.041  13.198  0.6124 -0.1344  0.5605
 2999TIP3    H130412   0.201  -0.002  13.121 -0.1681  0.6476  0.4915
 2999TIP3    H230413   0.331   0.017  13.197  0.9045  0.9877 -1.3988
 3000TIP3   OH230414   0.114   3.509  15.897 -0.3841  0.3195 -0.1169
 3000TIP3    H130415   0.194   3.521  15.845 -0.2525 -0.7587 -0.1831
 3000TIP3    H230416   0.106   3.414  15.906 -0.3038  0.5034  2.0085
 3001TIP3   OH230417   3.026   2.948  16.509  0.3896  0.3995  0.4417
 3001TIP3    H130418   3.031   3.032  16.464 -0.4316  0.4959  0.5326
 3001TIP3    H230419   2.934   2.939  16.535  0.6190 -0.1943  1.0659
 3002TIP3   OH230420   1.695   5.516  11.333  0.1252 -0.4524 -0.0600
 3002TIP3    H130421   1.647   5.433  11.337 -0.6220 -0.0858 -1.2585
 3002TIP3    H230422   1.706   5.542  11.424 -1.0026 -1.0933  0.2644
 3003TIP3   OH230423   3.392   1.784   6.748 -0.0801  0.3456 -0.2318
 3003TIP3    H130424   3.374   1.731   6.826  0.9271  0.7980  0.3145
 3003TIP3    H230425   3.379   1.724   6.675  1.6958 -0.8674  0.4058
 3004TIP3   OH230426   6.070   5.986  14.961 -0.0946  0.1297  0.1927
 3004TIP3    H130427   6.148   5.938  14.989  0.3256  2.3032  3.0976
 3004TIP3    H230428   6.015   5.921  14.918  1.5683 -2.3272  1.6616
 3005TIP3   OH230429   3.085   4.745   3.649  0.0457  0.0912  0.5789
 3005TIP3    H130430   3.030   4.785   3.582  1.2132  0.2796 -0.2751
 3005TIP3    H230431   3.035   4.668   3.677 -0.1460 -0.3792 -1.0012
 3006TIP3   OH230432   5.024   2.947  16.265 -0.0299 -0.0138 -0.6214
 3006TIP3    H130433   5.090   2.879  16.279  0.4774  0.5438 -0.2933
 3006TIP3    H230434   4.982   2.923  16.182  1.3894  0.2789 -1.4480
 3007TIP3   OH230435   0.927   5.851   1.936 -0.4022  0.4940  0.0182
 3007TIP3    H130436   0.950   5.939   1.967  0.7267  0.3784 -0.4661
 3007TIP3    H230437   0.852   5.826   1.989 -0.8954  1.8582 -0.0030
 3008TIP3   OH230438   1.004   1.633   0.894 -0.1135 -0.4571 -0.5809
 3008TIP3    H130439   0.970   1.704   0.840 -1.4482 -0.9555 -0.4129
 3008TIP3    H230440   1.094   1.659   0.914 -0.1176  0.4711 -1.7418
 3009TIP3   OH230441   3.135   3.765   3.212  0.0467 -0.0931 -0.4998
 3009TIP3    H130442   3.215   3.746   3.164 -1.0066 -1.1994 -1.8589
 3009TIP3    H230443   3.152   3.733   3.301  1.7855  1.4286 -0.2463
 3010TIP3   OH230444   2.292   6.694   2.773  0.0112 -0.2046 -0.3619
 3010TIP3    H130445   2.370   6.749   2.770  0.3316 -0.4569  1.8499
 3010TIP3    H230446   2.325   6.604   2.766 -0.3074 -0.2097 -1.8239
 3011TIP3   OH230447   1.178   2.504  15.204 -0.3685  0.2943 -0.2887
 3011TIP3    H130448   1.083   2.505  15.197 -0.5116  2.2153  1.4751
 3011TIP3    H230449   1.196   2.518  15.297  1.6406  2.2277 -0.9216
 3012TIP3   OH230450   0.123   2.072  13.230  0.6102 -0.2361  0.0963
 3012TIP3    H130451   0.074   2.124  13.293 -0.9986  0.7382 -1.9190
 3012TIP3    H230452   0.088   1.983  13.239 -3.6348  0.9490 -3.2522
 3013TIP3   OH230453   0.653   0.461  11.581  0.3839  0.4225 -0.1429
 3013TIP3    H130454   0.602   0.454  11.662 -0.7023 -2.0353 -0.9871
 3013TIP3    H230455   0.588   0.485  11.514  0.9415  0.6403 -0.6084
 3014TIP3   OH230456   5.442   5.936  15.174 -0.2957 -0.3262 -0.2902
 3014TIP3    H130457   5.403   6.022  15.158 -0.5391 -0.2117  0.8897
 3014TIP3    H230458   5.453   5.932  15.269  0.9256 -1.0708 -0.4485
 3015TIP3   OH230459   3.817   2.958   0.546  0.3431  0.0612 -0.3386
 3015TIP3    H130460   3.811   2.934   0.454  2.1386 -0.3334 -0.3763
 3015TIP3    H230461   3.765   3.038   0.554  0.1326  0.0613 -1.6916
 3016TIP3   OH230462   1.073   1.269  11.029  0.7105 -0.4166 -0.7517
 3016TIP3    H130463   1.026   1.346  10.998 -1.3775 -0.6507  1.6252
 3016TIP3    H230464   1.162   1.278  10.993 -0.2618  1.6532 -2.7410
 3017TIP3   OH230465   0.765   4.854   4.536 -0.2644  0.6720 -0.6742
 3017TIP3    H130466   0.851   4.891   4.519  0.1422 -0.5284 -1.3114
 3017TIP3    H230467   0.766   4.833   4.629  0.9702 -1.3722 -1.1073
 3018TIP3   OH230468   5.256   2.562  15.861 -0.4754  0.4700 -0.1889
 3018TIP3    H130469   5.209   2.484  15.890 -0.5213  0.6456  0.2068
 3018TIP3    H230470   5.276   2.610  15.941 -2.3017  1.9373 -0.5614
 3019TIP3   OH230471   3.575   4.005   0.273  0.3557  0.7493  0.2073
 3019TIP3    H130472   3.668   3.979   0.271  0.4570  0.9305  1.9939
 3019TIP3    H230473   3.544   3.988   0.184  1.7844 -0.4922 -0.0798
 3020TIP3   OH230474   0.435   3.175   2.088  0.8511 -0.0246 -0.8072
 3020TIP3    H130475   0.378   3.245   2.055 -0.6613 -1.6321 -1.6957
 3020TIP3    H230476   0.392   3.094   2.060  1.1021 -1.3957  2.5357
 3021TIP3   OH230477   0.309   4.653   0.557 -0.0530 -0.3084 -0.3835
 3021TIP3    H130478   0.400   4.668   0.581 -0.3420 -0.0926  0.5871
 3021TIP3    H230479   0.263   4.734   0.581 -0.7754 -0.9886  0.6030
 3022TIP3   OH230480   1.125   1.052   1.729 -0.0531  0.1880 -0.6382
 3022TIP3    H130481   1.044   1.079   1.773 -0.2266 -2.1335  0.5409
 3022TIP3    H230482   1.119   1.089   1.641 -1.5231  1.6157  0.0442
 3023TIP3   OH230483   4.465   4.371  11.161 -0.1314 -0.1112 -0.2729
 3023TIP3    H130484   4.510   4.385  11.244 -2.4630  0.6451  0.8950
 3023TIP3    H230485   4.468   4.276  11.149 -0.4450 -0.2966  1.0470
 3024TIP3   OH230486   0.008   2.343  13.317 -0.0338 -0.2685 -0.2699
 3024TIP3    H130487  -0.034   2.375  13.237 -1.0368  1.9219  1.0674
 3024TIP3    H230488   0.101   2.362  13.305 -0.1459 -0.1673 -1.0057
 3025TIP3   OH230489   2.522   1.785   5.550 -0.5636 -0.8845 -0.3330
 3025TIP3    H130490   2.548   1.696   5.528 -2.0364 -1.1647 -0.9835
 3025TIP3    H230491   2.474   1.816   5.474  1.0642  0.9621 -0.6558
 3026TIP3   OH230492   3.876   4.448  11.676 -0.0704 -0.1381  0.2462
 3026TIP3    H130493   3.803   4.448  11.738 -1.2495 -2.2410 -1.0771
 3026TIP3    H230494   3.840   4.490  11.598  0.0867 -1.3144 -0.4580
 3027TIP3   OH230495   2.875   4.228  13.701 -0.1705  0.0045 -0.0906
 3027TIP3    H130496   2.800   4.198  13.750  0.2240  1.1913  1.2682
 3027TIP3    H230497   2.941   4.159  13.713 -0.6738 -0.5399 -0.4260
 3028TIP3   OH230498   5.740   6.269   1.521  0.1966  0.0625  0.9411
 3028TIP3    H130499   5.664   6.314   1.559  1.2050  1.5040  1.2942
 3028TIP3    H230500   5.724   6.177   1.538 -1.4789  0.3495  1.0196
 3029TIP3   OH230501   1.730   1.425   2.891 -0.1835  0.9058 -0.0179
 3029TIP3    H130502   1.703   1.426   2.983  0.3536 -0.5952  0.1699
 3029TIP3    H230503   1.650   1.446   2.843 -1.1017 -0.9259  0.6688
 3030TIP3   OH230504   4.227   2.973   1.876 -0.2492 -0.1428  0.2286
 3030TIP3    H130505   4.237   3.049   1.933 -1.2608  1.1639 -1.2750
 3030TIP3    H230506   4.141   2.938   1.899  0.0742 -0.6520  0.6857
 3031TIP3   OH230507   4.382   4.465   4.349  0.2095  0.6354  0.3335
 3031TIP3    H130508   4.311   4.455   4.285  0.5260  0.8502 -0.0523
 3031TIP3    H230509   4.459   4.485   4.296  0.7149 -0.3310  0.6914
 3032TIP3   OH230510   1.735   3.277   3.805  0.0076  0.2016 -0.4774
 3032TIP3    H130511   1.805   3.211   3.808  0.7336  0.9479 -0.8997
 3032TIP3    H230512   1.775   3.356   3.841 -1.4194 -0.0619  1.8304
 3033TIP3   OH230513   2.327   3.141  13.314  0.3994  0.2952 -0.3676
 3033TIP3    H130514   2.373   3.225  13.312  0.3054  0.4741  2.5078
 3033TIP3    H230515   2.372   3.088  13.249  1.4465  2.0808 -1.1477
 3034TIP3   OH230516   4.891   3.542  15.841 -0.1968  0.2172 -0.2110
 3034TIP3    H130517   4.831   3.486  15.791 -1.2168  1.5380 -0.4732
 3034TIP3    H230518   4.955   3.481  15.877 -0.4860 -0.9661 -1.6504
 3035TIP3   OH230519   1.708   3.748  13.337  0.0140  0.1475  0.3465
 3035TIP3    H130520   1.615   3.759  13.354 -0.3345  0.9733 -1.9298
 3035TIP3    H230521   1.748   3.829  13.368 -0.3746  0.8744 -1.0129
 3036TIP3   OH230522   1.373   6.699  12.036  0.1096  0.3625 -0.1528
 3036TIP3    H130523   1.421   6.625  11.999 -0.7887 -1.5782  2.3824
 3036TIP3    H230524   1.281   6.675  12.030 -0.2694  1.8137 -0.4025
 3037TIP3   OH230525   3.289   4.448  10.896 -0.4751  0.0684  0.6796
 3037TIP3    H130526   3.200   4.479  10.913 -0.4370  0.3335  0.4104
 3037TIP3    H230527   3.280   4.384  10.826 -0.1236  2.3015 -1.4857
 3038TIP3   OH230528   0.477   5.006  16.272  0.3340  0.2756  0.2939
 3038TIP3    H130529   0.433   5.007  16.357 -1.3383  0.7675 -0.5474
 3038TIP3    H230530   0.515   4.918  16.265 -0.1017  0.0080  1.2522
 3039TIP3   OH230531   2.675   0.457  14.027  0.3779 -0.0004  0.6312
 3039TIP3    H130532   2.725   0.428  13.950 -0.8126  1.2726 -0.6454
 3039TIP3    H230533   2.584   0.456  13.998 -0.0310  1.0841  1.8319
 3040TIP3   OH230534   6.594   3.061   2.449 -0.4035  0.2388 -0.0101
 3040TIP3    H130535   6.648   2.982   2.448  1.1510  1.2848 -0.3953
 3040TIP3    H230536   6.586   3.084   2.541 -2.3589 -1.3349  0.2590
 3041TIP3   OH230537   1.882   2.926   6.877 -0.4714  0.6544 -0.3853
 3041TIP3    H130538   1.947   2.964   6.936  0.0635  1.3791 -1.4287
 3041TIP3    H230539   1.904   2.962   6.791 -0.7235 -1.0317 -1.1798
 3042TIP3   OH230540   2.570   1.203   5.755 -0.1095 -0.4109 -0.7819
 3042TIP3    H130541   2.488   1.170   5.717  0.0181  0.1723 -1.5817
 3042TIP3    H230542   2.638   1.146   5.719 -0.2054 -1.1977  0.2585
 3043TIP3   OH230543   2.716   2.063  16.759 -0.1688 -0.2995 -0.2623
 3043TIP3    H130544   2.656   2.080  16.686 -0.4435 -0.9627 -0.1872
 3043TIP3    H230545   2.696   1.974  16.787 -0.3043  0.0743  0.8560
 3044TIP3   OH230546   4.008   1.099  13.576 -0.1663  0.3083 -0.2228
 3044TIP3    H130547   4.073   1.142  13.521  0.3390 -1.0216 -0.6644
 3044TIP3    H230548   3.924   1.127  13.540  0.1259  2.3345  0.5849
 3045TIP3   OH230549   3.739   0.075   2.720  0.5337 -0.3319 -0.4927
 3045TIP3    H130550   3.738   0.094   2.626  0.0490  1.7211 -0.1186
 3045TIP3    H230551   3.760   0.160   2.760  0.1459 -1.0577  1.2648
 3046TIP3   OH230552   3.356   5.376   0.504 -0.2728 -0.1365 -0.2202
 3046TIP3    H130553   3.447   5.345   0.506 -0.3228 -0.2601  2.0316
 3046TIP3    H230554   3.306   5.299   0.477  0.0807 -0.7871  0.8955
 3047TIP3   OH230555   2.083   5.278  16.576  0.7893  0.4256 -0.0391
 3047TIP3    H130556   2.112   5.351  16.522  0.0222  1.0504  0.3790
 3047TIP3    H230557   1.993   5.300  16.599  0.8165 -0.2685  0.7427
 3048TIP3   OH230558   2.139   5.238  15.502  0.1640 -0.5863 -0.0141
 3048TIP3    H130559   2.186   5.238  15.585  3.1740  1.0635 -1.6502
 3048TIP3    H230560   2.077   5.311  15.510  1.1256  0.1999  0.4380
 3049TIP3   OH230561   6.698   1.033   5.895 -0.4815 -0.0561 -0.0891
 3049TIP3    H130562   6.767   0.968   5.886  0.4201  1.1687 -2.6056
 3049TIP3    H230563   6.734   1.099   5.954 -0.2521 -0.3754  0.1283
 3050TIP3   OH230564   1.802   5.534  13.343  0.4380  0.2205  0.0530
 3050TIP3    H130565   1.812   5.459  13.285 -1.5796 -0.5139  0.6375
 3050TIP3    H230566   1.773   5.605  13.286 -0.3660 -0.1814 -0.0442
 3051TIP3   OH230567   0.198   2.578  16.184 -0.3285 -0.0387  0.2237
 3051TIP3    H130568   0.174   2.669  16.204 -0.0716 -0.0803  0.7325
 3051TIP3    H230569   0.135   2.525  16.234 -0.1397 -0.1430  0.3490
 3052TIP3   OH230570   3.520   3.557  15.439 -0.2012  0.3968 -0.1781
 3052TIP3    H130571   3.565   3.541  15.356 -1.6325 -0.4872 -0.8084
 3052TIP3    H230572   3.475   3.475  15.458 -2.2214  1.5195  0.0098
 3053TIP3   OH230573   3.922   3.948  14.253 -0.3256 -0.3294 -0.9179
 3053TIP3    H130574   3.867   3.871  14.236  0.5556 -1.0444 -0.5745
 3053TIP3    H230575   3.862   4.012  14.291 -0.7991 -1.3680  0.1389
 3054TIP3   OH230576   1.099   2.813  14.824 -0.0435 -0.4981 -0.2503
 3054TIP3    H130577   1.194   2.818  14.827  0.1956 -3.2613 -1.7640
 3054TIP3    H230578   1.079   2.722  14.844 -2.3248 -0.1496 -0.8188
 3055TIP3   OH230579   2.542   5.890  13.253 -0.4466 -0.1012 -1.0081
 3055TIP3    H130580   2.608   5.956  13.231 -0.5333  0.2922 -0.1023
 3055TIP3    H230581   2.493   5.928  13.326 -0.8057 -0.9641 -0.7939
 3056TIP3   OH230582   4.379   4.833   5.195 -0.5596 -0.3121  0.3631
 3056TIP3    H130583   4.433   4.774   5.143 -1.0954  0.2262 -0.8250
 3056TIP3    H230584   4.415   4.827   5.283  0.2507 -1.3710 -0.0279
 3057TIP3   OH230585   2.628   1.474   3.310  0.1916 -0.4543  0.2019
 3057TIP3    H130586   2.673   1.498   3.229 -1.0642  0.0409 -0.3658
 3057TIP3    H230587   2.638   1.379   3.316  0.7389 -0.4259 -0.2623
 3058TIP3   OH230588   3.504   5.432  13.069  0.1009  0.7316 -0.0130
 3058TIP3    H130589   3.412   5.407  13.073  0.2801  0.0679  0.0927
 3058TIP3    H230590   3.531   5.439  13.161  0.8010 -1.5705 -0.0012
 3059TIP3   OH230591   1.120   3.351   5.717  0.4195 -0.9137  0.3200
 3059TIP3    H130592   1.069   3.336   5.798  0.1123  0.2263  0.3460
 3059TIP3    H230593   1.166   3.433   5.733 -1.7445  0.7386 -1.6971
 3060TIP3   OH230594   5.269   5.638  15.639  0.3241  0.0851  0.2946
 3060TIP3    H130595   5.177   5.610  15.636 -0.7177  3.4480 -1.8645
 3060TIP3    H230596   5.296   5.639  15.547  1.5792  2.0223  0.6724
 3061TIP3   OH230597   6.279   1.061  13.846 -0.2237 -0.3316  0.1154
 3061TIP3    H130598   6.243   0.976  13.821  1.7250 -0.8611 -1.0884
 3061TIP3    H230599   6.329   1.089  13.769  0.6842  1.0255  1.1618
 3062TIP3   OH230600   4.901   1.136  12.642  0.2090 -0.8087 -0.3387
 3062TIP3    H130601   4.858   1.051  12.656  1.7543 -1.7086 -0.9067
 3062TIP3    H230602   4.913   1.142  12.547  0.7463 -0.2675 -0.2383
 3063TIP3   OH230603   1.758   0.891  12.931  0.2123  0.1279 -0.1363
 3063TIP3    H130604   1.797   0.833  12.865 -1.4632 -0.9439 -0.2313
 3063TIP3    H230605   1.732   0.831  13.002  0.0692  0.9978  0.5463
 3064TIP3   OH230606   1.491   0.980  14.957 -0.4786 -0.5233  0.3050
 3064TIP3    H130607   1.469   0.925  14.881  2.8860 -1.9938  0.3236
 3064TIP3    H230608   1.537   1.055  14.920 -2.8088  1.0972  0.5379
 3065TIP3   OH230609   6.024   2.583   6.148 -0.6912  0.0638  0.5191
 3065TIP3    H130610   6.014   2.639   6.225  1.0837  0.6812  0.3208
 3065TIP3    H230611   5.935   2.570   6.116 -1.2234  1.8245  1.2468
 3066TIP3   OH230612   5.661   6.542  13.890  0.6063 -0.0096 -0.0563
 3066TIP3    H130613   5.665   6.453  13.925  0.9147  0.2401  0.5433
 3066TIP3    H230614   5.744   6.582  13.915 -0.0687  0.8660  0.8086
 3067TIP3   OH230615   5.231   3.333   2.254 -0.5179  0.3155 -0.6009
 3067TIP3    H130616   5.314   3.330   2.301 -0.4479  0.4875 -0.7129
 3067TIP3    H230617   5.193   3.246   2.267  0.1372 -0.0916 -1.3858
 3068TIP3   OH230618   6.723   3.180   3.738 -0.2242  0.0858  0.1071
 3068TIP3    H130619   6.672   3.124   3.680 -0.3389 -0.0007  0.2920
 3068TIP3    H230620   6.719   3.137   3.823 -0.2640  0.3447  0.2365
 3069TIP3   OH230621   6.019   5.321   0.576 -0.2525  0.3717 -0.1100
 3069TIP3    H130622   5.955   5.392   0.576  0.5979  1.1462 -0.2212
 3069TIP3    H230623   6.103   5.365   0.584  0.1783 -0.7294  1.6896
 3070TIP3   OH230624   0.018   0.585   3.042 -0.3488  0.1427 -0.0177
 3070TIP3    H130625   0.019   0.600   2.947  0.6756 -1.4107 -0.2594
 3070TIP3    H230626  -0.000   0.671   3.079  2.3251  1.3940 -1.4950
 3071TIP3   OH230627   6.565   5.105  13.452  0.1509  0.5207  0.1728
 3071TIP3    H130628   6.567   5.043  13.524 -0.5244 -1.0627 -1.1398
 3071TIP3    H230629   6.481   5.090  13.409  0.5397  1.4448 -0.9468
 3072TIP3   OH230630   4.102   4.923  11.109 -0.2405  0.2114 -0.4499
 3072TIP3    H130631   4.185   4.919  11.062 -1.0554 -0.3016 -1.8888
 3072TIP3    H230632   4.063   5.006  11.081 -0.4924  0.1536 -0.2753
 3073TIP3   OH230633   1.037   1.906  14.059 -0.7846  0.7005  0.4312
 3073TIP3    H130634   0.945   1.932  14.052 -0.5053  1.1402 -2.3579
 3073TIP3    H230635   1.047   1.835  13.995  0.7775  0.5550  0.8129
 3074TIP3   OH230636   1.412   6.362   0.901  0.1096  0.0148  0.0742
 3074TIP3    H130637   1.437   6.446   0.864 -0.0167  0.3875  0.8220
 3074TIP3    H230638   1.334   6.381   0.954 -2.1516 -1.2024 -2.6483
 3075TIP3   OH230639   1.772   0.620  15.527  0.3589  0.2901  0.4921
 3075TIP3    H130640   1.747   0.533  15.558 -0.4186 -0.0537 -1.0589
 3075TIP3    H230641   1.702   0.678  15.559  1.2004  0.4772  2.0680
 3076TIP3   OH230642   4.924   2.430  16.849  0.6181  0.1293 -0.0876
 3076TIP3    H130643   4.976   2.368  16.798 -0.4717 -0.8279 -0.0439
 3076TIP3    H230644   4.957   2.420  16.939 -0.1112 -0.9964  0.0662
 3077TIP3   OH230645   6.040   6.462   3.641  0.0316 -0.4579  0.3240
 3077TIP3    H130646   5.972   6.423   3.695 -0.9799 -3.2326 -2.7660
 3077TIP3    H230647   6.013   6.444   3.551  1.3407  4.4737 -1.2279
 3078TIP3   OH230648   3.153   6.187  13.766  0.0928  0.2757  0.5528
 3078TIP3    H130649   3.241   6.154  13.751 -0.3394 -0.4420 -0.4679
 3078TIP3    H230650   3.102   6.110  13.790 -0.8941  0.1950 -1.7250
 3079TIP3   OH230651   1.161   4.645   1.587 -0.4750  0.2259  0.3982
 3079TIP3    H130652   1.142   4.737   1.572  3.3561  1.2911  1.5438
 3079TIP3    H230653   1.163   4.605   1.500  1.0448  1.9071 -0.3480
 3080TIP3   OH230654   1.025   1.352  11.850  0.2676  0.2956 -0.3615
 3080TIP3    H130655   0.989   1.435  11.821 -1.8938 -0.1185  1.0557
 3080TIP3    H230656   0.949   1.296  11.866  1.5160 -0.7164  2.3605
 3081TIP3   OH230657   1.796   2.545   1.193 -0.2475 -0.3516  0.2494
 3081TIP3    H130658   1.743   2.521   1.268 -1.0174 -0.2079 -0.2494
 3081TIP3    H230659   1.866   2.600   1.229 -0.1310 -0.9714  0.9705
 3082TIP3   OH230660   1.097   3.918   4.420  0.2759  0.2367  0.0481
 3082TIP3    H130661   1.031   3.973   4.377  1.3099  1.4467 -0.0252
 3082TIP3    H230662   1.178   3.939   4.374  0.6624 -1.4740 -0.0643
 3083TIP3   OH230663   1.758   6.018  16.903 -0.3177  0.3763  0.7058
 3083TIP3    H130664   1.748   5.948  16.839  1.0974 -0.6409  1.5791
 3083TIP3    H230665   1.813   6.083  16.860  0.2623 -0.1005  0.7306
 3084TIP3   OH230666   4.679   2.800  15.636 -0.2160  0.0948 -0.0694
 3084TIP3    H130667   4.716   2.747  15.707  2.6591  1.5683 -0.4045
 3084TIP3    H230668   4.670   2.739  15.563  2.2654 -0.2024 -0.1848
 3085TIP3   OH230669   4.170   4.514  15.658  0.0348  0.0005  0.6298
 3085TIP3    H130670   4.213   4.429  15.655  2.7227  1.3166 -0.0085
 3085TIP3    H230671   4.169   4.544  15.567 -2.8524 -0.2561  0.5436
 3086TIP3   OH230672   3.422   4.269   3.796  0.3847  0.0099  0.1572
 3086TIP3    H130673   3.461   4.212   3.863 -0.4061 -0.0013  0.6152
 3086TIP3    H230674   3.451   4.231   3.713  0.7608 -0.4172  0.4769
 3087TIP3   OH230675   4.304   4.171   1.078  0.2965  0.3686 -0.0899
 3087TIP3    H130676   4.380   4.217   1.115  1.8077 -0.8363 -1.6086
 3087TIP3    H230677   4.302   4.199   0.987  0.2649 -1.3112 -0.6168
 3088TIP3   OH230678   2.796   4.412  14.013 -0.2131 -0.1337  0.5297
 3088TIP3    H130679   2.892   4.405  14.007 -0.4184 -1.2760 -2.1090
 3088TIP3    H230680   2.779   4.506  14.020  1.1573 -0.0117  2.6009
 3089TIP3   OH230681   4.524   2.234  11.466  0.2306 -0.1663  0.0396
 3089TIP3    H130682   4.565   2.319  11.453 -0.7793  0.1530 -1.0743
 3089TIP3    H230683   4.431   2.249  11.453  0.0311 -1.4299 -0.1151
 3090TIP3   OH230684   4.980   6.287   1.796 -0.8646  1.0887 -0.5270
 3090TIP3    H130685   4.997   6.303   1.704  0.3003  0.1961 -0.4809
 3090TIP3    H230686   4.886   6.304   1.807 -1.1353  0.6248 -1.9981
 3091TIP3   OH230687   4.844   3.805   3.936 -0.1116 -0.0831 -0.0966
 3091TIP3    H130688   4.798   3.802   4.020  0.3112  1.0464  0.1818
 3091TIP3    H230689   4.807   3.882   3.892 -0.2756 -0.6283 -0.9090
 3092TIP3   OH230690   0.767   3.766  13.042 -0.0940 -0.0742 -0.6560
 3092TIP3    H130691   0.857   3.755  13.072 -0.1635  2.7577  0.7753
 3092TIP3    H230692   0.774   3.786  12.949  0.9426  2.1911 -0.1206
 3093TIP3   OH230693   6.336   2.725   0.643 -0.2858  0.0954 -0.3169
 3093TIP3    H130694   6.379   2.675   0.573 -1.0762  2.1573 -2.3031
 3093TIP3    H230695   6.253   2.680   0.657  0.2109 -0.7862 -0.1384
 3094TIP3   OH230696   4.496   0.001  12.816  0.1527  0.0345  0.2895
 3094TIP3    H130697   4.400  -0.003  12.816  0.1351  0.2153 -0.5689
 3094TIP3    H230698   4.523  -0.089  12.837 -0.2171 -0.4417 -1.1806
 3095TIP3   OH230699   2.427   5.946   3.906  0.3900  0.0428  0.3867
 3095TIP3    H130700   2.416   5.975   3.815 -0.4067 -1.4514 -0.0054
 3095TIP3    H230701   2.418   5.851   3.902 -3.7598  0.2349  2.5794
 3096TIP3   OH230702   6.515   1.861   6.139  0.2525  0.5659  0.1045
 3096TIP3    H130703   6.449   1.881   6.205 -0.9865  0.0148 -0.9324
 3096TIP3    H230704   6.538   1.770   6.155 -0.9858  0.0412 -0.9904
 3097TIP3   OH230705   5.191   3.159   3.983 -0.1240 -0.0498 -0.2227
 3097TIP3    H130706   5.260   3.187   3.923 -0.1279 -0.5307 -0.4535
 3097TIP3    H230707   5.238   3.130   4.062 -0.1248  0.6893  0.0480
 3098TIP3   OH230708   1.371   6.155  15.283 -0.0842  0.2357  0.3629
 3098TIP3    H130709   1.294   6.102  15.304 -0.3108 -0.0697 -1.2093
 3098TIP3    H230710   1.339   6.222  15.223  0.7892  0.3640  0.0310
 3099TIP3   OH230711   2.063   5.256   5.009 -0.0574 -0.0814 -0.0266
 3099TIP3    H130712   2.011   5.324   4.966  0.2657  1.2378  1.6094
 3099TIP3    H230713   2.154   5.282   4.994  0.0638 -0.0164  0.7618
 3100TIP3   OH230714   0.610   2.995  16.811 -0.2186 -0.1395 -0.4850
 3100TIP3    H130715   0.648   3.077  16.778  0.4488 -0.8096 -1.4214
 3100TIP3    H230716   0.657   2.979  16.892  0.2732 -0.0387 -0.7416
 3101TIP3   OH230717   3.607   1.116   5.873  0.1975 -0.3685 -0.1187
 3101TIP3    H130718   3.699   1.143   5.878  0.2837 -0.7888  0.5720
 3101TIP3    H230719   3.561   1.194   5.841  0.5821  0.3043  0.9642
 3102TIP3   OH230720   5.459   0.062  13.596  0.3204 -0.6894  0.7317
 3102TIP3    H130721   5.495  -0.018  13.635  0.7681 -0.6485  0.3984
 3102TIP3    H230722   5.505   0.071  13.513  0.5518  0.1339  0.9463
 3103TIP3   OH230723   1.117   0.229  15.427 -0.5662 -0.3907 -0.3822
 3103TIP3    H130724   1.028   0.239  15.463 -0.1552 -0.3480  0.6423
 3103TIP3    H230725   1.138   0.137  15.442  0.9235  0.3750  2.6483
 3104TIP3   OH230726   1.614   1.020  10.615  0.1680  0.2431  0.0628
 3104TIP3    H130727   1.598   1.102  10.661 -0.2452  1.8604 -2.8218
 3104TIP3    H230728   1.697   0.988  10.651 -0.7372  0.7838  2.7416
 3105TIP3   OH230729   1.208   2.287  11.364 -0.2371  0.6148 -0.4722
 3105TIP3    H130730   1.248   2.344  11.300 -0.0632 -0.8951 -1.7500
 3105TIP3    H230731   1.139   2.241  11.315 -0.0418 -0.6155  0.3817
 3106TIP3   OH230732   5.848   3.849   2.162  0.2109 -0.2300  0.2382
 3106TIP3    H130733   5.855   3.878   2.071  0.1837 -0.5884  0.1181
 3106TIP3    H230734   5.791   3.913   2.204  0.2099 -0.0725 -0.0049
 3107TIP3   OH230735   6.627   3.550  13.430 -0.0941 -0.1971 -0.0648
 3107TIP3    H130736   6.721   3.567  13.430 -0.2451  0.6680 -0.2076
 3107TIP3    H230737   6.595   3.593  13.350 -0.2413 -2.5961 -1.3306
 3108TIP3   OH230738   6.576   0.798  11.888 -0.7700 -0.5334  0.3975
 3108TIP3    H130739   6.653   0.750  11.858  0.2607  0.7173  0.9991
 3108TIP3    H230740   6.581   0.793  11.984 -1.0586  0.1290  0.4513
 3109TIP3   OH230741   1.027   6.176  11.990  0.8498  0.3269  0.6124
 3109TIP3    H130742   1.118   6.173  11.960  0.1038  0.6344 -1.7077
 3109TIP3    H230743   0.987   6.246  11.939 -0.7451  0.1154  1.5400
 3110TIP3   OH230744   3.970   6.454   0.435  0.1248 -0.7782  0.2064
 3110TIP3    H130745   3.976   6.430   0.527  0.2851  0.2566  0.4733
 3110TIP3    H230746   3.879   6.437   0.412 -0.7827  2.0666  1.4600
 3111TIP3   OH230747   6.462   2.820   3.798 -0.2482 -0.3979  0.2094
 3111TIP3    H130748   6.558   2.814   3.792 -0.3031 -1.3937  0.1577
 3111TIP3    H230749   6.432   2.730   3.782 -1.2813  0.2164 -1.5121
 3112TIP3   OH230750   4.124   0.908   2.023 -0.3330 -0.3259 -0.0853
 3112TIP3    H130751   4.036   0.945   2.016  0.0908  0.5044 -1.0614
 3112TIP3    H230752   4.143   0.907   2.117 -0.5583  1.4313 -0.0224
 3113TIP3   OH230753   6.611   5.981   3.593 -0.4232 -0.1326  0.6993
 3113TIP3    H130754   6.628   5.887   3.592  0.5653  0.0524 -0.8927
 3113TIP3    H230755   6.612   6.007   3.501  0.7463  1.6995  1.2061
 3114TIP3   OH230756   4.202   5.961   5.367  0.5610 -0.1947  0.3933
 3114TIP3    H130757   4.162   6.046   5.349  0.3543  0.3231  3.0865
 3114TIP3    H230758   4.296   5.977   5.363  0.5616 -0.5320 -1.9726
 3115TIP3   OH230759   3.211   6.524  14.205 -0.5110 -0.0524 -0.4440
 3115TIP3    H130760   3.234   6.555  14.293 -2.5139  1.4213 -0.3858
 3115TIP3    H230761   3.208   6.604  14.152  0.7444 -0.9393 -1.8901
 3116TIP3   OH230762   6.763   3.063   1.195 -0.0379 -0.4216  0.3753
 3116TIP3    H130763   6.806   2.983   1.165  0.9123  0.3159 -0.2591
 3116TIP3    H230764   6.754   3.116   1.116  0.2746  0.5305  0.9743
 3117TIP3   OH230765   3.502   4.071   2.122 -0.4702  0.4320  0.1746
 3117TIP3    H130766   3.507   4.160   2.157 -2.0488  0.5125  0.2162
 3117TIP3    H230767   3.574   4.024   2.166 -0.2172  1.4319  0.8542
 3118TIP3   OH230768   1.106   2.851   1.951 -0.2597  0.5965  0.1699
 3118TIP3    H130769   1.185   2.816   1.911 -0.0865 -0.5990  1.5252
 3118TIP3    H230770   1.035   2.824   1.894  0.1815  0.6253 -0.3943
 3119TIP3   OH230771   1.905   4.539  12.992  0.0505  0.2567  0.3705
 3119TIP3    H130772   1.957   4.459  12.999 -0.4516  0.0282  1.7060
 3119TIP3    H230773   1.815   4.508  12.982  0.2243  0.6417 -2.8610
 3120TIP3   OH230774   1.568   0.420   3.208  0.5726  0.2240 -0.2196
 3120TIP3    H130775   1.573   0.516   3.212  2.5331  0.0712  1.8450
 3120TIP3    H230776   1.489   0.398   3.256  0.8757  0.7419  0.5198
 3121TIP3   OH230777   0.587   0.973  11.978 -1.2262 -0.0486  0.0156
 3121TIP3    H130778   0.603   1.059  12.016 -0.3544 -0.4779  0.6225
 3121TIP3    H230779   0.615   0.982  11.887  0.2655 -0.0970  0.4486
 3122TIP3   OH230780   1.239   6.435  15.142  0.2341  0.4213 -0.4993
 3122TIP3    H130781   1.147   6.409  15.143 -0.2052  1.9212 -0.6407
 3122TIP3    H230782   1.271   6.407  15.056 -0.4719  1.1664 -1.0106
 3123TIP3   OH230783   2.482   2.102  13.515 -0.0652 -0.1308 -0.1285
 3123TIP3    H130784   2.387   2.093  13.504  0.1001 -0.5534 -1.2318
 3123TIP3    H230785   2.508   2.164  13.447  0.2923  0.8692  0.9049
 3124TIP3   OH230786   5.316   5.709  12.836 -0.1633  0.3105  0.5702
 3124TIP3    H130787   5.263   5.643  12.791  0.0817  1.7240 -1.8896
 3124TIP3    H230788   5.389   5.659  12.873  0.4636 -0.7491 -1.9572
 3125TIP3   OH230789   5.631   3.926  12.454  0.3257  0.9413  0.2833
 3125TIP3    H130790   5.554   3.971  12.419 -0.2973 -0.5424 -0.2654
 3125TIP3    H230791   5.597   3.868  12.522  0.8064 -0.5814 -0.7615
 3126TIP3   OH230792   0.580   0.267  16.540 -0.2987 -0.2850 -0.2976
 3126TIP3    H130793   0.653   0.264  16.602 -1.2624 -1.0168  0.8176
 3126TIP3    H230794   0.503   0.287  16.594 -0.6735  2.3362 -1.7098
 3127TIP3   OH230795   3.737   6.392  14.933 -0.1427 -0.4138 -0.0280
 3127TIP3    H130796   3.744   6.426  15.023  0.4239 -1.1988  0.2314
 3127TIP3    H230797   3.793   6.449  14.881  0.1628 -0.4488  0.2607
 3128TIP3   OH230798   4.211   6.571  14.973  0.2960  0.3721  0.1485
 3128TIP3    H130799   4.170   6.575  14.886  1.9950 -0.2111 -0.7048
 3128TIP3    H230800   4.230   6.478  14.985  0.6603  0.5407  0.8718
 3129TIP3   OH230801   1.924   0.419  12.791 -0.4473  0.1812  0.0145
 3129TIP3    H130802   1.947   0.326  12.801 -0.0929  0.3128  0.4611
 3129TIP3    H230803   1.834   0.418  12.758  0.7142 -0.3739 -3.3633
 3130TIP3   OH230804   2.880   0.185   0.214  0.3295 -0.5639  0.4780
 3130TIP3    H130805   2.946   0.171   0.282  0.6526 -0.0142  0.2780
 3130TIP3    H230806   2.797   0.169   0.258  0.5808 -1.0914  0.7754
 3131TIP3   OH230807   1.226   3.079  14.444  0.3887 -0.2100 -0.2945
 3131TIP3    H130808   1.227   3.077  14.348  1.0223 -0.7269 -0.2812
 3131TIP3    H230809   1.250   2.990  14.470  1.3132  0.2165  0.3502
 3132TIP3   OH230810   4.384   6.404  10.979  0.5974  0.2550  0.5078
 3132TIP3    H130811   4.339   6.480  11.016 -0.3908 -0.8407  1.6043
 3132TIP3    H230812   4.332   6.381  10.902 -1.2338 -1.4769  2.2035
 3133TIP3   OH230813   0.889   0.913   3.635 -0.3696  0.2405 -0.1836
 3133TIP3    H130814   0.952   0.845   3.656 -1.4572 -0.7653 -0.0884
 3133TIP3    H230815   0.819   0.902   3.700 -0.2835  1.8157  0.1908
 3134TIP3   OH230816   3.916   0.648   6.493  0.4347 -0.8629 -0.7621
 3134TIP3    H130817   3.892   0.735   6.461  1.1764 -0.2709  0.2386
 3134TIP3    H230818   3.884   0.646   6.583  3.1235 -0.4562  0.2420
 3135TIP3   OH230819   3.208   2.806  14.730  0.6531 -0.3369  0.2370
 3135TIP3    H130820   3.159   2.789  14.811 -0.2597  0.1081 -0.2137
 3135TIP3    H230821   3.213   2.721  14.687  1.3658 -0.6284  0.8759
 3136TIP3   OH230822   1.826   3.121  13.096  0.1456  0.5554 -0.4190
 3136TIP3    H130823   1.836   3.098  13.188 -0.0053  3.7386  0.4592
 3136TIP3    H230824   1.735   3.101  13.075 -0.0001  0.4651  0.3017
 3137TIP3   OH230825   6.672   5.467   5.513 -0.4430 -0.3468 -1.0339
 3137TIP3    H130826   6.648   5.487   5.422 -2.8122 -0.3689 -0.4474
 3137TIP3    H230827   6.598   5.417   5.547 -0.0978  0.6288  1.2470
 3138TIP3   OH230828   1.036   6.450   2.218  0.0511 -0.3071  0.3206
 3138TIP3    H130829   1.120   6.492   2.238 -0.8022  1.2831  0.6042
 3138TIP3    H230830   1.044   6.362   2.254  1.1232  0.2508  1.4626
 3139TIP3   OH230831   1.017   2.270  14.865 -0.7052 -0.3583  0.3346
 3139TIP3    H130832   0.944   2.209  14.876 -2.2548  0.8995 -2.5070
 3139TIP3    H230833   1.092   2.214  14.843 -1.6777 -1.3935 -0.4119
 3140TIP3   OH230834   2.101   0.385   1.457 -0.1458 -0.0845  0.2864
 3140TIP3    H130835   2.118   0.373   1.550  0.8799  0.1719  0.1385
 3140TIP3    H230836   2.126   0.302   1.416  0.9669  0.3688  0.0404
 3141TIP3   OH230837   4.431   2.069  12.738 -0.1921  0.2402  0.3427
 3141TIP3    H130838   4.338   2.050  12.751  0.0782  0.1650  2.1963
 3141TIP3    H230839   4.464   2.092  12.825  1.9630 -1.6296  0.0615
 3142TIP3   OH230840   5.790   5.177  12.086  0.4108 -0.3901  0.0208
 3142TIP3    H130841   5.787   5.165  12.181 -0.1562 -0.3931  0.0030
 3142TIP3    H230842   5.702   5.207  12.063  0.5936 -0.2461 -0.4824
 3143TIP3   OH230843   0.799   1.132   4.470  0.2883  0.2131  0.2518
 3143TIP3    H130844   0.817   1.101   4.559 -0.9599 -1.8790 -0.2097
 3143TIP3    H230845   0.786   1.226   4.480  0.8523  0.1093  2.1775
 3144TIP3   OH230846   2.151   0.370   3.969  0.3870 -0.8537 -0.3883
 3144TIP3    H130847   2.210   0.348   3.897  0.6848 -1.7913  0.1378
 3144TIP3    H230848   2.126   0.286   4.006 -2.2454 -0.5559 -1.3585
 3145TIP3   OH230849   5.209   0.600   4.237  0.4753  0.0132 -0.2115
 3145TIP3    H130850   5.191   0.511   4.270  0.1130 -0.2055 -0.9900
 3145TIP3    H230851   5.125   0.646   4.247  1.1521  0.8421  1.9565
 3146TIP3   OH230852   1.146   4.381  15.712  0.1004  0.0220 -0.9903
 3146TIP3    H130853   1.127   4.319  15.641  1.7386 -1.3612 -0.2504
 3146TIP3    H230854   1.238   4.366  15.733  0.2375  2.0085 -0.0846
 3147TIP3   OH230855   0.360   2.390   5.203  0.5812  0.2107  0.7739
 3147TIP3    H130856   0.356   2.302   5.165  0.1549  0.7211 -0.4048
 3147TIP3    H230857   0.268   2.415   5.214  0.7025  0.4936  1.1414
 3148TIP3   OH230858   2.392   3.802  15.311  0.4977 -0.0305 -0.1919
 3148TIP3    H130859   2.335   3.725  15.306  0.7913 -0.1804 -1.6007
 3148TIP3    H230860   2.464   3.781  15.252  0.4477  1.4214 -0.7842
 3149TIP3   OH230861   5.887   1.881  13.111  0.5274 -0.2355 -0.1411
 3149TIP3    H130862   5.952   1.945  13.080 -0.8244  1.0878 -0.3259
 3149TIP3    H230863   5.879   1.899  13.205 -0.3357  0.3217 -0.3153
 3150TIP3   OH230864   0.476   1.884   1.836 -0.6713 -0.4360  0.3929
 3150TIP3    H130865   0.505   1.942   1.907 -2.3482 -0.1776  0.8929
 3150TIP3    H230866   0.393   1.922   1.807  0.6167  0.1985 -2.6039
 3151TIP3   OH230867   3.640   4.948   2.765 -0.4744 -0.4339 -0.9368
 3151TIP3    H130868   3.639   4.854   2.782  2.8907 -0.9787 -3.3173
 3151TIP3    H230869   3.580   4.960   2.691  0.1887 -0.9419 -1.5652
 3152TIP3   OH230870   1.645   1.660  13.241  0.0588 -0.4048 -0.1932
 3152TIP3    H130871   1.703   1.605  13.189 -0.2637 -0.5933 -0.3570
 3152TIP3    H230872   1.591   1.599  13.291  0.4282 -0.2222  0.4365
 3153TIP3   OH230873   2.987   4.781   0.331 -0.1007  0.0129 -0.0721
 3153TIP3    H130874   3.039   4.821   0.262  0.4412  0.6785  0.7156
 3153TIP3    H230875   3.027   4.812   0.412  0.7291 -2.5916  0.5733
 3154TIP3   OH230876   3.550   5.864   3.373 -0.3286 -0.2291  0.0044
 3154TIP3    H130877   3.604   5.940   3.354 -0.5065  0.1021  0.8079
 3154TIP3    H230878   3.473   5.900   3.418  0.1288 -1.0068  1.4317
 3155TIP3   OH230879   1.118   2.876   3.074 -0.1599 -0.4478 -0.5123
 3155TIP3    H130880   1.054   2.918   3.131 -0.4120 -1.6437  0.0880
 3155TIP3    H230881   1.203   2.902   3.110 -0.2725  1.9104 -1.8684
 3156TIP3   OH230882   5.623   2.546   5.496  0.2850 -0.4226  0.2767
 3156TIP3    H130883   5.582   2.551   5.582 -0.0261  0.4569  0.0826
 3156TIP3    H230884   5.563   2.593   5.438  1.3288  0.4527 -0.1094
 3157TIP3   OH230885   3.371   0.287   5.663  0.4632  0.0378  0.2121
 3157TIP3    H130886   3.280   0.274   5.638  0.1305 -0.5839  1.6883
 3157TIP3    H230887   3.385   0.381   5.657 -1.0503  0.4479  2.5033
 3158TIP3   OH230888   5.046   5.803   2.638  0.2199 -0.5717 -0.1587
 3158TIP3    H130889   5.118   5.815   2.700  0.9565 -1.6547 -0.7859
 3158TIP3    H230890   4.970   5.786   2.693  0.3224  1.0513  0.5288
 3159TIP3   OH230891   5.321   2.874   5.187  0.5252  0.0941 -0.4653
 3159TIP3    H130892   5.321   2.830   5.102  1.4783 -1.0372  0.1099
 3159TIP3    H230893   5.387   2.942   5.179  0.9460 -0.3137 -0.4874
 3160TIP3   OH230894   0.310   6.687   2.166  0.5357 -0.2613 -0.1185
 3160TIP3    H130895   0.254   6.637   2.106  0.0499 -0.9436  0.9023
 3160TIP3    H230896   0.250   6.741   2.216  0.9733  0.5401 -0.4480
 3161TIP3   OH230897   2.083   0.709   3.199 -0.0325  0.3589  0.4304
 3161TIP3    H130898   2.013   0.659   3.156  1.4063  0.3494 -2.0424
 3161TIP3    H230899   2.164   0.664   3.173  1.1298  2.4787  0.2169
 3162TIP3   OH230900   0.529   0.420   1.822 -0.0839  0.2985  0.4803
 3162TIP3    H130901   0.464   0.463   1.878  0.4882  0.1173  1.2791
 3162TIP3    H230902   0.554   0.488   1.759  1.4940  1.4383  2.3032
 3163TIP3   OH230903   5.859   3.420  13.074 -0.0291 -0.0031 -0.0253
 3163TIP3    H130904   5.889   3.333  13.101  1.1469  0.5999  0.6545
 3163TIP3    H230905   5.784   3.438  13.131  0.1788 -0.2591  0.3346
 3164TIP3   OH230906   5.316   2.140   6.258  0.2062 -0.0415  0.2948
 3164TIP3    H130907   5.319   2.156   6.352  0.5091 -1.7053  0.5703
 3164TIP3    H230908   5.327   2.046   6.248  1.2412  0.2393 -1.4747
 3165TIP3   OH230909   3.389   6.340  14.304  0.5199 -0.1944  0.1222
 3165TIP3    H130910   3.336   6.286  14.363  1.0585 -1.4832 -0.5375
 3165TIP3    H230911   3.330   6.362  14.231  0.3681 -0.1007  0.2742
 3166TIP3   OH230912   5.206   2.106  12.551  0.4282 -0.0126  0.1676
 3166TIP3    H130913   5.168   2.127  12.636  2.0088  3.2679  0.1335
 3166TIP3    H230914   5.155   2.156  12.488  0.7263 -0.6101 -0.5576
 3167TIP3   OH230915   6.216   2.536  10.715 -0.2471 -0.3272  0.0408
 3167TIP3    H130916   6.228   2.613  10.770  0.7866 -0.6474  0.2677
 3167TIP3    H230917   6.190   2.571  10.630 -0.6215  0.2292  0.3821
 3168TIP3   OH230918   0.487   5.479  11.609 -0.1255  0.6880 -0.3364
 3168TIP3    H130919   0.541   5.434  11.544 -0.4441  0.0295 -0.1561
 3168TIP3    H230920   0.426   5.412  11.639  1.5762  0.3211  2.3973
 3169TIP3   OH230921   6.303   0.213  16.767  0.4418  0.3879  0.3541
 3169TIP3    H130922   6.343   0.284  16.818  2.6883  0.4691 -1.4569
 3169TIP3    H230923   6.366   0.142  16.771 -1.8561 -1.6282  2.2615
 3170TIP3   OH230924   2.813   0.256  11.789  0.0565  0.0209 -0.0087
 3170TIP3    H130925   2.849   0.344  11.778  0.8031 -0.4059 -1.1705
 3170TIP3    H230926   2.881   0.198  11.753 -0.8524 -0.9587 -0.1713
 3171TIP3   OH230927   3.108   2.459   3.214 -0.2196 -0.2913  0.2601
 3171TIP3    H130928   3.127   2.378   3.262 -2.4174 -1.1061 -0.1663
 3171TIP3    H230929   3.020   2.484   3.245  0.6851  2.2785  0.8301
 3172TIP3   OH230930   1.898   1.426  17.126 -0.1904  0.0866 -0.6449
 3172TIP3    H130931   1.838   1.446  17.197 -0.0505 -2.2633  0.1954
 3172TIP3    H230932   1.856   1.462  17.048 -0.0525  3.2097  0.6607
 3173TIP3   OH230933   5.103   6.682   1.347 -0.3127 -0.0965  0.2784
 3173TIP3    H130934   5.145   6.728   1.420  0.8403 -1.8594  0.7796
 3173TIP3    H230935   5.073   6.751   1.288  1.1865  1.2848  1.1037
 3174TIP3   OH230936   2.538   5.433  11.897  0.3364 -0.1662  0.0867
 3174TIP3    H130937   2.585   5.373  11.838 -2.1234 -1.0123 -1.0795
 3174TIP3    H230938   2.490   5.491  11.838 -0.4950  0.3338  1.2547
 3175TIP3   OH230939   3.664   1.532   4.263  0.2097 -0.1836 -0.0627
 3175TIP3    H130940   3.604   1.595   4.304 -0.2063 -0.1043 -0.7839
 3175TIP3    H230941   3.740   1.530   4.321 -0.5459 -0.3872  0.9411
 3176TIP3   OH230942   0.613   3.426  16.021  0.5429  0.3932 -0.1607
 3176TIP3    H130943   0.618   3.459  15.931 -0.7590  2.6297  0.5675
 3176TIP3    H230944   0.521   3.435  16.045  1.1648  1.4048  1.9854
 3177TIP3   OH230945   4.747   3.569   1.418 -0.4638  0.1017 -0.2580
 3177TIP3    H130946   4.708   3.656   1.429 -0.9295 -0.1297 -0.0348
 3177TIP3    H230947   4.762   3.561   1.324 -0.4916  0.3964 -0.2883
 3178TIP3   OH230948   1.560   1.254   6.102 -0.1874  0.0847  0.2298
 3178TIP3    H130949   1.492   1.238   6.168 -1.5282 -0.9099 -1.3543
 3178TIP3    H230950   1.511   1.267   6.020  1.5025  0.1089 -0.7943
 3179TIP3   OH230951   3.488   3.826  13.133  0.3764 -0.1522 -0.0587
 3179TIP3    H130952   3.481   3.863  13.221  0.7226 -1.5579  0.5836
 3179TIP3    H230953   3.400   3.835  13.096  0.3844  0.9984  0.2036
 3180TIP3   OH230954   6.387   4.221  15.981 -0.1767  0.2576  0.1610
 3180TIP3    H130955   6.394   4.159  15.909  1.1424 -0.7117  1.0853
 3180TIP3    H230956   6.359   4.169  16.056 -1.0009  1.1453  0.4844
 3181TIP3   OH230957   5.071   2.299  15.919  0.1037  0.4434 -0.0607
 3181TIP3    H130958   5.066   2.245  15.841 -1.2418  0.8767 -0.2995
 3181TIP3    H230959   5.040   2.242  15.990 -1.2860  0.8641 -0.3072
 3182TIP3   OH230960   2.408   4.628  14.116  0.3211 -0.2244  0.0186
 3182TIP3    H130961   2.453   4.688  14.176  1.0942  0.7506 -1.5152
 3182TIP3    H230962   2.401   4.546  14.165 -1.6068  1.3399  2.5253
 3183TIP3   OH230963   2.480   4.795   3.491 -0.7800  1.3325  0.2489
 3183TIP3    H130964   2.445   4.817   3.577  0.8595 -0.1384  1.3250
 3183TIP3    H230965   2.575   4.793   3.503 -0.6656 -2.6312 -0.6157
 3184TIP3   OH230966   3.930   1.299   1.679  0.4612  0.0875  0.5614
 3184TIP3    H130967   3.926   1.388   1.644 -1.7711 -0.4627 -0.7122
 3184TIP3    H230968   3.972   1.248   1.609  1.0583 -0.0042  0.9830
 3185TIP3   OH230969   5.703   6.474  12.500 -0.5396 -0.6061 -0.1290
 3185TIP3    H130970   5.607   6.482  12.507 -0.3600  0.9841  0.6183
 3185TIP3    H230971   5.722   6.491  12.408 -0.8381  0.6156  0.0283
 3186TIP3   OH230972   3.069   3.135  13.299  0.2483  0.6943  0.3970
 3186TIP3    H130973   3.152   3.102  13.263 -0.1451 -0.8972  0.8985
 3186TIP3    H230974   3.003   3.108  13.235  0.1043  2.0112 -0.0310
 3187TIP3   OH230975   5.675   0.223   3.449  0.0412 -0.2183  0.3166
 3187TIP3    H130976   5.673   0.284   3.523 -1.3709  0.4503 -0.2407
 3187TIP3    H230977   5.650   0.276   3.374  2.3867 -0.6830 -0.8172
 3188TIP3   OH230978   6.172   0.503   2.650 -0.3932 -0.0043  0.1474
 3188TIP3    H130979   6.217   0.423   2.622 -0.4196 -0.0906  0.3471
 3188TIP3    H230980   6.189   0.507   2.744  1.4042  1.3505 -0.2010
 3189TIP3   OH230981   6.476   0.440  11.323  0.0532  0.2783  0.0735
 3189TIP3    H130982   6.426   0.450  11.404  0.8721 -4.0887  1.2687
 3189TIP3    H230983   6.414   0.462  11.254 -1.3470  1.8696  1.7739
 3190TIP3   OH230984   4.068   3.960  16.138  0.1574  0.1279  0.5966
 3190TIP3    H130985   4.042   3.903  16.066  0.7623 -0.9001  1.1634
 3190TIP3    H230986   4.063   3.903  16.215  2.3422  0.3821  0.9556
 3191TIP3   OH230987   2.858   2.988   5.027 -0.2890  0.0194 -0.0715
 3191TIP3    H130988   2.877   2.932   5.102  0.0980  0.6010  0.2666
 3191TIP3    H230989   2.780   2.949   4.988 -0.5322 -0.2529  0.6724
 3192TIP3   OH230990   0.994   1.800   5.459 -0.2249  0.5512 -0.0832
 3192TIP3    H130991   0.941   1.826   5.534 -1.7809 -1.3889 -0.4746
 3192TIP3    H230992   1.033   1.717   5.485 -0.0227  0.3274 -1.0890
 3193TIP3   OH230993   4.009   1.305  16.097 -0.4332 -0.0009 -0.1848
 3193TIP3    H130994   4.001   1.210  16.098 -0.3154 -0.0091  0.1297
 3193TIP3    H230995   4.093   1.323  16.138 -0.8463  0.2773  0.5572
 3194TIP3   OH230996   0.794   6.384  16.932  0.4311 -0.5407  0.3988
 3194TIP3    H130997   0.783   6.462  16.987  0.8053 -0.2544  0.0800
 3194TIP3    H230998   0.873   6.342  16.967  0.8165 -0.2196 -0.0760
 3195TIP3   OH230999   0.867   2.564  12.859  0.1421 -0.2692  0.1039
 3195TIP3    H131000   0.929   2.578  12.787  0.6529 -2.1256  0.1341
 3195TIP3    H231001   0.782   2.557  12.816 -0.4059  4.2374  0.2280
 3196TIP3   OH231002   4.372   3.116   4.751 -0.5201 -0.0786 -0.5227
 3196TIP3    H131003   4.341   3.027   4.733 -0.8520 -0.3877  1.4425
 3196TIP3    H231004   4.447   3.104   4.809  0.1058  0.8897 -1.1214
 3197TIP3   OH231005   4.910   0.017   0.300  0.2635  0.1729 -0.5809
 3197TIP3    H131006   4.936   0.002   0.209 -2.2035 -0.9495 -1.1321
 3197TIP3    H231007   4.901  -0.071   0.337 -0.3336  0.5886  0.2806
 3198TIP3   OH231008   6.236   6.059   0.921  0.2165  0.0456 -0.5988
 3198TIP3    H131009   6.242   5.964   0.909  1.9736 -0.0564  0.8601
 3198TIP3    H231010   6.325   6.090   0.906 -0.0144  1.2663  0.5330
 3199TIP3   OH231011   4.501   4.692  11.404  0.2942 -0.5372 -0.1309
 3199TIP3    H131012   4.412   4.662  11.423  0.4459 -0.8998  0.0026
 3199TIP3    H231013   4.499   4.713  11.310  0.5127 -2.1102 -0.4907
 3200TIP3   OH231014   3.500   1.600  13.828  0.0011  0.2141  0.0891
 3200TIP3    H131015   3.562   1.528  13.846  0.1413  1.0795  3.4912
 3200TIP3    H231016   3.534   1.642  13.749  1.8703 -1.3546  0.0092
 3201TIP3   OH231017   2.536   0.495  12.579  0.4037 -0.1165 -0.5722
 3201TIP3    H131018   2.564   0.426  12.640  0.8911 -1.0494 -1.8228
 3201TIP3    H231019   2.495   0.561  12.634 -0.1607 -1.4656  0.6470
 3202TIP3   OH231020   4.369   3.332   2.085 -0.1162 -0.1380  0.6694
 3202TIP3    H131021   4.424   3.354   2.010 -2.9883 -0.7263 -1.6877
 3202TIP3    H231022   4.329   3.415   2.110 -0.9282 -0.3286  0.0430
 3203TIP3   OH231023   3.456   2.864   5.884  0.5641 -0.0658  0.2554
 3203TIP3    H131024   3.447   2.789   5.943  1.8267  0.1153  0.7066
 3203TIP3    H231025   3.544   2.854   5.847  0.3830  0.6934 -0.3866
 3204TIP3   OH231026   2.322   3.709   2.922  0.1717 -0.1997  0.2474
 3204TIP3    H131027   2.264   3.677   2.853 -0.9838 -1.5046  1.7710
 3204TIP3    H231028   2.285   3.794   2.946 -0.7533 -0.7271  0.7521
 3205TIP3   OH231029   6.204   3.624   2.724  0.6061  0.1284 -0.1959
 3205TIP3    H131030   6.148   3.571   2.668  2.4602 -2.0548 -0.0648
 3205TIP3    H231031   6.223   3.702   2.672  1.2370 -1.2693 -2.1122
 3206TIP3   OH231032   4.167   4.543   2.637  0.6017  0.2436  0.2139
 3206TIP3    H131033   4.250   4.511   2.674  0.7051  0.2095 -0.0468
 3206TIP3    H231034   4.193   4.615   2.579  0.5427 -0.4219 -0.6405
 3207TIP3   OH231035   5.394   4.840  13.108  0.0302  0.0925  0.2761
 3207TIP3    H131036   5.328   4.896  13.149 -1.6331 -0.7041 -1.2287
 3207TIP3    H231037   5.385   4.755  13.152  2.4391  0.8769  2.4409
 3208TIP3   OH231038   5.359   5.764  16.019  0.2945 -0.3695  0.0049
 3208TIP3    H131039   5.348   5.859  16.026  0.5087  0.0258 -3.9131
 3208TIP3    H231040   5.441   5.746  16.064 -0.4487  1.0786  2.0121
 3209TIP3   OH231041   2.870   3.241   2.211  0.3708 -0.0503  0.2029
 3209TIP3    H131042   2.855   3.272   2.122 -0.8155  0.0555  0.4339
 3209TIP3    H231043   2.883   3.321   2.262 -2.0888  0.0829  0.6883
 3210TIP3   OH231044   3.917   4.564   1.873 -0.2280  0.1972  0.4730
 3210TIP3    H131045   3.910   4.473   1.846 -0.4597  0.9280 -2.0244
 3210TIP3    H231046   3.827   4.597   1.870 -0.3846  0.1159  2.9499
 3211TIP3   OH231047   5.730   3.170  11.973  0.0989  0.3561 -0.4880
 3211TIP3    H131048   5.731   3.075  11.976 -0.0657  0.3757  0.1809
 3211TIP3    H231049   5.822   3.194  11.964  0.4092  0.2006  1.8415
 3212TIP3   OH231050   3.916   2.869  12.789 -0.2978  0.0045 -0.4919
 3212TIP3    H131051   3.889   2.807  12.857 -0.3629  2.2487  1.6154
 3212TIP3    H231052   3.837   2.920  12.771  0.3259  0.9947 -0.4804
 3213TIP3   OH231053   0.757   4.472  13.159  0.0977  0.5097 -0.6057
 3213TIP3    H131054   0.717   4.394  13.196  0.0564 -0.7760 -3.2642
 3213TIP3    H231055   0.850   4.464  13.180  0.0808 -0.2335 -0.8058
 3214TIP3   OH231056   2.648   5.896   6.651 -0.0839  0.1758 -0.1078
 3214TIP3    H131057   2.649   5.879   6.556  0.0038 -0.2458 -0.0335
 3214TIP3    H231058   2.595   5.975   6.660  0.3156  0.5015 -0.5526
 3215TIP3   OH231059   4.074   6.317  14.709  0.4711  0.0279  0.7165
 3215TIP3    H131060   3.997   6.313  14.652  0.9611 -2.1762  0.1597
 3215TIP3    H231061   4.081   6.410  14.732 -0.6057  0.7630 -1.6446
 3216TIP3   OH231062   3.918   4.508  17.215 -0.0278 -0.0219 -0.0167
 3216TIP3    H131063   3.959   4.593  17.231 -0.1246  0.1809 -0.8082
 3216TIP3    H231064   3.853   4.499  17.284  1.6260 -0.5308  1.4964
 3217TIP3   OH231065   6.737   0.985   4.572 -0.3334 -0.0659  0.3908
 3217TIP3    H131066   6.779   1.068   4.550 -0.9711  0.2612  0.4146
 3217TIP3    H231067   6.810   0.924   4.585  0.1273  0.4459  0.2031
 3218TIP3   OH231068   3.739   4.355   4.018  0.8022 -0.7031  0.2373
 3218TIP3    H131069   3.713   4.394   3.934  3.1436 -0.6588 -0.5129
 3218TIP3    H231070   3.774   4.428   4.068 -2.0343 -0.4241  1.9323
 3219TIP3   OH231071   1.003   5.713   0.817  0.3914 -0.8431  0.1375
 3219TIP3    H131072   0.968   5.788   0.770  0.5151 -1.3223 -0.7318
 3219TIP3    H231073   0.971   5.723   0.907 -0.1902 -0.1468 -0.1504
 3220TIP3   OH231074   2.195   6.187   0.678  0.5558  0.4270 -0.1435
 3220TIP3    H131075   2.184   6.126   0.751  0.0793 -1.5845 -1.8427
 3220TIP3    H231076   2.289   6.188   0.660  0.5949  0.4150  0.0667
 3221TIP3   OH231077   4.966   1.508   2.619 -0.2072 -0.1079 -0.5146
 3221TIP3    H131078   4.922   1.425   2.601  1.3065 -1.2592  0.8456
 3221TIP3    H231079   5.028   1.519   2.547  1.2884 -1.4215  0.5270
 3222TIP3   OH231080   0.200   2.908  14.320 -0.6486 -0.1892  0.1596
 3222TIP3    H131081   0.164   2.889  14.407  0.1538 -1.6980  0.1788
 3222TIP3    H231082   0.251   2.830  14.298  2.3588  1.7587  0.0001
 3223TIP3   OH231083   5.748   2.724  14.775 -1.1101 -0.4099  0.4315
 3223TIP3    H131084   5.757   2.816  14.748 -1.7282 -0.5319 -0.2211
 3223TIP3    H231085   5.830   2.683  14.746 -1.7042 -0.5045 -1.1670
 3224TIP3   OH231086   4.012   0.625  14.391 -0.2199  0.0488 -0.0552
 3224TIP3    H131087   4.036   0.651  14.479  0.2179  0.3559 -0.2664
 3224TIP3    H231088   4.094   0.629  14.341 -0.5506  0.3071 -0.5794
 3225TIP3   OH231089   0.828   2.715   0.249 -0.1757 -0.1925  0.5654
 3225TIP3    H131090   0.893   2.775   0.287  1.0203 -1.1134  0.0274
 3225TIP3    H231091   0.846   2.718   0.155 -0.4393 -0.9997  0.4887
 3226TIP3   OH231092   6.197   6.545  13.572 -0.4260  0.4314 -0.3016
 3226TIP3    H131093   6.287   6.563  13.595 -0.4469 -0.3582  0.4238
 3226TIP3    H231094   6.154   6.630  13.571 -0.7160  0.4030  3.7693
 3227TIP3   OH231095   0.399   1.908  12.555 -0.1775  0.3548  0.0413
 3227TIP3    H131096   0.380   1.815  12.565 -0.8375  0.5869  0.9442
 3227TIP3    H231097   0.443   1.914  12.470  1.3454 -0.9935  0.7009
 3228TIP3   OH231098   5.639   2.284  14.963  0.1390 -0.5626 -0.6170
 3228TIP3    H131099   5.588   2.364  14.948  0.0633 -0.4273  0.3371
 3228TIP3    H231100   5.714   2.313  15.016  0.4050 -1.0317 -0.7319
 3229TIP3   OH231101   4.829   3.685  13.595  0.2572  0.0102 -0.0654
 3229TIP3    H131102   4.857   3.595  13.580 -0.4906 -0.4090  1.0692
 3229TIP3    H231103   4.782   3.683  13.678 -1.9027  0.9882 -1.2221
 3230TIP3   OH231104   1.610   6.279   0.252  0.8756 -0.3132 -0.6366
 3230TIP3    H131105   1.573   6.206   0.201  0.8330 -0.4477 -0.4154
 3230TIP3    H231106   1.534   6.334   0.272  0.8315 -0.4712 -0.3742
 3231TIP3   OH231107   6.416   5.406   1.315 -0.1393  0.1866  0.1282
 3231TIP3    H131108   6.402   5.313   1.331  0.0538  0.2613  0.7324
 3231TIP3    H231109   6.421   5.413   1.220  1.4665 -0.6499  0.1330
 3232TIP3   OH231110   6.737   5.605   1.899  0.1938 -0.0982  0.2241
 3232TIP3    H131111   6.791   5.527   1.885  0.1708 -0.6918  3.0997
 3232TIP3    H231112   6.774   5.645   1.978 -0.2336  2.4457 -0.8229
 3233TIP3   OH231113   1.682   6.617  16.895  0.0849  0.2058  0.0829
 3233TIP3    H131114   1.734   6.566  16.957  0.1964 -0.1983 -0.3375
 3233TIP3    H231115   1.615   6.556  16.864  0.3350  0.2527 -0.5697
 3234TIP3   OH231116   4.180   0.720   5.154  0.4419 -0.2760  0.4158
 3234TIP3    H131117   4.087   0.716   5.174  0.2008 -0.0409 -0.6272
 3234TIP3    H231118   4.201   0.633   5.120  0.0306  0.4521 -1.7447
 3235TIP3   OH231119   0.659   0.113   5.020 -0.0844 -0.4906  0.0779
 3235TIP3    H131120   0.722   0.047   5.048 -0.1637 -1.6121 -2.2728
 3235TIP3    H231121   0.604   0.068   4.955 -2.2651  0.9278  0.8760
 3236TIP3   OH231122   4.365   0.803   1.081  0.0373  0.0782  0.3025
 3236TIP3    H131123   4.404   0.723   1.118  1.2405  1.3272  1.7775
 3236TIP3    H231124   4.293   0.824   1.141  1.6970  1.8441  1.7151
 3237TIP3   OH231125   4.681   1.707   1.429  0.2488  0.0636 -0.0898
 3237TIP3    H131126   4.655   1.786   1.383 -1.7239 -0.6746 -0.2968
 3237TIP3    H231127   4.605   1.685   1.483  0.5351 -2.0428 -0.5188
 3238TIP3   OH231128   5.693   0.158   1.106 -0.2482 -0.7337  0.3315
 3238TIP3    H131129   5.710   0.065   1.119  1.2842 -0.0833  3.7176
 3238TIP3    H231130   5.740   0.181   1.027 -0.1627 -2.7136 -0.2139
 3239TIP3   OH231131   5.147   5.523  12.696 -0.1235 -0.3991  0.3387
 3239TIP3    H131132   5.138   5.597  12.636 -1.8572 -0.1731  0.8554
 3239TIP3    H231133   5.091   5.455  12.658  1.7540 -1.5935 -0.3405
 3240TIP3   OH231134   0.787   5.505   5.936 -0.1388 -0.0807 -0.1958
 3240TIP3    H131135   0.719   5.573   5.938  2.3471  2.5098  1.2826
 3240TIP3    H231136   0.741   5.423   5.952 -2.8630  1.6462  1.1137
 3241TIP3   OH231137   4.478   1.326  13.402  0.6607  0.9136  0.3843
 3241TIP3    H131138   4.488   1.420  13.413 -1.2288  0.8064  3.4894
 3241TIP3    H231139   4.384   1.310  13.409  1.0619 -1.3203  1.2534
 3242TIP3   OH231140   2.887   1.156  11.567  0.3444 -0.4169 -0.8270
 3242TIP3    H131141   2.876   1.175  11.474  2.1596 -0.1631 -1.0061
 3242TIP3    H231142   2.920   1.237  11.605  1.2020 -1.0079 -0.2787
 3243TIP3   OH231143   1.178   6.198   3.848  0.4223 -0.4354  0.1892
 3243TIP3    H131144   1.266   6.168   3.827 -0.5625 -3.5191  0.1959
 3243TIP3    H231145   1.128   6.186   3.767 -0.9067 -2.6115  1.2485
 3244TIP3   OH231146   1.351   3.427  11.731 -0.0225  0.8203 -0.1183
 3244TIP3    H131147   1.325   3.458  11.644  1.7052  2.4892 -0.0587
 3244TIP3    H231148   1.269   3.398  11.771 -1.0599  1.3956 -1.7491
 3245TIP3   OH231149   2.398   1.170   5.353 -0.5325 -0.2921 -0.7447
 3245TIP3    H131150   2.362   1.240   5.298  0.3384 -0.2842 -1.3115
 3245TIP3    H231151   2.378   1.197   5.443 -0.5465  0.4818 -0.9788
 3246TIP3   OH231152   6.005   1.636  13.704 -0.4124  0.0849 -0.0797
 3246TIP3    H131153   5.975   1.547  13.724  0.8231  0.3173  3.1505
 3246TIP3    H231154   5.930   1.677  13.660 -0.7655 -2.7041 -2.2529
 3247TIP3   OH231155   3.030   4.290   4.895  0.1992 -0.3875 -0.3135
 3247TIP3    H131156   2.979   4.273   4.816  1.7128  1.5991 -1.7442
 3247TIP3    H231157   3.119   4.262   4.873  0.9141  1.4467  0.2016
 3248TIP3   OH231158   4.816   3.671  12.903 -0.0016 -0.5953 -0.2691
 3248TIP3    H131159   4.764   3.596  12.873  0.4628 -0.8714 -0.3922
 3248TIP3    H231160   4.906   3.650  12.876  0.8089 -1.8546  3.1404
 3249TIP3   OH231161   1.456   3.268   4.844  0.2279  0.2224  0.3873
 3249TIP3    H131162   1.468   3.358   4.814 -0.5208  0.2454  0.1588
 3249TIP3    H231163   1.361   3.255   4.848  0.2942 -1.3038 -1.8359
 3250TIP3   OH231164   1.309   3.282   2.379 -0.6651 -0.5179 -0.7546
 3250TIP3    H131165   1.382   3.251   2.325  1.3370 -1.6326  2.4525
 3250TIP3    H231166   1.284   3.207   2.431 -1.1095  1.0786  1.3950
 3251TIP3   OH231167   2.112   2.646   1.078 -0.5789 -0.0789 -0.0153
 3251TIP3    H131168   2.064   2.698   1.143 -0.2038  1.3494 -0.8534
 3251TIP3    H231169   2.196   2.626   1.121 -0.2073  1.1201 -0.1499
 3252TIP3   OH231170   0.765   3.853  13.356 -0.0776 -0.1841 -0.1098
 3252TIP3    H131171   0.827   3.925  13.347 -1.0992  0.9496  1.5321
 3252TIP3    H231172   0.691   3.878  13.302 -0.8121  0.4520  1.1710
 3253TIP3   OH231173   6.420   6.737   0.224 -0.0941  0.0657 -0.1690
 3253TIP3    H131174   6.439   6.704   0.312 -1.5706  2.5432  1.1416
 3253TIP3    H231175   6.485   6.806   0.209  0.4354 -0.6444 -1.2234
 3254TIP3   OH231176   5.473   3.683   4.048  0.9447  0.1217 -0.4432
 3254TIP3    H131177   5.395   3.696   4.102  0.4273 -0.7564 -0.9618
 3254TIP3    H231178   5.545   3.678   4.110  0.3570 -0.8789  0.1608
 3255TIP3   OH231179   5.614   5.446   3.251  0.0675 -0.2616  0.4199
 3255TIP3    H131180   5.653   5.360   3.267 -0.6700 -0.6454  0.1700
 3255TIP3    H231181   5.663   5.506   3.308  1.9283 -0.4952 -0.8975
 3256TIP3   OH231182   5.774   2.520   6.018  0.0420 -0.4609  0.3388
 3256TIP3    H131183   5.757   2.589   6.082 -0.4058  0.3105 -0.5893
 3256TIP3    H231184   5.700   2.460   6.028 -0.0698 -0.2985  0.5029
 3257TIP3   OH231185   6.441   0.612   5.978 -0.3809  0.5652 -0.1013
 3257TIP3    H131186   6.456   0.673   6.050 -0.4297  1.5792 -0.9416
 3257TIP3    H231187   6.454   0.525   6.017 -1.2718  1.0612  1.3309
 3258TIP3   OH231188   2.730   0.253  12.715  0.0294 -0.0585  0.1450
 3258TIP3    H131189   2.754   0.270  12.624  0.1775 -2.6274 -0.3337
 3258TIP3    H231190   2.808   0.212  12.753  0.1566  1.4726  1.5890
 3259TIP3   OH231191   3.260   5.857  14.057 -0.2866  0.1613  0.5397
 3259TIP3    H131192   3.319   5.810  14.116 -0.7479 -1.6614 -0.4107
 3259TIP3    H231193   3.240   5.938  14.103  2.7634  0.7174  0.9755
 3260TIP3   OH231194   5.448   6.196  11.884  0.0857  0.0862 -0.1675
 3260TIP3    H131195   5.530   6.152  11.906 -0.6419 -1.4606 -0.4833
 3260TIP3    H231196   5.381   6.129  11.896 -1.0931  1.2393 -0.2516
 3261TIP3   OH231197   1.161   5.666   3.413  0.5653  0.5181  0.6414
 3261TIP3    H131198   1.089   5.603   3.403 -0.1183  0.8750  2.9367
 3261TIP3    H231199   1.118   5.751   3.423  1.3903  1.0124  0.0504
 3262TIP3   OH231200   3.336   5.840  12.061  0.0640 -0.1926  0.1803
 3262TIP3    H131201   3.306   5.756  12.026  0.4033 -0.9574  1.6800
 3262TIP3    H231202   3.431   5.829  12.071 -0.0592 -0.0853  1.5556
 3263TIP3   OH231203   2.700   4.951   5.342  0.2363  0.0323 -0.3607
 3263TIP3    H131204   2.664   5.040   5.342 -2.1252 -0.8707  0.7362
 3263TIP3    H231205   2.696   4.923   5.251 -0.5003  0.4865 -0.4723
 3264TIP3   OH231206   3.030   5.711   3.142 -0.4091 -0.1989  0.7110
 3264TIP3    H131207   3.067   5.653   3.076 -0.7814 -1.0019  1.2084
 3264TIP3    H231208   3.095   5.713   3.212  0.5712  1.6428 -0.1982
 3265TIP3   OH231209   0.622   4.344   2.025  0.3050 -0.3120  0.0388
 3265TIP3    H131210   0.666   4.331   1.941  2.1989 -1.8787  1.2356
 3265TIP3    H231211   0.663   4.421   2.063 -0.0065 -0.0606 -0.1390
 3266TIP3   OH231212   1.097   3.440  12.333 -0.5034 -0.0121 -0.3964
 3266TIP3    H131213   1.187   3.420  12.306  0.2818  1.3650  1.1488
 3266TIP3    H231214   1.044   3.370  12.292  1.5724 -2.4185  0.8844
 3267TIP3   OH231215   2.486   6.206  12.810  0.3220  0.0559 -0.1006
 3267TIP3    H131216   2.466   6.217  12.717 -0.3401  1.7680  0.2294
 3267TIP3    H231217   2.576   6.174  12.811  0.9101  1.5982 -1.2822
 3268TIP3   OH231218   2.090   1.307  12.375  0.0952 -0.7542 -0.2230
 3268TIP3    H131219   2.046   1.353  12.304 -0.7598  0.2934  0.9462
 3268TIP3    H231220   2.058   1.217  12.370  0.2811 -0.7603 -1.3336
 3269TIP3   OH231221   1.174   6.671   0.754 -0.5216 -0.2572  0.1378
 3269TIP3    H131222   1.091   6.688   0.799 -0.6621  1.0117 -0.5706
 3269TIP3    H231223   1.211   6.758   0.738  0.8148 -0.7969  0.1851
 3270TIP3   OH231224   2.983   0.736   4.337 -0.2719 -0.3181 -1.3081
 3270TIP3    H131225   2.891   0.721   4.357 -0.2168 -0.7065 -1.3348
 3270TIP3    H231226   3.029   0.663   4.379  0.3520  1.5444  1.3714
 3271TIP3   OH231227   6.626   2.891  11.139  0.4432  0.0658  0.1424
 3271TIP3    H131228   6.661   2.959  11.196 -0.2210 -0.1342  0.7964
 3271TIP3    H231229   6.687   2.818  11.148  0.0376 -0.1719  1.0407
 3272TIP3   OH231230   6.629   3.919   5.120  0.2215 -0.0211 -0.0295
 3272TIP3    H131231   6.610   3.825   5.118  1.9315 -0.4084  0.7573
 3272TIP3    H231232   6.586   3.951   5.199 -0.3365 -0.1485 -0.2807
 3273TIP3   OH231233   3.787   5.072  10.280 -0.2255  0.2779 -0.5850
 3273TIP3    H131234   3.712   5.087  10.338 -1.7883 -0.8376 -2.2637
 3273TIP3    H231235   3.800   4.977  10.281  0.7224  0.3962 -0.8719
 3274TIP3   OH231236   0.492   4.001  16.578  0.1130  0.3565 -0.1163
 3274TIP3    H131237   0.449   3.924  16.542 -0.8296  0.2130  1.2552
 3274TIP3    H231238   0.443   4.075  16.543 -0.9011  0.2116  0.9484
 3275TIP3   OH231239   1.606   5.410  16.030 -0.0446 -0.1505  0.0836
 3275TIP3    H131240   1.626   5.485  15.975  0.0959  1.0692  1.7425
 3275TIP3    H231241   1.597   5.337  15.969  1.6789  0.8280 -1.4115
 3276TIP3   OH231242   6.363   0.614   0.576  0.2479 -0.3599  0.3329
 3276TIP3    H131243   6.357   0.595   0.483  1.0018  1.1190 -0.0309
 3276TIP3    H231244   6.394   0.705   0.581  0.4187 -0.4791  2.0169
 3277TIP3   OH231245   3.445   5.785   5.534 -0.1622 -0.4638  0.0133
 3277TIP3    H131246   3.474   5.850   5.470  0.8650 -1.3508 -0.4433
 3277TIP3    H231247   3.421   5.836   5.611  0.5662  0.4590 -0.3573
 3278TIP3   OH231248   2.394   2.143  15.042  0.9555 -0.3819 -0.4659
 3278TIP3    H131249   2.379   2.074  14.978  0.5630  0.3635 -1.2000
 3278TIP3    H231250   2.306   2.166  15.074  1.0745 -0.1901 -0.2706
 3279TIP3   OH231251   6.361   4.534  15.771 -0.0799  0.0053  0.1308
 3279TIP3    H131252   6.421   4.476  15.723  0.9759  0.7832  0.4984
 3279TIP3    H231253   6.415   4.607  15.800 -0.9657  0.1608  1.4573
 3280TIP3   OH231254   5.376   6.101  16.795 -0.2282 -0.6440 -0.1621
 3280TIP3    H131255   5.341   6.031  16.741 -1.0130 -2.1279  2.1885
 3280TIP3    H231256   5.302   6.161  16.807 -0.7481 -1.5383  1.2001
 3281TIP3   OH231257   2.556   3.178   4.877 -0.8987  0.3143 -0.0444
 3281TIP3    H131258   2.493   3.176   4.949  1.5044  1.3768  2.2015
 3281TIP3    H231259   2.597   3.092   4.879  1.8452  1.5751  2.4708
 3282TIP3   OH231260   4.675   6.551  14.624  0.8361  0.1400  0.6681
 3282TIP3    H131261   4.659   6.497  14.546  1.5079 -0.4240  0.9123
 3282TIP3    H231262   4.605   6.617  14.622 -0.1270 -0.8561  0.4690
 3283TIP3   OH231263   1.738   4.779   3.538  0.3691 -0.0932 -0.2055
 3283TIP3    H131264   1.791   4.833   3.596  0.8911  0.1195 -0.8765
 3283TIP3    H231265   1.655   4.768   3.585  0.1072  1.6317 -0.2165
 3284TIP3   OH231266   1.293   0.467   4.291 -0.0354 -0.3363  0.3497
 3284TIP3    H131267   1.220   0.439   4.236  0.3724 -2.3245  0.7700
 3284TIP3    H231268   1.263   0.547   4.332 -1.2187 -0.0713 -1.0078
 3285TIP3   OH231269   2.667   1.816   1.013  0.1731 -0.1379  0.3345
 3285TIP3    H131270   2.664   1.873   0.936  1.5115  0.0630  0.4092
 3285TIP3    H231271   2.625   1.866   1.083  0.4683  0.3586  0.1558
 3286TIP3   OH231272   6.330   2.788   4.784 -0.4578  0.0087 -0.1191
 3286TIP3    H131273   6.358   2.736   4.860 -0.6832  0.4115  0.2411
 3286TIP3    H231274   6.382   2.868   4.790 -0.7000  0.1720 -0.2257
 3287TIP3   OH231275   4.097   5.395  11.674 -0.1595 -0.6117  0.3067
 3287TIP3    H131276   4.051   5.406  11.591  0.7932  2.5582  0.1539
 3287TIP3    H231277   4.184   5.364  11.649 -0.4257 -1.3116  0.2421
 3288TIP3   OH231278   3.377   5.836  16.740  0.0776 -0.2799 -0.1977
 3288TIP3    H131279   3.311   5.894  16.779  0.3806  0.6692 -1.0434
 3288TIP3    H231280   3.414   5.788  16.813 -0.3484  0.4429  0.4982
 3289TIP3   OH231281   6.642   3.892  11.478 -0.8467  0.4618 -0.3241
 3289TIP3    H131282   6.722   3.853  11.445 -1.4784  0.8983 -2.4636
 3289TIP3    H231283   6.671   3.966  11.532  0.2063 -0.2350  0.0787
 3290TIP3   OH231284   3.398   5.741  14.666  0.2432 -0.0262 -0.7324
 3290TIP3    H131285   3.325   5.797  14.694 -1.3725 -0.9938 -2.8743
 3290TIP3    H231286   3.466   5.803  14.640 -0.4304  0.9083 -0.3184
 3291TIP3   OH231287   2.185   1.702  12.666 -0.2268  0.5145  0.4656
 3291TIP3    H131288   2.127   1.626  12.679  0.3017  0.1317  0.6158
 3291TIP3    H231289   2.235   1.707  12.748  1.8580 -0.8022 -0.6897
 3292TIP3   OH231290   3.798   4.751   1.072  0.7198 -0.0584  0.0477
 3292TIP3    H131291   3.792   4.834   1.119  0.5128 -0.3119  0.4657
 3292TIP3    H231292   3.890   4.746   1.044  1.1106 -0.4403  1.3800
 3293TIP3   OH231293   2.922   2.291   5.226  0.1978 -0.7091 -0.1380
 3293TIP3    H131294   2.959   2.210   5.263  0.5031 -0.0152  1.1347
 3293TIP3    H231295   2.837   2.300   5.269  0.3711 -0.1140  0.0909
 3294TIP3   OH231296   3.562   3.969  15.666 -0.3455  0.5104  0.0641
 3294TIP3    H131297   3.522   3.932  15.745 -1.9243 -0.5556 -1.1970
 3294TIP3    H231298   3.523   3.919  15.594  1.5306  1.0337 -1.3616
 3295TIP3   OH231299   0.534   5.924   4.553 -0.2968  0.4642  0.1424
 3295TIP3    H131300   0.450   5.935   4.597 -0.7928 -0.7648 -0.4540
 3295TIP3    H231301   0.575   6.010   4.556 -2.0478  1.3419 -0.4995
 3296TIP3   OH231302   1.402   6.396   0.001  0.2620 -0.0251 -0.0390
 3296TIP3    H131303   1.443   6.310  -0.013 -1.6175 -0.8947 -0.3455
 3296TIP3    H231304   1.372   6.393   0.092 -0.6807 -0.0643 -0.3540
 3297TIP3   OH231305   6.400   5.283  12.316  0.0259 -0.5774 -0.0443
 3297TIP3    H131306   6.371   5.339  12.244  0.7590 -0.4755 -0.2601
 3297TIP3    H231307   6.478   5.239  12.283  2.1901  1.7736  1.7304
 3298TIP3   OH231308   3.840   4.402  13.671  0.0228  0.4011  0.4322
 3298TIP3    H131309   3.868   4.342  13.740  0.0206  0.4949  0.5161
 3298TIP3    H231310   3.921   4.430  13.628 -0.1349 -1.7021 -1.3362
 3299TIP3   OH231311   2.750   1.467   1.777  0.2026 -0.6637 -0.3107
 3299TIP3    H131312   2.728   1.507   1.694 -0.1677 -0.1395  0.0400
 3299TIP3    H231313   2.721   1.530   1.843 -0.3892 -1.5078  0.2399
 3300TIP3   OH231314   3.112   5.239  10.337 -1.0340 -0.2996 -0.3235
 3300TIP3    H131315   3.206   5.243  10.317 -0.5949 -2.9181  1.0216
 3300TIP3    H231316   3.081   5.328  10.321  2.0517  1.1105  1.0692
 3301TIP3   OH231317   5.934   6.362  11.642  0.1076 -0.4244  0.4649
 3301TIP3    H131318   6.011   6.329  11.688 -0.6284 -2.9967 -0.0606
 3301TIP3    H231319   5.930   6.310  11.561 -0.9936  1.1133 -0.4903
 3302TIP3   OH231320   5.314   1.885   0.455 -0.7030 -0.3312  0.0765
 3302TIP3    H131321   5.389   1.830   0.432 -0.2073  0.2129  0.3656
 3302TIP3    H231322   5.273   1.907   0.371 -0.7961 -0.9842 -0.0502
 3303TIP3   OH231323   0.042   0.500  15.921  0.4268 -0.4041  0.0284
 3303TIP3    H131324  -0.005   0.435  15.973 -0.4450 -1.5439 -2.1016
 3303TIP3    H231325   0.063   0.454  15.839  2.5507  1.0491 -0.2892
 3304TIP3   OH231326   6.550   3.898  14.546  0.3962  0.1358  0.1232
 3304TIP3    H131327   6.530   3.863  14.459  0.4768  1.1980 -0.3354
 3304TIP3    H231328   6.502   3.842  14.607 -2.5836  1.5210 -0.8158
 3305TIP3   OH231329   2.425   0.061  10.326 -0.1774 -0.2174 -0.2437
 3305TIP3    H131330   2.418   0.032  10.417  0.4945 -0.0481 -0.1308
 3305TIP3    H231331   2.349   0.024  10.282 -0.8203  0.1880  0.5219
 3306TIP3   OH231332   6.091   1.099   3.134  0.0550  0.2397  0.7275
 3306TIP3    H131333   6.137   1.018   3.113  1.4974  1.4645 -1.0990
 3306TIP3    H231334   6.161   1.159   3.161 -0.6507  1.6392 -0.4970
 3307TIP3   OH231335   3.942   2.347   0.996 -0.0736  0.1221  0.1156
 3307TIP3    H131336   3.946   2.255   0.970 -0.2043  0.0955  0.1902
 3307TIP3    H231337   3.988   2.351   1.080 -3.4390 -0.5760  2.0935
 3308TIP3   OH231338   2.213   6.685  16.341 -0.1608  0.6954  0.4545
 3308TIP3    H131339   2.232   6.640  16.259  1.3178  1.5563  0.3125
 3308TIP3    H231340   2.241   6.776  16.326  1.6295  0.5245  2.4071
 3309TIP3   OH231341   6.535   2.297  15.957 -0.1975 -0.1513 -0.0449
 3309TIP3    H131342   6.520   2.205  15.981 -0.2896 -0.1917 -0.2512
 3309TIP3    H231343   6.450   2.339  15.967 -0.4900 -0.4104 -1.3407
 3310TIP3   OH231344   0.549   6.650  13.228  0.5809 -0.0285  0.2078
 3310TIP3    H131345   0.479   6.625  13.167 -0.6353  2.2641  0.6043
 3310TIP3    H231346   0.509   6.645  13.314  1.0605  0.7352  0.4841
 3311TIP3   OH231347   1.843   5.811   0.075  0.7849  0.3537 -0.5355
 3311TIP3    H131348   1.768   5.767   0.115  1.1544 -0.3489 -0.6090
 3311TIP3    H231349   1.905   5.740   0.057  2.4499  1.2109  1.6355
 3312TIP3   OH231350   1.460   1.118   0.394  0.0889 -0.3571 -0.4835
 3312TIP3    H131351   1.406   1.040   0.395 -0.6044  0.1167  1.0223
 3312TIP3    H231352   1.452   1.153   0.305 -2.4238 -0.0608 -0.1669
 3313TIP3   OH231353   1.740   3.553  15.551 -0.4109  0.3949 -0.0140
 3313TIP3    H131354   1.678   3.593  15.610  0.4277  0.4957  0.8139
 3313TIP3    H231355   1.811   3.521  15.608 -0.6614 -1.5174 -0.7130
 3314TIP3   OH231356   6.339   6.264  15.187 -0.3566  0.4040  0.0458
 3314TIP3    H131357   6.318   6.171  15.201  0.8884  0.0042 -0.7158
 3314TIP3    H231358   6.435   6.268  15.192 -0.3567  1.5085 -0.7956
 3315TIP3   OH231359   3.243   1.353   2.625 -0.3341  0.2783  0.0878
 3315TIP3    H131360   3.319   1.386   2.577 -0.0560 -1.3192 -0.5659
 3315TIP3    H231361   3.170   1.363   2.564 -0.5587  1.2784  0.5114
 3316TIP3   OH231362   2.324   0.130  12.576  0.4148  0.3197 -0.1783
 3316TIP3    H131363   2.317   0.144  12.670  0.8607 -0.4309 -0.0283
 3316TIP3    H231364   2.250   0.178  12.539 -0.3966 -0.2754  0.6391
 3317TIP3   OH231365   4.950   2.637   0.933 -0.6200  0.0343 -0.3865
 3317TIP3    H131366   4.921   2.709   0.878  0.0180  0.4924 -0.1392
 3317TIP3    H231367   4.949   2.673   1.022  0.2560 -0.0737 -0.3236
 3318TIP3   OH231368   2.702   2.437   3.574  0.3913 -0.3127  0.1028
 3318TIP3    H131369   2.719   2.526   3.542  1.4036 -0.5184  0.0495
 3318TIP3    H231370   2.737   2.436   3.663  0.4488 -0.6796  0.0764
 3319TIP3   OH231371   0.584   3.575  11.636 -0.1888  0.0743 -0.0392
 3319TIP3    H131372   0.641   3.652  11.636 -0.0812 -0.0056  0.1902
 3319TIP3    H231373   0.599   3.534  11.550 -1.4972  1.2336 -0.8304
 3320TIP3   OH231374   6.467   2.734  17.088 -0.4482 -0.6346 -0.6543
 3320TIP3    H131375   6.439   2.682  17.013  0.8554 -2.3184 -0.0066
 3320TIP3    H231376   6.562   2.736  17.082 -0.3284 -0.7366  0.9103
 3321TIP3   OH231377   3.646   5.165  14.824 -0.2472 -0.3425 -0.5345
 3321TIP3    H131378   3.736   5.194  14.813 -0.4328  0.0609 -1.0226
 3321TIP3    H231379   3.632   5.165  14.919  0.2506 -0.3691 -0.4615
 3322TIP3   OH231380   5.321   4.788  13.832  0.1197  0.3037 -0.2093
 3322TIP3    H131381   5.331   4.767  13.925 -1.1284 -0.1065 -0.1546
 3322TIP3    H231382   5.232   4.760  13.811  1.3785 -2.4031 -2.2729
 3323TIP3   OH231383   0.251   4.056  12.689 -0.8809  0.0271 -0.6484
 3323TIP3    H131384   0.213   4.038  12.775  1.2305 -0.9921  0.1046
 3323TIP3    H231385   0.319   3.989  12.678  1.3451  2.3456 -1.5346
 3324TIP3   OH231386   5.620   3.251   0.869  0.3480 -0.2213  0.3084
 3324TIP3    H131387   5.672   3.171   0.866  0.4354 -0.2132  1.2666
 3324TIP3    H231388   5.537   3.224   0.909  0.6842  0.3091  1.4118
 3325TIP3   OH231389   5.084   3.461  13.811 -0.1622  0.4701  0.1764
 3325TIP3    H131390   5.124   3.543  13.840 -0.2043  0.8026 -0.7010
 3325TIP3    H231391   5.086   3.465  13.716  2.4638 -1.8160  0.0824
 3326TIP3   OH231392   2.369   2.172   4.116  0.0815 -0.2253 -0.1852
 3326TIP3    H131393   2.389   2.173   4.210 -1.8333  0.7300  0.2425
 3326TIP3    H231394   2.288   2.121   4.110  0.0687 -0.0761 -1.2863
 3327TIP3   OH231395   1.642   2.127   0.654  0.7920 -0.2547 -0.1520
 3327TIP3    H131396   1.672   2.037   0.647  1.2686 -0.2219  1.2822
 3327TIP3    H231397   1.549   2.124   0.629  0.6372 -1.2565  0.5102
 3328TIP3   OH231398   4.696   6.776  13.285 -0.2145  0.2171 -0.3530
 3328TIP3    H131399   4.694   6.868  13.311 -0.8335 -0.2839  1.3991
 3328TIP3    H231400   4.616   6.739  13.322  0.7818 -1.3640  0.2638
 3329TIP3   OH231401   4.723   1.960   3.650 -0.2255 -0.0922 -0.0480
 3329TIP3    H131402   4.664   1.902   3.699 -0.3844  0.2094  0.1152
 3329TIP3    H231403   4.670   2.035   3.625 -0.3334 -0.5808 -1.3295
 3330TIP3   OH231404   6.700   2.808  11.442 -0.4085 -0.0941  1.0249
 3330TIP3    H131405   6.721   2.879  11.382  1.1845 -0.0846  1.5693
 3330TIP3    H231406   6.652   2.850  11.513  1.9642  0.7556  2.1758
 3331TIP3   OH231407   0.846   0.921   4.187  0.1038  0.3267  0.2479
 3331TIP3    H131408   0.831   0.900   4.279  0.1458  0.4388  0.2803
 3331TIP3    H231409   0.804   1.006   4.175  0.3117  0.4238  0.2220
 3332TIP3   OH231410   2.503   0.694   2.211 -0.4071  0.6613 -0.3908
 3332TIP3    H131411   2.586   0.655   2.185  0.1745  0.3911  1.8341
 3332TIP3    H231412   2.507   0.783   2.176  1.0495  0.8284  0.1795
 3333TIP3   OH231413   6.093   4.488  15.857 -0.1306 -0.3175  0.0513
 3333TIP3    H131414   6.059   4.572  15.887  1.4608 -0.6717  3.1176
 3333TIP3    H231415   6.182   4.507  15.828  0.6079 -1.0607  1.7403
 3334TIP3   OH231416   4.776   2.012  10.541  0.4625 -0.3814 -0.0359
 3334TIP3    H131417   4.747   2.102  10.525 -1.2985 -0.7505  0.9005
 3334TIP3    H231418   4.728   1.986  10.619  1.0301 -2.1251 -0.2571
 3335TIP3   OH231419   0.525   2.974   3.700  0.8723  0.2272  0.4020
 3335TIP3    H131420   0.458   2.907   3.690  0.8239  0.1574  1.1404
 3335TIP3    H231421   0.555   2.992   3.611  1.1391 -1.0250  0.2311
 3336TIP3   OH231422   4.640   1.371   3.242 -0.0460 -0.0524  0.1619
 3336TIP3    H131423   4.564   1.365   3.300  0.5698 -0.2190  0.9520
 3336TIP3    H231424   4.607   1.418   3.165 -1.4795 -1.8809 -0.3715
 3337TIP3   OH231425   0.664   6.597   1.943  1.2310  0.5211  0.0938
 3337TIP3    H131426   0.618   6.679   1.964 -0.9167 -0.8014  0.7574
 3337TIP3    H231427   0.607   6.528   1.979  2.9109 -1.2756 -0.6026
 3338TIP3   OH231428   5.058   3.599  12.781 -0.1515 -0.2272 -0.2997
 3338TIP3    H131429   5.112   3.535  12.736  1.9670  0.9087  0.5694
 3338TIP3    H231430   5.058   3.676  12.724 -0.4553 -0.0475 -0.0609
 3339TIP3   OH231431   0.342   4.326   4.955 -0.7162  0.3182 -0.1874
 3339TIP3    H131432   0.366   4.302   4.866 -0.4855  0.6347 -0.2129
 3339TIP3    H231433   0.261   4.375   4.945 -1.6698 -1.2136 -0.0493
 3340TIP3   OH231434   6.730   4.450  14.907 -0.1134 -0.2064 -0.2802
 3340TIP3    H131435   6.768   4.388  14.845  1.5204  0.0531  0.4413
 3340TIP3    H231436   6.758   4.536  14.875 -1.5730  0.1141 -0.7327
 3341TIP3   OH231437   0.350   5.168   3.031 -0.4983  0.6810  0.5584
 3341TIP3    H131438   0.346   5.073   3.047  0.9857  0.5792  0.3884
 3341TIP3    H231439   0.432   5.196   3.071 -1.1759  2.0068  1.0616
 3342TIP3   OH231440   1.712   3.560   3.265 -0.4483 -0.2476  0.0604
 3342TIP3    H131441   1.643   3.564   3.331 -0.8528  0.6956 -0.4190
 3342TIP3    H231442   1.669   3.525   3.187 -0.1840 -0.4718  0.0118
 3343TIP3   OH231443   5.184   4.119   1.424  0.0476 -0.2222 -0.1834
 3343TIP3    H131444   5.270   4.078   1.416  0.5205  0.7259 -0.0787
 3343TIP3    H231445   5.161   4.110   1.516  1.1099  1.5863  0.2936
 3344TIP3   OH231446   5.894   2.658   2.694 -0.3518  0.9362 -0.0122
 3344TIP3    H131447   5.941   2.654   2.611 -0.2891  0.7199  0.0345
 3344TIP3    H231448   5.862   2.749   2.699 -0.4083  0.9321 -0.2998
 3345TIP3   OH231449   5.042   2.304   1.341  0.5481 -0.2539  0.3130
 3345TIP3    H131450   4.996   2.370   1.291  0.5913  0.5143  1.2661
 3345TIP3    H231451   4.993   2.223   1.327 -1.3143  0.6227  1.5983
 3346TIP3   OH231452   6.704   4.272  10.929  0.5031  0.3424 -0.3649
 3346TIP3    H131453   6.731   4.324  10.853  2.1735  1.5316  0.9996
 3346TIP3    H231454   6.610   4.289  10.938 -0.2311 -1.7298 -3.5999
 3347TIP3   OH231455   2.072   6.416  12.767  0.2836  0.9491 -0.3674
 3347TIP3    H131456   1.978   6.425  12.782  0.4903  0.8338  1.1182
 3347TIP3    H231457   2.089   6.323  12.780  0.7004  1.0706 -0.0496
 3348TIP3   OH231458   1.755   5.683   1.193  0.1618 -0.0615 -0.1263
 3348TIP3    H131459   1.746   5.757   1.254 -0.5234 -0.1421 -0.1336
 3348TIP3    H231460   1.666   5.652   1.179  0.3166 -0.0253 -1.2077
 3349TIP3   OH231461   3.238   1.755  16.625  0.0520  0.1863  0.0226
 3349TIP3    H131462   3.171   1.796  16.680 -2.5466 -0.8755 -2.2236
 3349TIP3    H231463   3.259   1.822  16.560  0.1935  0.0596 -0.0618
 3350TIP3   OH231464   2.986   2.517  15.109  0.1278  0.0601 -0.1804
 3350TIP3    H131465   2.904   2.479  15.141  0.2619 -1.1837 -1.2459
 3350TIP3    H231466   3.020   2.568  15.182 -1.0754 -0.2684  0.6193
 3351TIP3   OH231467   2.184   1.435  13.897 -0.5332  0.1578 -0.2130
 3351TIP3    H131468   2.196   1.361  13.837  2.0666  0.2358  0.1565
 3351TIP3    H231469   2.127   1.401  13.965  0.6715 -1.5579 -0.0250
 3352TIP3   OH231470   1.971   5.936   5.118  0.2407  0.0805 -0.4768
 3352TIP3    H131471   1.944   5.877   5.188  1.0497  0.8663  0.5029
 3352TIP3    H231472   2.061   5.961   5.140 -0.2724  2.1203 -0.5624
 3353TIP3   OH231473   0.343   5.540  15.630  0.1743  0.2797  0.2128
 3353TIP3    H131474   0.329   5.608  15.564 -1.7635 -0.2931  0.0008
 3353TIP3    H231475   0.351   5.459  15.580  0.9949  0.1587  0.5432
 3354TIP3   OH231476   5.213   4.986   0.608 -0.4795 -0.0768 -0.2237
 3354TIP3    H131477   5.133   4.973   0.558 -0.9622  0.7013  0.3422
 3354TIP3    H231478   5.250   5.068   0.575  0.2611 -0.6002 -0.7140
 3355TIP3   OH231479   1.354   4.170  14.324  0.1964 -0.0884 -0.5981
 3355TIP3    H131480   1.437   4.131  14.350 -0.0615 -1.4594 -1.7647
 3355TIP3    H231481   1.376   4.260  14.300  0.8767  0.3752  1.6403
 3356TIP3   OH231482   3.269   2.773  12.674 -0.5339 -0.1883  0.0816
 3356TIP3    H131483   3.229   2.712  12.612  0.9074  1.5855 -2.7034
 3356TIP3    H231484   3.234   2.859  12.649  0.3225  0.6087  1.5469
 3357TIP3   OH231485   5.997   0.825   2.770 -0.1812  0.2471  0.1737
 3357TIP3    H131486   5.950   0.746   2.743  2.1106 -1.4088  0.8870
 3357TIP3    H231487   5.937   0.897   2.750 -1.8416 -1.5763 -1.5629
 3358TIP3   OH231488   1.591   3.481   5.928  0.0374 -0.3899 -0.4260
 3358TIP3    H131489   1.687   3.481   5.928  0.1304  2.9702  1.4330
 3358TIP3    H231490   1.568   3.539   5.856 -0.6133 -1.0053 -0.7159
 3359TIP3   OH231491   0.803   3.708   0.985 -0.1229 -0.5057 -0.2249
 3359TIP3    H131492   0.884   3.721   0.937 -0.1419 -0.0767 -0.1436
 3359TIP3    H231493   0.734   3.736   0.925 -0.0448  1.6272  0.6339
 3360TIP3   OH231494   5.336   5.144   3.764  0.2333  0.0649  0.0418
 3360TIP3    H131495   5.320   5.206   3.835 -1.6760 -0.4575  0.1186
 3360TIP3    H231496   5.415   5.098   3.789  1.0129  1.6458  0.5617
 3361TIP3   OH231497   3.957   4.367   3.421  0.5011 -0.3266 -0.0594
 3361TIP3    H131498   3.899   4.412   3.482  0.7268 -0.1622  0.0381
 3361TIP3    H231499   3.913   4.374   3.336 -0.1280 -1.1308  0.2001
 3362TIP3   OH231500   4.297   5.860  12.222 -0.2896 -0.1644 -0.1103
 3362TIP3    H131501   4.292   5.955  12.238  1.4876  0.2241 -1.6615
 3362TIP3    H231502   4.347   5.853  12.140 -1.7369 -2.3851 -0.8179
 3363TIP3   OH231503   4.032   1.183   4.103  0.4338 -0.2823 -0.1423
 3363TIP3    H131504   4.081   1.204   4.023  0.8052 -2.4243 -0.5180
 3363TIP3    H231505   3.948   1.228   4.093  0.5710 -0.3318 -1.6258
 3364TIP3   OH231506   5.670   4.960   1.712 -1.1000 -0.2322  0.7128
 3364TIP3    H131507   5.634   5.048   1.720 -0.7976  0.1052 -1.3959
 3364TIP3    H231508   5.625   4.922   1.637  2.7519  0.1366 -1.9191
 3365TIP3   OH231509   0.991   2.633  16.432 -0.5220 -0.4025  0.4082
 3365TIP3    H131510   0.920   2.592  16.482 -1.4342 -0.7593 -1.1434
 3365TIP3    H231511   1.070   2.609  16.479 -1.4669  0.5197  2.5361
 3366TIP3   OH231512   6.581   3.075   3.520  0.3637 -0.5204  0.0112
 3366TIP3    H131513   6.489   3.071   3.491  0.5731  3.2356 -1.4658
 3366TIP3    H231514   6.631   3.083   3.439  1.7368  0.8184  0.9782
 3367TIP3   OH231515   1.216   5.997   3.512  0.1970 -0.1381  0.1498
 3367TIP3    H131516   1.135   5.977   3.465 -0.1807  0.8303  0.3706
 3367TIP3    H231517   1.206   5.954   3.597 -1.5601  2.7316  1.4543
 3368TIP3   OH231518   3.427   2.666   3.454  0.1079  0.6394 -0.2850
 3368TIP3    H131519   3.410   2.580   3.494 -1.1446 -0.0235 -2.1994
 3368TIP3    H231520   3.523   2.673   3.454  0.2244 -0.6971  0.0073
 3369TIP3   OH231521   6.392   5.089   4.281 -0.2260  0.1851  0.3233
 3369TIP3    H131522   6.318   5.084   4.221 -0.5025  0.3729  0.6493
 3369TIP3    H231523   6.407   4.998   4.308 -0.3770  0.1559  0.3095
 3370TIP3   OH231524   1.080   2.067   0.802  0.3822  0.0973  0.2428
 3370TIP3    H131525   1.051   2.150   0.766  2.3545  0.4875 -0.4629
 3370TIP3    H231526   1.069   2.004   0.731  1.9663  0.3896 -0.2596
 3371TIP3   OH231527   2.231   5.053  15.324  0.4148 -0.1793  0.3491
 3371TIP3    H131528   2.188   5.117  15.381  0.3787  0.0424  0.0759
 3371TIP3    H231529   2.229   4.971  15.374 -0.8139 -0.2974  0.1226
 3372TIP3   OH231530   0.238   2.452  15.628  0.3374 -0.5535 -0.0787
 3372TIP3    H131531   0.208   2.380  15.683  0.1536  0.6633  1.4323
 3372TIP3    H231532   0.323   2.476  15.665  0.9682 -0.7765 -1.3366
 3373TIP3   OH231533   3.758   1.803  14.321 -0.2635 -0.1897 -0.0979
 3373TIP3    H131534   3.721   1.716  14.306  0.1507 -0.3350 -0.2903
 3373TIP3    H231535   3.701   1.843  14.387 -0.5657 -0.5360 -0.1489
 3374TIP3   OH231536   5.931   3.721  12.540  0.2994  0.5566  0.2564
 3374TIP3    H131537   5.894   3.691  12.623 -0.5558  1.7762  0.3403
 3374TIP3    H231538   5.860   3.712  12.477  1.2642 -1.3595 -0.5979
 3375TIP3   OH231539   1.142   2.221   2.746 -0.1282  0.5204  0.6250
 3375TIP3    H131540   1.118   2.311   2.770 -2.1070  0.4028 -0.7691
 3375TIP3    H231541   1.175   2.229   2.656  1.3659  0.0821  1.1165
 3376TIP3   OH231542   5.586   3.215   1.923  1.0620 -0.6710 -0.4769
 3376TIP3    H131543   5.516   3.163   1.963  0.9514 -1.4457 -1.6619
 3376TIP3    H231544   5.621   3.159   1.854  2.6033 -0.1350 -0.1362
 3377TIP3   OH231545   1.411   1.341   4.400  0.1584  0.1859  0.5045
 3377TIP3    H131546   1.356   1.266   4.380  0.0139  0.5665 -0.5620
 3377TIP3    H231547   1.443   1.325   4.489  0.2418 -1.2050  0.2275
 3378TIP3   OH231548   0.954   5.952   2.250  0.2120  0.2464  0.0377
 3378TIP3    H131549   1.043   5.942   2.285  0.3266 -2.5500 -0.9040
 3378TIP3    H231550   0.898   5.907   2.313 -0.3522  0.6137 -0.1933
 3379TIP3   OH231551   5.420   5.795  11.519 -0.4941  0.2327 -0.7429
 3379TIP3    H131552   5.448   5.873  11.567 -0.3272 -1.2513  1.6416
 3379TIP3    H231553   5.338   5.821  11.477 -1.4390  1.1451  1.5688
 3380TIP3   OH231554   3.884   0.733   5.411  0.4592  0.1095  0.3034
 3380TIP3    H131555   3.904   0.711   5.320  0.5519  0.9697  0.1164
 3380TIP3    H231556   3.874   0.828   5.412 -1.5757 -0.0975  0.7995
 3381TIP3   OH231557   6.699   5.138   5.793  0.1205 -0.6658 -0.0561
 3381TIP3    H131558   6.748   5.182   5.863  1.6586 -1.1101 -0.8270
 3381TIP3    H231559   6.633   5.086   5.839  0.5132 -0.2279  1.0224
 3382TIP3   OH231560   6.632   0.662  15.208  0.4031  0.1966  0.5449
 3382TIP3    H131561   6.629   0.570  15.236  0.5523  0.1135  0.2888
 3382TIP3    H231562   6.545   0.679  15.172  0.8350 -0.2623 -0.7246
 3383TIP3   OH231563   0.685   4.908   0.562  0.0670  0.8224  0.7579
 3383TIP3    H131564   0.593   4.893   0.543  1.0239 -2.8161 -1.2964
 3383TIP3    H231565   0.687   4.923   0.657 -2.4289 -0.8576  1.1263
 3384TIP3   OH231566   3.646   0.217  15.517  0.3034 -0.6369  0.1095
 3384TIP3    H131567   3.571   0.182  15.468  0.9531 -0.7566 -0.8276
 3384TIP3    H231568   3.720   0.204  15.458  0.4432  3.2148 -0.6781
 3385TIP3   OH231569   4.453   5.888   5.685 -0.3153  0.1902  0.3107
 3385TIP3    H131570   4.494   5.971   5.663 -0.1315 -0.1734 -0.7354
 3385TIP3    H231571   4.472   5.876   5.778  0.7810  0.6775  0.1580
 3386TIP3   OH231572   5.950   3.203  13.944  0.0122  0.4850  0.1990
 3386TIP3    H131573   5.981   3.272  13.885 -2.4784  0.2864 -1.4538
 3386TIP3    H231574   6.016   3.135  13.939  0.8012  1.3028 -0.8733
 3387TIP3   OH231575   0.084   6.090  14.652 -0.1098  0.9067 -0.0370
 3387TIP3    H131576   0.094   6.135  14.568  1.1619  0.2440 -0.2473
 3387TIP3    H231577   0.012   6.136  14.695 -1.1097  0.9485 -1.6958
 3388TIP3   OH231578   6.434   6.784   1.552 -0.0030 -0.1625 -0.0641
 3388TIP3    H131579   6.477   6.732   1.485  0.0709 -0.5753  0.3010
 3388TIP3    H231580   6.395   6.857   1.505 -0.5366 -0.8176 -0.6430
 3389TIP3   OH231581   5.427   4.545  15.642 -0.1435  0.5084  0.5193
 3389TIP3    H131582   5.395   4.479  15.703  0.3260  0.7329  1.0106
 3389TIP3    H231583   5.354   4.608  15.636 -1.9014 -1.6977 -2.4627
 3390TIP3   OH231584   5.927   1.081  14.368  0.7066  0.3896  0.8422
 3390TIP3    H131585   5.882   1.092  14.284  0.8340 -1.4835  0.4990
 3390TIP3    H231586   5.866   1.117  14.433 -0.4004 -0.2008  0.1585
 3391TIP3   OH231587   2.788   0.548   5.891  0.2005 -0.0044 -0.7307
 3391TIP3    H131588   2.814   0.456   5.902  0.7295  0.1446 -0.7373
 3391TIP3    H231589   2.851   0.584   5.829  0.4381  0.5547 -0.1687
 3392TIP3   OH231590   4.418   1.193   1.122 -0.0568  0.2366  0.4552
 3392TIP3    H131591   4.457   1.162   1.040 -0.4865  1.1062 -0.0906
 3392TIP3    H231592   4.376   1.116   1.159  2.9991 -0.9819  1.5719
 3393TIP3   OH231593   1.893   1.420   2.672 -0.3534  0.1283 -0.2735
 3393TIP3    H131594   1.971   1.444   2.722 -1.0093  0.0689  0.7869
 3393TIP3    H231595   1.830   1.390   2.737 -1.0750 -0.3626 -1.1729
 3394TIP3   OH231596   5.097   0.529  14.473  0.1025 -0.0722 -0.1592
 3394TIP3    H131597   5.025   0.487  14.426  1.6011 -1.2373 -1.4781
 3394TIP3    H231598   5.175   0.503  14.424  1.3896  1.4155  1.0703
 3395TIP3   OH231599   1.345   6.704   1.915 -0.2596  0.3460 -0.2047
 3395TIP3    H131600   1.323   6.793   1.941 -0.3939  0.0140  0.8580
 3395TIP3    H231601   1.368   6.660   1.997  3.1553  0.3399 -1.0532
 3396TIP3   OH231602   4.208   6.071  12.979  0.3199 -0.0961 -0.1962
 3396TIP3    H131603   4.239   6.043  12.893 -0.1403 -1.3128  0.0222
 3396TIP3    H231604   4.171   6.158  12.965 -0.7872 -0.7594 -1.4501
 3397TIP3   OH231605   0.934   5.037   0.061 -0.3953 -0.0150  0.3301
 3397TIP3    H131606   0.930   5.013  -0.031  0.1551  0.7036  0.1178
 3397TIP3    H231607   0.963   4.956   0.105 -2.8471 -1.0119  0.1750
 3398TIP3   OH231608   5.960   1.790  15.043  0.0359  0.5006 -0.5301
 3398TIP3    H131609   5.906   1.712  15.035  0.9164 -0.1689 -0.0151
 3398TIP3    H231610   5.899   1.863  15.028 -0.9302 -0.2477 -0.2997
 3399TIP3   OH231611   3.866   1.007  17.047  0.4289 -0.1911 -0.0986
 3399TIP3    H131612   3.885   1.055  17.127  1.4031 -1.2194  0.2913
 3399TIP3    H231613   3.950   0.973  17.018  0.2337  0.8697 -2.0365
 3400TIP3   OH231614   3.663   4.847   6.673 -0.2828  0.4514 -0.6351
 3400TIP3    H131615   3.599   4.912   6.643 -1.3931  0.5557  1.8303
 3400TIP3    H231616   3.735   4.853   6.610 -1.3272  2.5343 -1.6754
 3401TIP3   OH231617   0.830   1.451   5.339 -0.0684  0.0342  0.0376
 3401TIP3    H131618   0.864   1.392   5.406  0.4106 -1.3384 -1.3813
 3401TIP3    H231619   0.902   1.461   5.276 -1.3690 -0.7961 -1.6226
 3402TIP3   OH231620   2.795   4.581  15.351  0.1556 -0.0135  0.0062
 3402TIP3    H131621   2.779   4.651  15.288 -2.1936  0.2312  0.8375
 3402TIP3    H231622   2.795   4.624  15.436  1.0794 -0.6776  0.3486
 3403TIP3   OH231623   4.165   4.886  14.888 -0.0129 -0.0569  0.2161
 3403TIP3    H131624   4.158   4.829  14.812 -0.9455  1.0052 -0.5144
 3403TIP3    H231625   4.102   4.956  14.871  0.1424  0.4581  1.7287
 3404TIP3   OH231626   6.714   1.532   0.388 -0.5578  0.4133 -0.1843
 3404TIP3    H131627   6.737   1.575   0.306  0.9452 -0.4712 -0.2340
 3404TIP3    H231628   6.619   1.517   0.381 -0.3082 -0.3494 -2.0828
 3405TIP3   OH231629   1.907   0.698  12.778 -0.0865  0.0064 -0.1895
 3405TIP3    H131630   1.923   0.604  12.787  1.7795  0.2342 -0.8753
 3405TIP3    H231631   1.925   0.717  12.685 -0.7307  0.9987 -0.1293
 3406TIP3   OH231632   1.814   2.564   1.836 -0.3191 -0.2292 -0.4772
 3406TIP3    H131633   1.752   2.574   1.908 -0.4667 -1.3953 -0.4218
 3406TIP3    H231634   1.895   2.537   1.878  0.4300  1.9310 -0.4891
 3407TIP3   OH231635   6.007   6.516  16.168 -0.4390 -0.6317 -0.1527
 3407TIP3    H131636   5.967   6.430  16.152 -1.7469 -0.6228  2.6744
 3407TIP3    H231637   6.095   6.496  16.198 -0.2298 -0.9130 -0.9440
 3408TIP3   OH231638   0.153   2.288   5.473 -0.5801 -0.2646 -0.0862
 3408TIP3    H131639   0.161   2.196   5.446 -2.8784 -0.1733 -1.2150
 3408TIP3    H231640   0.136   2.336   5.392 -3.1924  0.6115  0.9070
 3409TIP3   OH231641   3.974   6.681  15.502 -0.7695 -0.0648  0.0652
 3409TIP3    H131642   3.944   6.768  15.477  0.0849  0.1821 -0.1068
 3409TIP3    H231643   3.956   6.675  15.596 -0.2069  0.5471  0.2110
 3410TIP3   OH231644   4.525   3.043   1.014 -0.0530  0.0270  0.1515
 3410TIP3    H131645   4.469   2.968   0.992  0.7006 -0.8724  1.2850
 3410TIP3    H231646   4.561   3.022   1.100 -0.9827  2.3655  1.1547
 3411TIP3   OH231647   3.348   2.502  13.075 -0.0678  0.2471 -0.4374
 3411TIP3    H131648   3.391   2.425  13.039 -0.5176  0.0321 -0.5131
 3411TIP3    H231649   3.287   2.530  13.006 -1.1510 -0.3443  0.2723
 3412TIP3   OH231650   2.000   6.221  11.495  0.0797  0.2757  0.1309
 3412TIP3    H131651   2.025   6.289  11.433 -0.0581  1.0471  0.9200
 3412TIP3    H231652   2.071   6.221  11.560 -0.6352  0.6460  0.9144
 3413TIP3   OH231653   3.051   5.828   0.128 -0.2158  0.2201  0.2416
 3413TIP3    H131654   2.977   5.831   0.189 -2.0259  1.3862 -1.9265
 3413TIP3    H231655   3.030   5.755   0.069  0.5674  0.2701 -0.1030
 3414TIP3   OH231656   3.879   0.374   5.544  0.1430  0.1207  0.1527
 3414TIP3    H131657   3.888   0.429   5.467 -1.5106  1.1761  0.6912
 3414TIP3    H231658   3.892   0.285   5.511  0.3007  0.6214 -1.1746
 3415TIP3   OH231659   1.081   5.289  13.920  0.3292 -0.0269 -1.4955
 3415TIP3    H131660   1.016   5.353  13.948 -0.1248 -1.0796 -0.0785
 3415TIP3    H231661   1.162   5.339  13.912  0.5048  0.3190  1.8711
 3416TIP3   OH231662   5.775   4.188  15.710  0.7258 -0.0992 -0.4602
 3416TIP3    H131663   5.851   4.237  15.679  1.1900  0.6868  1.8098
 3416TIP3    H231664   5.772   4.207  15.804 -3.0193  0.9202 -0.7073
 3417TIP3   OH231665   4.630   5.590  11.416 -0.2079 -0.4172  0.0461
 3417TIP3    H131666   4.608   5.523  11.480  0.2350  1.5458  2.3218
 3417TIP3    H231667   4.696   5.550  11.360  0.3068 -1.7632  1.5794
 3418TIP3   OH231668   5.843   5.295   4.238 -0.0150 -0.4779  0.1178
 3418TIP3    H131669   5.912   5.358   4.219 -0.0425  0.3770  2.6779
 3418TIP3    H231670   5.761   5.342   4.221 -0.0078 -0.5608 -0.1486
 3419TIP3   OH231671   6.248   2.596   5.982 -0.5908 -0.4041 -0.3534
 3419TIP3    H131672   6.158   2.601   6.015 -0.6096 -1.6142 -0.2026
 3419TIP3    H231673   6.255   2.670   5.922 -1.1531  0.6935  0.8987
 3420TIP3   OH231674   6.611   6.109  15.199  0.6995 -0.1578 -0.1536
 3420TIP3    H131675   6.614   6.038  15.135  2.3609 -1.2685  1.1279
 3420TIP3    H231676   6.680   6.169  15.173  1.2571 -0.5179  0.4715
 3421TIP3   OH231677   2.996   1.922  16.746  0.0897 -0.1157  0.2204
 3421TIP3    H131678   2.949   1.845  16.778 -1.0004  0.2342 -0.5279
 3421TIP3    H231679   2.985   1.988  16.814  0.2648 -0.3217  0.4489
 3422TIP3   OH231680   3.093   4.203   6.061  0.1958 -0.2443 -0.4739
 3422TIP3    H131681   3.097   4.288   6.104  1.9404  0.8545 -2.7147
 3422TIP3    H231682   2.999   4.191   6.043  0.0054  1.5555 -0.8202
 3423TIP3   OH231683   1.013   5.749  12.051 -0.3299  0.8983  0.1720
 3423TIP3    H131684   1.090   5.737  12.106 -0.1024  0.0693 -0.3216
 3423TIP3    H231685   1.020   5.681  11.984 -1.7624  0.4635  0.4391
 3424TIP3   OH231686   6.682   2.732  13.285  0.0208  0.6007  0.8217
 3424TIP3    H131687   6.725   2.814  13.260 -0.3926  0.1380 -1.5240
 3424TIP3    H231688   6.641   2.701  13.204 -2.5997 -0.2502  2.4190
 3425TIP3   OH231689   0.134   0.483   1.435 -0.7543  0.0209 -0.2801
 3425TIP3    H131690   0.225   0.453   1.440 -0.6475  0.4353  0.2856
 3425TIP3    H231691   0.082   0.403   1.437 -0.3678 -0.2799 -1.6385
 3426TIP3   OH231692   4.066   1.212  12.758 -0.1487  0.1814  0.1473
 3426TIP3    H131693   3.994   1.209  12.695 -0.2036 -0.5641  0.2465
 3426TIP3    H231694   4.138   1.168  12.713 -0.5607 -1.4872  1.0732
 3427TIP3   OH231695   5.745   0.944   4.844  0.3690 -0.0813 -0.0750
 3427TIP3    H131696   5.709   1.032   4.860  1.4429  0.6029 -1.3001
 3427TIP3    H231697   5.687   0.885   4.892 -0.8556  1.2263  0.0845
 3428TIP3   OH231698   6.382   3.841   2.592 -0.1747  0.0177  0.0380
 3428TIP3    H131699   6.411   3.925   2.629 -3.0564  1.0274  0.0965
 3428TIP3    H231700   6.367   3.860   2.500 -1.9448 -0.1209  0.2870
 3429TIP3   OH231701   4.538   4.529  15.487  0.3076  0.2548  0.3975
 3429TIP3    H131702   4.501   4.548  15.574  0.0553  0.7030  0.1951
 3429TIP3    H231703   4.465   4.495  15.436  0.2904  0.6562  0.1507
 3430TIP3   OH231704   2.638   1.109  15.230  0.2636 -0.3251  0.2562
 3430TIP3    H131705   2.722   1.088  15.190  1.1569 -1.1758  2.4728
 3430TIP3    H231706   2.614   1.030  15.279 -1.3699  0.2296  0.3896
 3431TIP3   OH231707   4.992   6.426   4.206 -0.0922 -0.0864 -0.3913
 3431TIP3    H131708   4.941   6.504   4.185 -0.0195  0.0118 -0.1948
 3431TIP3    H231709   5.047   6.412   4.129 -2.2601 -1.6829 -1.7290
 3432TIP3   OH231710   2.671   5.144   2.128  0.1119  0.2908 -0.4459
 3432TIP3    H131711   2.752   5.124   2.081 -1.0240 -1.2089 -1.8539
 3432TIP3    H231712   2.694   5.137   2.220  2.2293  2.6065 -0.7478
 3433TIP3   OH231713   1.627   6.485   5.715  0.1837  0.2089 -0.0967
 3433TIP3    H131714   1.719   6.505   5.697  0.8986 -2.0869  0.7969
 3433TIP3    H231715   1.583   6.570   5.715  1.6879  1.0734 -3.8940
 3434TIP3   OH231716   3.719   6.402   0.278 -0.7131  0.2923  0.4445
 3434TIP3    H131717   3.663   6.380   0.353 -1.2103 -0.9744 -0.2819
 3434TIP3    H231718   3.735   6.318   0.235  1.0666  0.7657  0.1589
 3435TIP3   OH231719   0.025   1.008   2.964  0.3029 -0.0053  0.6644
 3435TIP3    H131720   0.015   0.962   3.047  0.8527 -0.8646  0.2493
 3435TIP3    H231721  -0.037   1.081   2.971 -1.1194 -1.2081  1.0242
 3436TIP3   OH231722   1.036   4.685   5.944  0.3743  0.0581  0.1447
 3436TIP3    H131723   0.987   4.730   5.876  0.5755 -0.3284 -0.2638
 3436TIP3    H231724   1.086   4.754   5.987 -1.0505  0.5548  1.0265
 3437TIP3   OH231725   2.536   2.712   2.112 -0.6304 -0.1732  0.1037
 3437TIP3    H131726   2.601   2.667   2.167 -0.7730  0.2102  0.5954
 3437TIP3    H231727   2.588   2.764   2.051 -0.4668  0.6553  0.9338
 3438TIP3   OH231728   5.735   5.173  11.168 -0.4356 -0.1335 -0.4011
 3438TIP3    H131729   5.708   5.254  11.125 -1.4352 -0.2873 -0.0806
 3438TIP3    H231730   5.813   5.145  11.119 -0.6154  0.5368 -1.0881
 3439TIP3   OH231731   4.825   2.706  16.298 -0.0826 -0.2741 -0.9773
 3439TIP3    H131732   4.879   2.655  16.358  0.4137  0.4065 -0.8425
 3439TIP3    H231733   4.865   2.692  16.212  1.8448  2.2101 -0.5461
 3440TIP3   OH231734   2.519   1.712   4.125  0.0710 -1.0116 -0.2375
 3440TIP3    H131735   2.504   1.663   4.044  0.4598 -0.0536 -0.9020
 3440TIP3    H231736   2.435   1.708   4.171 -0.2780 -1.2174 -0.8761
 3441TIP3   OH231737   0.672   0.734   5.511  0.1970 -0.3799 -0.3372
 3441TIP3    H131738   0.738   0.710   5.447  0.1414 -1.1317 -0.1247
 3441TIP3    H231739   0.621   0.654   5.524 -2.2864  0.8028 -2.3060
 3442TIP3   OH231740   6.074   4.409   2.712 -0.0254  0.3202  0.2562
 3442TIP3    H131741   5.979   4.414   2.717 -0.1948 -0.5252 -1.8304
 3442TIP3    H231742   6.095   4.317   2.727  0.4712  0.5028  0.7168
 3443TIP3   OH231743   1.218   2.696  12.371 -0.2767  0.8695 -0.5358
 3443TIP3    H131744   1.137   2.726  12.330 -0.3085  0.5101 -0.7350
 3443TIP3    H231745   1.229   2.606  12.340 -0.6612  0.3601  0.7751
 3444TIP3   OH231746   5.640   4.954  14.036 -0.5555  0.3548  0.1531
 3444TIP3    H131747   5.692   4.978  14.112  1.0990  0.4246 -0.9824
 3444TIP3    H231748   5.653   4.860  14.026 -0.0527  0.5012 -0.5774
 3445TIP3   OH231749   3.482   3.823  16.761 -0.3664  0.1260 -0.5188
 3445TIP3    H131750   3.397   3.793  16.793 -0.3523 -0.8239 -1.3516
 3445TIP3    H231751   3.462   3.892  16.698 -0.4954  0.2429 -0.3501
 3446TIP3   OH231752   5.975   0.627   1.860 -0.2294  0.6024  0.4615
 3446TIP3    H131753   5.936   0.579   1.934  1.5959  0.8892  1.6291
 3446TIP3    H231754   6.010   0.707   1.898  0.2267  1.0281 -0.8152
 3447TIP3   OH231755   0.360   0.310  16.725  0.2173  0.4251  0.1232
 3447TIP3    H131756   0.337   0.227  16.765  2.7017  0.7670  2.3558
 3447TIP3    H231757   0.423   0.350  16.785 -0.3984  3.6266 -1.2132
 3448TIP3   OH231758   5.300   1.625   4.816 -0.4329 -0.1204  0.7716
 3448TIP3    H131759   5.390   1.649   4.793 -0.7146  1.2389  1.0584
 3448TIP3    H231760   5.301   1.619   4.911 -0.7545  0.3440  0.8046
 3449TIP3   OH231761   0.158   4.889  14.974  0.2466  0.5125 -0.1136
 3449TIP3    H131762   0.068   4.919  14.958  0.1106  0.4541  0.5377
 3449TIP3    H231763   0.185   4.935  15.053 -0.1251 -1.3935  1.1536
 3450TIP3   OH231764   4.770   4.626   3.657 -0.5665  0.6568 -0.0847
 3450TIP3    H131765   4.819   4.708   3.648  0.1884  0.3546  1.2863
 3450TIP3    H231766   4.754   4.618   3.751  1.6271 -2.1090  0.1052
 3451TIP3   OH231767   5.936   5.275  16.513  0.1642  0.0805 -0.0924
 3451TIP3    H131768   5.854   5.264  16.466  0.4555 -0.2897 -0.5165
 3451TIP3    H231769   5.921   5.231  16.597 -0.5037  1.1270  0.3450
 3452TIP3   OH231770   0.213   4.511   0.360 -0.1521 -0.9940  1.1348
 3452TIP3    H131771   0.247   4.568   0.429 -1.9202  2.5768 -0.8074
 3452TIP3    H231772   0.285   4.502   0.298 -0.0299 -0.3895  1.1856
 3453TIP3   OH231773   2.902   2.285  16.162  0.3074 -0.8671 -0.0588
 3453TIP3    H131774   2.857   2.289  16.077 -1.3236  1.3318  0.8463
 3453TIP3    H231775   2.984   2.332  16.147 -0.0566 -0.3273 -0.3934
 3454TIP3   OH231776   3.176   4.695  13.200 -0.1520 -0.6117 -0.4000
 3454TIP3    H131777   3.243   4.645  13.153 -0.8437 -1.0207 -0.9627
 3454TIP3    H231778   3.161   4.645  13.280 -1.5867 -1.8855 -1.4379
 3455TIP3   OH231779   0.094   4.715   4.516 -0.3297  0.0970 -0.4259
 3455TIP3    H131780   0.108   4.678   4.428  0.2360  2.9981 -1.5940
 3455TIP3    H231781   0.182   4.727   4.552 -0.4927  0.7093 -0.2266
 3456TIP3   OH231782   2.893   4.353  12.349  0.4908 -0.1108  0.1344
 3456TIP3    H131783   2.917   4.264  12.325 -1.5003 -0.4622 -0.6598
 3456TIP3    H231784   2.851   4.345  12.435 -1.5091 -0.2352 -0.8342
 3457TIP3   OH231785   0.453   3.090   1.010 -0.3467 -0.5097 -0.0205
 3457TIP3    H131786   0.373   3.134   0.981 -0.4144  1.1911  2.6384
 3457TIP3    H231787   0.501   3.073   0.929 -0.7269  3.6840 -1.2065
 3458TIP3   OH231788   2.432   5.898   1.971 -0.0878 -0.3352  0.2868
 3458TIP3    H131789   2.479   5.815   1.971 -0.1439 -0.3698 -0.2895
 3458TIP3    H231790   2.344   5.876   2.000  0.1148 -0.3424  0.9236
 3459TIP3   OH231791   6.446   6.736  10.630 -0.1730 -0.2212  0.2430
 3459TIP3    H131792   6.530   6.731  10.585  0.8898 -0.9715  2.2559
 3459TIP3    H231793   6.403   6.813  10.593  1.0506 -0.2671 -1.3429
 3460TIP3   OH231794   0.077   2.508   2.735  0.0948 -0.5659 -0.2221
 3460TIP3    H131795   0.071   2.532   2.643 -0.7503 -0.0033 -0.0283
 3460TIP3    H231796   0.119   2.422   2.735 -0.2732 -0.7488 -1.1479
 3461TIP3   OH231797   3.061   3.481  15.797  0.2149 -0.2069 -0.1816
 3461TIP3    H131798   3.022   3.487  15.710 -0.8773  1.3246  0.3773
 3461TIP3    H231799   3.152   3.456  15.781  0.3093  1.0895 -1.8385
 3462TIP3   OH231800   3.544   6.184   2.495  0.1906 -0.5502 -0.4023
 3462TIP3    H131801   3.585   6.270   2.506  0.9661 -0.7735 -1.4535
 3462TIP3    H231802   3.609   6.133   2.446 -1.7955 -0.5565 -3.1126
 3463TIP3   OH231803   4.596   0.184   5.239  0.0380 -0.0535 -0.0616
 3463TIP3    H131804   4.630   0.128   5.309 -0.2417 -0.8358 -0.5451
 3463TIP3    H231805   4.649   0.263   5.244 -0.5609  0.2655  1.6030
 3464TIP3   OH231806   1.411   6.626   1.186 -0.1760 -0.1033  0.3208
 3464TIP3    H131807   1.398   6.655   1.276 -0.4887  1.9159 -0.3538
 3464TIP3    H231808   1.439   6.704   1.139  1.6569 -1.4973 -1.0091
 3465TIP3   OH231809   0.220   0.620   5.013  0.0638 -0.0666  0.1386
 3465TIP3    H131810   0.277   0.611   5.089 -1.7537 -0.0488  1.5462
 3465TIP3    H231811   0.225   0.536   4.968 -0.3511 -0.7424  1.3595
 3466TIP3   OH231812   3.524   0.507  15.316 -0.2007 -0.8923 -0.5219
 3466TIP3    H131813   3.605   0.497  15.266  0.8376  2.6934  0.3122
 3466TIP3    H231814   3.547   0.481  15.405 -1.1267 -3.8061 -1.0465
 3467TIP3   OH231815   6.191   6.047   4.580 -0.3148  0.6838  0.6662
 3467TIP3    H131816   6.254   5.993   4.531  0.2542  2.1968 -0.2805
 3467TIP3    H231817   6.106   6.010   4.559  0.1301 -0.3515  0.6581
 3468TIP3   OH231818   4.762   4.683   3.294  0.4075  0.1530 -0.2767
 3468TIP3    H131819   4.705   4.740   3.346  0.1611 -0.3370 -0.0054
 3468TIP3    H231820   4.850   4.706   3.322  0.3490  0.9285 -0.7123
 3469TIP3   OH231821   4.440   0.771  10.683  0.1422 -0.1853  0.2718
 3469TIP3    H131822   4.352   0.800  10.705 -0.4211 -0.7769 -1.1288
 3469TIP3    H231823   4.433   0.676  10.674  0.9168 -0.2331  0.1142
 3470TIP3   OH231824   2.331   1.868   5.323  0.6018  0.6043 -0.1564
 3470TIP3    H131825   2.237   1.866   5.339  1.0720 -0.3908  2.8956
 3470TIP3    H231826   2.352   1.782   5.288  0.6287  0.1454  0.9636
 3471TIP3   OH231827   1.686   5.834   0.875  0.3607 -0.1137  0.3168
 3471TIP3    H131828   1.625   5.851   0.804  0.7500  0.0677  0.0238
 3471TIP3    H231829   1.664   5.745   0.904  0.6769 -0.4795 -0.5199
 3472TIP3   OH231830   3.491   0.386  13.405  0.0141  0.8322  0.2517
 3472TIP3    H131831   3.520   0.477  13.405  1.4467  0.4006 -1.4517
 3472TIP3    H231832   3.564   0.337  13.442  0.0594  0.1451 -0.7234
 3473TIP3   OH231833   3.786   6.720   0.308  0.2287  0.1088 -0.0718
 3473TIP3    H131834   3.753   6.655   0.369 -0.8664  0.6429 -0.0870
 3473TIP3    H231835   3.868   6.683   0.275  0.3776 -0.5735  1.0530
 3474TIP3   OH231836   6.237   3.620   5.095 -0.0252 -0.2821 -0.1493
 3474TIP3    H131837   6.228   3.715   5.087 -0.4828 -0.2810  0.3280
 3474TIP3    H231838   6.262   3.606   5.187 -0.6333 -0.6674 -0.0407
 3475TIP3   OH231839   0.266   3.750  17.086 -0.1264  0.4667 -0.1557
 3475TIP3    H131840   0.303   3.675  17.132 -1.8811  0.6624  1.6224
 3475TIP3    H231841   0.342   3.807  17.070  0.8376 -0.5921  0.5633
 3476TIP3   OH231842   0.605   0.848   2.185 -0.5527  0.1658 -0.1365
 3476TIP3    H131843   0.538   0.824   2.248 -1.2212 -3.0282 -1.9301
 3476TIP3    H231844   0.567   0.827   2.100  0.6096  3.6280 -1.6015
 3477TIP3   OH231845   6.001   4.482   6.252  0.8025  0.1026  0.4525
 3477TIP3    H131846   5.910   4.489   6.280  0.8047  0.6790  0.3344
 3477TIP3    H231847   5.998   4.447   6.163  0.8196 -2.2561  1.3517
 3478TIP3   OH231848   3.617   4.745  10.993  0.1889  0.9575 -0.2111
 3478TIP3    H131849   3.555   4.816  10.975 -0.9199  0.0899  0.1211
 3478TIP3    H231850   3.645   4.760  11.083  0.4160  1.3019 -0.3355
 3479TIP3   OH231851   1.718   3.245  15.738 -0.1731  0.2230  0.1612
 3479TIP3    H131852   1.676   3.328  15.760 -0.8471 -0.2387  0.6093
 3479TIP3    H231853   1.775   3.227  15.813 -1.0200 -0.3802  0.6645
 3480TIP3   OH231854   0.193   2.869  14.748  0.3795 -0.1720  0.2554
 3480TIP3    H131855   0.267   2.858  14.689  0.7089 -0.4067  0.7031
 3480TIP3    H231856   0.119   2.892  14.691  0.5086 -1.1745 -0.3297
 3481TIP3   OH231857   3.097   4.342   0.781  0.3120 -0.0142 -0.5573
 3481TIP3    H131858   3.135   4.423   0.746 -1.0406  0.6967 -0.4363
 3481TIP3    H231859   3.086   4.359   0.875  2.7053 -1.4312  0.0253
 3482TIP3   OH231860   1.771   0.208  12.247 -0.2037  0.1598 -0.1001
 3482TIP3    H131861   1.860   0.187  12.221  0.4147  0.1067  1.9467
 3482TIP3    H231862   1.731   0.124  12.270  0.4979  0.5362  2.7175
 3483TIP3   OH231863   4.826   0.453  15.656  0.3044 -0.6598 -0.5986
 3483TIP3    H131864   4.861   0.511  15.587  2.1022 -0.2096  0.6546
 3483TIP3    H231865   4.894   0.386  15.667  0.0127 -0.7428  0.7245
 3484TIP3   OH231866   0.909   3.003  16.697  0.1807  0.0059 -1.0597
 3484TIP3    H131867   0.897   3.096  16.676 -0.6499 -0.2407 -1.7030
 3484TIP3    H231868   0.868   2.957  16.624 -1.1355 -0.8652  0.2115
 3485TIP3   OH231869   4.584   5.320  15.197  0.3248  0.4999 -0.2464
 3485TIP3    H131870   4.582   5.231  15.231 -0.5917  0.2009 -1.0601
 3485TIP3    H231871   4.537   5.315  15.113 -1.5872  2.1372  0.6774
 3486TIP3   OH231872   1.527   6.513  16.329  0.6005 -0.1034  0.4713
 3486TIP3    H131873   1.540   6.597  16.286 -0.3811  0.9302  2.1384
 3486TIP3    H231874   1.442   6.483  16.298  2.2857 -1.9996 -2.5170
 3487TIP3   OH231875   6.113   5.752   0.397 -0.1540 -1.2036 -0.0904
 3487TIP3    H131876   6.115   5.763   0.492 -0.9865  0.4349 -0.2427
 3487TIP3    H231877   6.024   5.779   0.371  0.5779 -0.0587 -1.4987
 3488TIP3   OH231878   5.322   6.505  15.586 -0.2759 -0.0623 -0.7093
 3488TIP3    H131879   5.254   6.463  15.533  0.0299 -1.0172 -0.3558
 3488TIP3    H231880   5.403   6.493  15.535 -0.3306  0.9132 -1.0423
 3489TIP3   OH231881   4.685   5.656  13.434 -0.9280  0.2827 -0.2095
 3489TIP3    H131882   4.687   5.720  13.363  1.2400  0.1329 -0.3120
 3489TIP3    H231883   4.738   5.696  13.503  1.3540 -1.8363 -0.6878
 3490TIP3   OH231884   0.119   2.568  12.434  0.3677  0.0649  0.1024
 3490TIP3    H131885   0.073   2.490  12.464 -0.6864  0.6856  0.1520
 3490TIP3    H231886   0.050   2.624  12.399  1.2030  0.6652 -0.6120
 3491TIP3   OH231887   6.143   2.497   4.446 -0.0189  0.9366 -0.2748
 3491TIP3    H131888   6.125   2.551   4.524  1.8687  0.6988  0.3458
 3491TIP3    H231889   6.122   2.555   4.372  0.1262  1.8740  0.4006
 3492TIP3   OH231890   2.017   5.474  16.843 -0.6211  0.2068 -0.5290
 3492TIP3    H131891   1.949   5.532  16.878 -1.9423 -1.3707 -0.4219
 3492TIP3    H231892   1.970   5.418  16.781  0.2908 -1.8537  0.6061
 3493TIP3   OH231893   0.309   1.446  12.793 -0.2025  0.6342 -0.4169
 3493TIP3    H131894   0.289   1.359  12.829 -0.9182  0.9609 -0.0119
 3493TIP3    H231895   0.360   1.489  12.861 -2.1713  1.5161  0.5454
 3494TIP3   OH231896   1.271   5.738  11.425 -0.5413  0.1714 -0.8692
 3494TIP3    H131897   1.328   5.771  11.355 -1.4378  3.2888 -0.2162
 3494TIP3    H231898   1.182   5.758  11.396 -0.9504  1.1454  0.9552
 3495TIP3   OH231899   5.512   0.356   0.194  0.4773 -0.1217 -0.2342
 3495TIP3    H131900   5.427   0.313   0.203  0.4805  0.0617  0.7592
 3495TIP3    H231901   5.551   0.317   0.115 -0.8901  0.4270 -1.1985
 3496TIP3   OH231902   3.883   1.053  14.835  0.4310 -0.7303  0.0143
 3496TIP3    H131903   3.971   1.017  14.828  1.0550  0.2979  2.0560
 3496TIP3    H231904   3.850   1.019  14.919 -1.0759 -1.0287 -0.6886
 3497TIP3   OH231905   0.832   5.948  12.049 -0.1745  0.1098 -0.0219
 3497TIP3    H131906   0.844   6.011  11.978  0.0445 -0.0441 -0.1249
 3497TIP3    H231907   0.917   5.904  12.057  0.2719  1.1866  1.3621
 3498TIP3   OH231908   5.780   5.629  12.488  0.1510  0.1772 -0.1362
 3498TIP3    H131909   5.818   5.621  12.576 -0.6067  1.1939  0.2980
 3498TIP3    H231910   5.840   5.581  12.431  1.3555  0.6045  0.7442
 3499TIP3   OH231911   5.606   4.526  15.442  0.3691  0.0777  0.0853
 3499TIP3    H131912   5.669   4.582  15.487 -0.4470 -1.0149  2.7214
 3499TIP3    H231913   5.544   4.502  15.510  0.5038 -3.7458 -1.0575
 3500TIP3   OH231914   0.310   5.313  17.037  0.2514 -0.1996 -0.1367
 3500TIP3    H131915   0.345   5.224  17.027 -1.7035 -0.9366 -0.7509
 3500TIP3    H231916   0.246   5.306  17.108  1.0865  1.0470  0.7614
 3501TIP3   OH231917   0.377   1.200  10.925 -0.3491 -0.1477  0.2149
 3501TIP3    H131918   0.369   1.180  10.832 -0.6631 -0.1826  0.2508
 3501TIP3    H231919   0.298   1.250  10.946 -0.4000 -0.3539  0.5203
 3502TIP3   OH231920   5.724   0.795  15.812  0.3288 -0.5781  0.2163
 3502TIP3    H131921   5.727   0.888  15.790  0.8460 -0.6282  0.0676
 3502TIP3    H231922   5.663   0.758  15.749 -0.3016 -0.2495  0.6240
 3503TIP3   OH231923   6.723   3.754   3.755 -0.1695  0.0234 -0.0071
 3503TIP3    H131924   6.737   3.814   3.828 -0.3681  1.0845 -0.8182
 3503TIP3    H231925   6.797   3.769   3.696 -2.0514  2.1150 -1.9408
 3504TIP3   OH231926   6.271   5.717  12.034 -0.1596 -0.7580  0.3675
 3504TIP3    H131927   6.179   5.738  12.052 -0.8061 -3.7004  0.7559
 3504TIP3    H231928   6.308   5.696  12.119  0.2437 -1.8954 -0.0820
 3505TIP3   OH231929   2.937   4.584  16.462  0.0883  0.3333 -0.0579
 3505TIP3    H131930   2.861   4.543  16.502  1.2487  0.1476  2.0484
 3505TIP3    H231931   2.910   4.604  16.373 -2.1434 -0.4579  0.4178
 3506TIP3   OH231932   4.967   0.059  13.187  0.6070  0.6938 -0.3537
 3506TIP3    H131933   4.875   0.062  13.215  0.6660  1.3065 -0.2223
 3506TIP3    H231934   4.980  -0.032  13.159 -0.0089  0.5747 -0.2720
 3507TIP3   OH231935   3.684   0.861   4.709  0.0609 -0.0464  0.1716
 3507TIP3    H131936   3.618   0.791   4.709 -0.4689  0.4172  2.3331
 3507TIP3    H231937   3.648   0.928   4.651  0.3435 -1.3539 -1.5329
 3508TIP3   OH231938   3.552   5.800  14.133  0.3562  0.1646 -0.0864
 3508TIP3    H131939   3.536   5.718  14.087  2.4948 -0.3050 -0.0758
 3508TIP3    H231940   3.568   5.864  14.063  0.3713  0.1816 -0.0680
 3509TIP3   OH231941   2.313   2.142   1.174 -0.2085  0.2662  0.2909
 3509TIP3    H131942   2.237   2.138   1.116  0.1400  0.2014 -0.1636
 3509TIP3    H231943   2.284   2.100   1.254 -1.3227  2.1045  0.8715
 3510TIP3   OH231944   3.703   0.793   1.323 -0.2491  0.3156 -0.5027
 3510TIP3    H131945   3.705   0.768   1.230  1.2722  0.5818 -0.5491
 3510TIP3    H231946   3.610   0.806   1.342 -0.6332 -0.3767 -1.8187
 3511TIP3   OH231947   3.787   6.350  10.272  0.3673  0.3187  0.3253
 3511TIP3    H131948   3.827   6.266  10.296 -0.5399  0.0690  0.9810
 3511TIP3    H231949   3.818   6.412  10.338 -2.0852 -0.3560  2.1870
 3512TIP3   OH231950   6.608   4.210   6.327 -0.2581  0.1032  0.1783
 3512TIP3    H131951   6.678   4.164   6.373 -0.3995 -0.2382  0.0466
 3512TIP3    H231952   6.618   4.301   6.355 -0.1389 -0.0478  0.6298
 3513TIP3   OH231953   0.941   5.674   5.366 -0.3474  0.2225 -0.4419
 3513TIP3    H131954   0.953   5.625   5.285 -1.4247  1.2828 -1.2669
 3513TIP3    H231955   0.846   5.685   5.373 -0.1538  1.6417  0.0484
 3514TIP3   OH231956   1.884   1.508   2.397 -0.4472 -0.1269 -0.7410
 3514TIP3    H131957   1.832   1.435   2.362 -0.2109 -0.8773  0.4693
 3514TIP3    H231958   1.905   1.483   2.486 -1.8565  2.2215  0.3087
 3515TIP3   OH231959   0.429   1.197  16.717  0.6653 -0.1041  0.0529
 3515TIP3    H131960   0.473   1.155  16.644 -1.5266 -0.5747 -1.0256
 3515TIP3    H231961   0.393   1.278  16.680  1.5281  0.8234  1.1847
 3516TIP3   OH231962   1.021   0.027  13.532 -0.1437  0.1988  0.0684
 3516TIP3    H131963   1.006   0.115  13.498 -1.9299  0.1394  0.6128
 3516TIP3    H231964   0.949   0.014  13.594  0.9497 -1.0845  1.0938
 3517TIP3   OH231965   3.423   0.769  13.618  0.4115 -0.1158  0.8977
 3517TIP3    H131966   3.492   0.820  13.575  1.7106 -0.7435  2.2286
 3517TIP3    H231967   3.388   0.827  13.685 -1.8416  0.9850 -1.1257
 3518TIP3   OH231968   2.730   4.491   6.266  0.2464 -0.0234 -0.0230
 3518TIP3    H131969   2.811   4.495   6.216 -0.5726 -1.0730 -1.4603
 3518TIP3    H231970   2.677   4.424   6.222 -0.5398 -0.9002  2.1784
 3519TIP3   OH231971   1.737   3.312  11.466  0.7391  0.0299 -0.1874
 3519TIP3    H131972   1.718   3.327  11.559 -0.8812  2.3183 -0.8347
 3519TIP3    H231973   1.671   3.363  11.420  1.7355 -0.8045 -2.6198
 3520TIP3   OH231974   4.072   2.368   2.435 -0.7179 -0.1941  1.0618
 3520TIP3    H131975   3.989   2.321   2.424  0.5041 -2.2002 -0.0593
 3520TIP3    H231976   4.112   2.329   2.513 -0.2884 -0.1158  0.8838
 3521TIP3   OH231977   1.851   3.302   5.806 -0.4315 -0.1287 -0.2321
 3521TIP3    H131978   1.853   3.364   5.878 -0.7696 -0.9680  0.5108
 3521TIP3    H231979   1.758   3.292   5.785 -0.7293 -3.1649  2.1196
 3522TIP3   OH231980   5.211   1.350  15.458  0.4433 -0.0464 -0.1498
 3522TIP3    H131981   5.278   1.293  15.497 -0.4248 -0.9508  0.0447
 3522TIP3    H231982   5.195   1.312  15.372 -1.6299 -1.3531  0.7753
 3523TIP3   OH231983   5.335   3.920   2.087 -0.0201 -0.0046 -0.3219
 3523TIP3    H131984   5.263   3.889   2.143  1.0812  0.4720  1.4074
 3523TIP3    H231985   5.381   3.840   2.062  0.3463 -0.1225  0.6827
 3524TIP3   OH231986   1.073   0.097   1.769 -0.0779  0.3180 -0.1971
 3524TIP3    H131987   1.082   0.002   1.773 -0.6371  0.2542 -0.3948
 3524TIP3    H231988   1.066   0.117   1.676  0.6579  0.6125 -0.1888
 3525TIP3   OH231989   0.920   6.030  15.205 -0.1763  0.2542 -0.0901
 3525TIP3    H131990   0.885   5.950  15.246  0.0752 -0.3449 -1.0353
 3525TIP3    H231991   0.872   6.038  15.123  1.8960 -0.5992 -1.4246
 3526TIP3   OH231992   0.495   4.015   5.673 -0.0546 -0.6075 -0.3880
 3526TIP3    H131993   0.444   4.080   5.722  2.5806  0.7453  0.6385
 3526TIP3    H231994   0.491   4.046   5.582 -0.5983 -0.2082 -0.2362
 3527TIP3   OH231995   1.612   6.666   0.858  0.4291  0.3665  0.5595
 3527TIP3    H131996   1.552   6.640   0.788  1.2353  1.0073 -0.3725
 3527TIP3    H231997   1.559   6.719   0.918 -0.4917 -0.9653  0.9339
 3528TIP3   OH231998   6.622   0.870   1.812  0.0064 -0.0840 -0.1634
 3528TIP3    H131999   6.530   0.882   1.789  0.1020  2.2859  0.5734
 3528TIP3    H232000   6.669   0.882   1.730 -0.3061 -0.9998 -0.4825
 3529TIP3   OH232001   4.458   6.075   0.296  0.1368 -0.3631  0.4577
 3529TIP3    H132002   4.506   5.997   0.267  1.2072 -0.6068  2.7081
 3529TIP3    H232003   4.368   6.060   0.268  0.8645 -1.1094 -1.5897
 3530TIP3   OH232004   6.246   2.255   0.851  0.3193  0.6381  0.5109
 3530TIP3    H132005   6.286   2.186   0.798 -1.4386 -0.4135  0.5191
 3530TIP3    H232006   6.318   2.316   0.869  1.1839  0.5613 -2.3101
 3531TIP3   OH232007   4.899   3.432   2.005  0.4190 -0.3155  0.4820
 3531TIP3    H132008   4.987   3.449   1.972  0.4562  0.8918  1.1899
 3531TIP3    H232009   4.896   3.475   2.091 -0.2197 -2.0116  1.3434
 3532TIP3   OH232010   2.482   5.045  15.961 -0.0588  0.4324  0.0353
 3532TIP3    H132011   2.554   5.089  16.006 -0.0202 -0.4336  0.8430
 3532TIP3    H232012   2.508   5.043  15.869 -1.3573  4.6422 -0.5274
 3533TIP3   OH232013   5.902   4.698  14.320  0.0582  0.0275  0.5548
 3533TIP3    H132014   5.840   4.768  14.298  1.0483  0.8014  0.1960
 3533TIP3    H232015   5.975   4.711  14.260  0.8794 -0.4556  1.4472
 3534TIP3   OH232016   2.377   3.570   5.949  0.2022 -0.3276 -0.2473
 3534TIP3    H132017   2.463   3.602   5.922  0.0139 -0.7543 -1.3847
 3534TIP3    H232018   2.315   3.634   5.913 -0.1089 -1.3789 -1.6633
 3535TIP3   OH232019   0.324   1.146  10.663 -0.1970 -0.6463  0.4426
 3535TIP3    H132020   0.228   1.148  10.661 -0.1971  0.5628  1.1743
 3535TIP3    H232021   0.348   1.091  10.588 -1.4450 -0.2503 -0.2677
 3536TIP3   OH232022   4.551   4.142  15.771  0.1358 -0.4633  0.2002
 3536TIP3    H132023   4.629   4.193  15.749  1.7513 -3.3041 -0.9493
 3536TIP3    H232024   4.502   4.138  15.689  1.3636 -2.9794 -0.4364
 3537TIP3   OH232025   3.980   4.112   3.080  0.2980  0.2693  0.7130
 3537TIP3    H132026   3.987   4.025   3.040  1.3870  0.2133  1.0090
 3537TIP3    H232027   4.062   4.156   3.057 -0.2045  1.1839  0.6550
 3538TIP3   OH232028   4.111   0.900   5.882 -0.2140  0.2272 -0.0105
 3538TIP3    H132029   4.140   0.811   5.901  1.2075  0.2551 -1.8567
 3538TIP3    H232030   4.185   0.955   5.908  0.2501  0.5591 -1.9056
 3539TIP3   OH232031   5.607   3.655  12.640  0.8093  0.1406  0.4976
 3539TIP3    H132032   5.641   3.569  12.667  0.2797  0.3162  1.7626
 3539TIP3    H232033   5.556   3.637  12.561  1.8208 -0.4897 -0.0313
 3540TIP3   OH232034   5.684   2.477   1.357  0.5476 -0.5257 -0.5556
 3540TIP3    H132035   5.612   2.436   1.405 -0.4922  1.7794 -0.0274
 3540TIP3    H232036   5.663   2.571   1.360  2.8034  0.0418 -1.6944
 3541TIP3   OH232037   4.496   4.691   2.646  0.0495  0.0999  0.4563
 3541TIP3    H132038   4.476   4.746   2.570 -2.4737 -0.7721  0.4549
 3541TIP3    H232039   4.584   4.657   2.628  0.0691  1.0589 -1.3795
 3542TIP3   OH232040   2.739   2.973   6.763 -0.0215 -0.3000 -0.4999
 3542TIP3    H132041   2.664   3.010   6.716 -0.1046 -0.4593 -0.4922
 3542TIP3    H232042   2.700   2.931   6.840  0.2252  1.1266  0.4365
 3543TIP3   OH232043   1.178   3.607   5.764 -0.2513  0.4818  0.1496
 3543TIP3    H132044   1.130   3.667   5.822  0.6898  1.4303 -0.0510
 3543TIP3    H232045   1.206   3.661   5.691  0.9296 -0.1086  0.1470
 3544TIP3   OH232046   0.525   2.063   2.652  0.5357  0.4684  0.1069
 3544TIP3    H132047   0.529   2.053   2.747  3.0980 -0.8509 -0.1104
 3544TIP3    H232048   0.448   2.013   2.625  2.1336 -2.5902  1.0899
 3545TIP3   OH232049   1.384   6.004  11.731  0.4629  0.1984 -0.3936
 3545TIP3    H132050   1.467   6.032  11.768 -0.0619  1.2336  0.0344
 3545TIP3    H232051   1.318   6.053  11.780 -0.3495  0.0666 -1.3226
 3546TIP3   OH232052   0.316   0.725   5.669  0.1312 -0.1186  0.1493
 3546TIP3    H132053   0.320   0.673   5.589 -0.9558 -1.1665  0.7628
 3546TIP3    H232054   0.293   0.662   5.737  0.0507  0.9486  1.1168
 3547TIP3   OH232055   0.132   5.405  14.363 -0.4627 -0.6850  1.0335
 3547TIP3    H132056   0.176   5.409  14.279 -0.7784 -0.2487  0.8856
 3547TIP3    H232057   0.197   5.368  14.423 -0.2989 -1.1534  0.5658
 3548TIP3   OH232058   6.697   1.805  13.929  0.8718  0.3036 -0.5039
 3548TIP3    H132059   6.708   1.896  13.957  1.3452 -0.2073  1.0622
 3548TIP3    H232060   6.786   1.769  13.932  0.5569 -0.4642 -0.1466
 3549TIP3   OH232061   3.218   1.555  13.082  0.2038  0.3082 -0.1632
 3549TIP3    H132062   3.310   1.546  13.107  0.3762 -1.1567 -1.2612
 3549TIP3    H232063   3.203   1.486  13.017 -1.5369  0.8543 -0.3892
 3550TIP3   OH232064   2.310   6.310   6.034 -0.2944 -0.0097  0.1845
 3550TIP3    H132065   2.386   6.357   6.001 -0.0791 -0.1095  0.5320
 3550TIP3    H232066   2.255   6.378   6.073 -0.2209  0.0191  0.2381
 3551TIP3   OH232067   1.279   0.385  10.893  0.0284  0.0454 -0.0703
 3551TIP3    H132068   1.363   0.403  10.936 -0.2481  0.4796  0.3001
 3551TIP3    H232069   1.293   0.410  10.801  0.0422  0.9872  0.1762
 3552TIP3   OH232070   0.371   1.376   1.131  0.2007 -0.1946 -0.3794
 3552TIP3    H132071   0.356   1.463   1.094 -1.8116 -0.2409  0.2715
 3552TIP3    H232072   0.348   1.315   1.060  1.8401 -0.2255 -0.9170
 3553TIP3   OH232073   2.459   6.398   2.011 -0.0900 -0.3289  0.0439
 3553TIP3    H132074   2.464   6.316   1.962  2.2111 -0.2452  0.0630
 3553TIP3    H232075   2.520   6.385   2.084 -3.2683 -0.3659  2.7702
 3554TIP3   OH232076   5.091   4.899   4.272  0.0382 -0.1201 -0.1723
 3554TIP3    H132077   5.041   4.819   4.287 -0.4308  0.3975  1.1259
 3554TIP3    H232078   5.024   4.965   4.251  0.3043  0.2074 -0.0015
 3555TIP3   OH232079   0.437   2.445   0.772 -0.1761 -0.2560 -0.0063
 3555TIP3    H132080   0.393   2.487   0.846  1.4612  1.2929  0.1260
 3555TIP3    H232081   0.529   2.441   0.798  0.0973 -1.6037 -1.1132
 3556TIP3   OH232082   1.303   2.865   0.492  0.2216  0.4589 -0.5093
 3556TIP3    H132083   1.342   2.801   0.551 -2.1065  0.4917  1.0981
 3556TIP3    H232084   1.299   2.821   0.408  0.3227 -0.8369  0.1550
 3557TIP3   OH232085   1.912   1.708  12.408 -0.3609 -0.1719 -0.8491
 3557TIP3    H132086   1.979   1.722  12.341 -0.2231 -0.6985 -0.8267
 3557TIP3    H232087   1.904   1.793  12.451  0.6935 -0.2416 -0.4861
 3558TIP3   OH232088   4.762   5.565   2.784 -0.2200  0.0716  0.2184
 3558TIP3    H132089   4.842   5.550   2.835  0.5259  1.6863 -0.4492
 3558TIP3    H232090   4.702   5.607   2.846 -0.2356 -0.2992  0.4612
 3559TIP3   OH232091   1.969   0.952  14.449  0.1476 -0.2811  0.5100
 3559TIP3    H132092   2.053   0.986  14.480 -0.0526  0.2348  0.5014
 3559TIP3    H232093   1.944   0.886  14.514 -0.3505  0.9163  1.5579
 3560TIP3   OH232094   6.647   3.731  11.975 -0.6620  0.4354  0.4993
 3560TIP3    H132095   6.638   3.808  11.919  2.0828 -1.2758 -2.4874
 3560TIP3    H232096   6.721   3.751  12.032  0.1743  0.0209 -0.4073
 3561TIP3   OH232097   0.558   4.781   2.484 -0.4235 -0.3868  0.2916
 3561TIP3    H132098   0.628   4.846   2.478 -0.1586 -0.5465  1.6262
 3561TIP3    H232099   0.582   4.726   2.558 -1.1194 -1.4603 -0.2643
 3562TIP3   OH232100   6.456   0.298   1.164  0.1213  0.2438 -0.0498
 3562TIP3    H132101   6.418   0.211   1.148  1.2651 -0.2432 -0.1819
 3562TIP3    H232102   6.551   0.283   1.163  0.3164  1.4000  0.4908
 3563TIP3   OH232103   5.011   1.795   5.765  0.5687 -0.4184 -0.1213
 3563TIP3    H132104   4.984   1.804   5.674 -1.2023  1.3453  0.5567
 3563TIP3    H232105   4.936   1.754   5.808  0.3509  1.1650  1.0468
 3564TIP3   OH232106   2.532   3.761  11.644 -0.0350  0.2973 -0.5344
 3564TIP3    H132107   2.601   3.823  11.668 -0.8226  1.8262 -2.1401
 3564TIP3    H232108   2.456   3.815  11.625 -1.4567 -1.3218  0.3547
 3565TIP3   OH232109   5.109   5.766  15.880 -0.2632 -0.0284 -0.2184
 3565TIP3    H132110   5.147   5.753  15.792  1.3927 -0.8073  0.5901
 3565TIP3    H232111   5.184   5.789  15.935 -1.0262 -1.1868  1.3505
 3566TIP3   OH232112   4.823   1.164   2.256  0.0752 -0.3355 -0.2920
 3566TIP3    H132113   4.894   1.227   2.271  1.4007 -1.6662 -0.9156
 3566TIP3    H232114   4.849   1.116   2.178 -1.6095 -0.7272 -0.6249
 3567TIP3   OH232115   6.421   5.670   3.575 -0.2987  0.1351  0.0690
 3567TIP3    H132116   6.416   5.658   3.481  1.0553 -1.0784  0.1257
 3567TIP3    H232117   6.515   5.669   3.594 -0.5126  1.4027  1.3062
 3568TIP3   OH232118   3.146   2.032   5.893 -0.2875  0.7018  0.5161
 3568TIP3    H132119   3.159   2.099   5.960 -1.8121  2.0537 -0.4742
 3568TIP3    H232120   3.056   2.046   5.863  0.0464 -0.5013 -1.1108
 3569TIP3   OH232121   5.499   0.392  17.000 -0.1138 -0.2046 -0.3958
 3569TIP3    H132122   5.539   0.324  17.055  1.2696  0.2238 -0.8657
 3569TIP3    H232123   5.463   0.344  16.925  0.9400 -0.4100 -0.7700
 3570TIP3   OH232124   3.774   1.883  12.330  0.4345  0.6732 -0.3563
 3570TIP3    H132125   3.763   1.802  12.380  2.8587 -0.6783 -1.8511
 3570TIP3    H232126   3.706   1.878  12.262 -0.1044  0.3942  0.2006
 3571TIP3   OH232127   4.761   2.419   5.206 -0.2292 -0.1001  0.4090
 3571TIP3    H132128   4.690   2.358   5.228 -0.0701 -0.3909  0.1230
 3571TIP3    H232129   4.728   2.504   5.232  0.1016 -0.4775  2.0953
 3572TIP3   OH232130   2.520   2.285  16.468 -0.2297 -0.3564 -0.5200
 3572TIP3    H132131   2.542   2.196  16.442 -0.3991 -0.6005  0.1457
 3572TIP3    H232132   2.457   2.315  16.402  0.3253 -0.4953 -1.1063
 3573TIP3   OH232133   0.931   5.791   6.673 -0.7655  0.5772  0.1865
 3573TIP3    H132134   0.929   5.825   6.762 -1.3579  1.5663 -0.1955
 3573TIP3    H232135   0.839   5.789   6.646 -0.8542 -2.2513  0.5295
 3574TIP3   OH232136   4.955   1.829  12.337 -0.2876 -0.0254  0.5885
 3574TIP3    H132137   4.953   1.897  12.270 -0.6692  0.0822  0.7055
 3574TIP3    H232138   5.041   1.788  12.329  0.6664  1.6962  1.7553
 3575TIP3   OH232139   1.616   2.761   1.558  0.3287 -0.3018  0.2231
 3575TIP3    H132140   1.595   2.838   1.505  0.9055  0.6767  1.3872
 3575TIP3    H232141   1.539   2.705   1.550 -0.5792  0.9119  0.2642
 3576TIP3   OH232142   4.764   4.560  17.116  0.1052 -0.5149 -0.3492
 3576TIP3    H132143   4.697   4.494  17.099  1.2540 -1.7313 -0.2742
 3576TIP3    H232144   4.807   4.573  17.031 -0.4387  0.5146 -0.4760
 3577TIP3   OH232145   2.133   4.270  16.561 -0.8237  0.4094 -0.0649
 3577TIP3    H132146   2.203   4.205  16.555 -0.4651  0.7734  0.1798
 3577TIP3    H232147   2.177   4.354  16.547 -1.0779  0.7078  0.8944
 3578TIP3   OH232148   0.766   3.293   1.457  0.2607  0.0618 -0.3255
 3578TIP3    H132149   0.721   3.209   1.465  1.6989 -0.5634  1.8034
 3578TIP3    H232150   0.839   3.276   1.399 -0.1945  0.1813 -0.9377
 3579TIP3   OH232151   4.901   1.909  11.598 -0.2650 -0.0034 -0.3225
 3579TIP3    H132152   4.927   1.837  11.540  1.6499  1.9593 -2.0163
 3579TIP3    H232153   4.983   1.937  11.639 -0.5904  2.7088 -1.4600
 3580TIP3   OH232154   2.333   1.990  16.176 -0.1755 -0.4126 -0.0952
 3580TIP3    H132155   2.286   1.965  16.256  0.7271  0.2116  0.6435
 3580TIP3    H232156   2.333   1.911  16.122  0.7677 -1.3879  1.2938
 3581TIP3   OH232157   3.273   2.278   4.558  0.2544  0.2029 -0.3526
 3581TIP3    H132158   3.321   2.259   4.639  0.4609  1.5345 -0.1471
 3581TIP3    H232159   3.181   2.280   4.584  0.3287  0.7400 -0.1168
 3582TIP3   OH232160   3.252   6.630  14.451  0.3071  0.2514 -0.8270
 3582TIP3    H132161   3.329   6.642  14.506 -0.9282  1.6909  0.6190
 3582TIP3    H232162   3.199   6.566  14.498 -1.5070  2.6830  0.5154
 3583TIP3   OH232163   6.526   5.240   4.688 -0.1334 -0.4132  0.3439
 3583TIP3    H132164   6.500   5.148   4.700 -2.2425  0.0092 -0.7168
 3583TIP3    H232165   6.447   5.283   4.655  0.9994  1.6742  0.2685
 3584TIP3   OH232166   4.005   6.226   0.758 -0.0441  0.0443  0.0874
 3584TIP3    H132167   4.012   6.303   0.815 -2.1048 -1.0291  1.8442
 3584TIP3    H232168   4.032   6.153   0.813  1.2724 -0.6112 -1.3785
 3585TIP3   OH232169   0.207   4.037  14.639  0.7571  0.7093  0.2190
 3585TIP3    H132170   0.117   4.039  14.673  0.4351  0.1127 -0.5891
 3585TIP3    H232171   0.262   4.054  14.716 -0.0361  0.9101  0.7501
 3586TIP3   OH232172   0.903   6.722  14.766 -0.4436  0.0951  0.4594
 3586TIP3    H132173   0.931   6.685  14.682 -1.0032 -0.4796  0.5215
 3586TIP3    H232174   0.966   6.791  14.784 -1.7691  1.9122 -1.6697
 3587TIP3   OH232175   1.255   3.977   5.363  0.6206  0.1480  0.1788
 3587TIP3    H132176   1.206   4.001   5.284 -0.2338 -0.4774  0.5152
 3587TIP3    H232177   1.344   4.009   5.346  0.0234  1.6322 -0.2868
 3588TIP3   OH232178   0.967   0.283   2.900  0.1909  0.0289 -0.8294
 3588TIP3    H132179   0.894   0.223   2.885  0.8628 -0.6604 -1.3581
 3588TIP3    H232180   1.010   0.291   2.815  0.8683  0.2528 -0.4698
 3589TIP3   OH232181   4.302   1.416  14.660 -0.3362 -0.7724  0.0404
 3589TIP3    H132182   4.324   1.465  14.582  1.2524 -0.1907  0.8337
 3589TIP3    H232183   4.299   1.481  14.730 -1.1446 -1.3692  0.5749
 3590TIP3   OH232184   4.133   0.067  15.769 -0.4912  0.0358 -0.2059
 3590TIP3    H132185   4.228   0.077  15.772 -0.7140  2.2746  0.3698
 3590TIP3    H232186   4.118  -0.026  15.783  1.5285 -0.0469  1.7126
 3591TIP3   OH232187   0.351   5.035  13.480  0.1904  0.0110 -0.2869
 3591TIP3    H132188   0.376   5.012  13.570 -0.3798 -0.9007 -0.3525
 3591TIP3    H232189   0.397   5.117  13.462 -1.4503  1.4138  1.6606
 3592TIP3   OH232190   2.342   0.241  16.635 -0.1449 -0.4248 -0.4334
 3592TIP3    H132191   2.264   0.264  16.583  0.2139  1.0907 -0.3479
 3592TIP3    H232192   2.308   0.207  16.717 -0.7220 -2.3266 -1.4285
 3593TIP3   OH232193   0.471   0.785   0.281  0.3811 -0.6167 -0.1212
 3593TIP3    H132194   0.450   0.699   0.246 -0.3448 -0.0442 -1.1336
 3593TIP3    H232195   0.397   0.840   0.254  0.9139  0.3521  0.3717
 3594TIP3   OH232196   5.970   5.330   4.785 -0.1886 -0.0475  0.5388
 3594TIP3    H132197   5.986   5.250   4.734 -1.8615  0.6336 -1.1180
 3594TIP3    H232198   5.969   5.400   4.720 -1.0004  1.0313  1.6819
 3595TIP3   OH232199   5.696   4.161  13.290 -0.2834 -0.1776  0.5630
 3595TIP3    H132200   5.689   4.187  13.381  1.6991 -0.7657  0.9014
 3595TIP3    H232201   5.771   4.102  13.287 -0.6734 -0.6206 -1.3522
 3596TIP3   OH232202   0.982   4.155   1.720 -0.9431 -0.0419  0.6500
 3596TIP3    H132203   0.982   4.126   1.629 -0.7341 -1.6180  1.1457
 3596TIP3    H232204   1.009   4.247   1.715  0.1213 -0.4129 -0.7804
 3597TIP3   OH232205   2.656   5.369  16.994  0.2137 -0.8610 -0.3292
 3597TIP3    H132206   2.576   5.379  17.046  2.1432  1.2272  2.4031
 3597TIP3    H232207   2.658   5.445  16.937 -0.9421 -2.1728 -2.1544
 3598TIP3   OH232208   3.204   6.498   1.022 -0.2798 -0.1049 -0.0845
 3598TIP3    H132209   3.297   6.500   1.001 -0.0564  0.5626  0.9303
 3598TIP3    H232210   3.167   6.571   0.972  0.6399  2.9927  3.4650
 3599TIP3   OH232211   0.563   1.360  10.661  0.5044 -0.0651 -0.2232
 3599TIP3    H132212   0.506   1.414  10.606  0.7153 -0.1079 -0.4839
 3599TIP3    H232213   0.519   1.275  10.664 -0.8419  0.6570  1.7798
 3600TIP3   OH232214   4.924   0.358  16.035 -0.5940 -0.4031  0.4326
 3600TIP3    H132215   4.845   0.405  16.009 -0.3762 -0.3108 -0.0707
 3600TIP3    H232216   4.943   0.301  15.960  0.7101  0.7157 -0.1114
 3601TIP3   OH232217   5.640   4.979  16.123 -0.2986  0.1225  0.1803
 3601TIP3    H132218   5.572   5.039  16.154 -0.0631  0.5926 -0.2140
 3601TIP3    H232219   5.647   4.913  16.192 -1.5773 -0.2621 -0.0637
 3602TIP3   OH232220   3.120   3.283   3.194 -0.0108  0.3170 -0.0210
 3602TIP3    H132221   3.183   3.322   3.254  0.0369  0.4620 -0.1671
 3602TIP3    H232222   3.057   3.239   3.252 -0.4637  1.2038  0.1670
 3603TIP3   OH232223   6.268   0.894  13.427 -0.6497  0.3303  0.0934
 3603TIP3    H132224   6.180   0.932  13.426 -0.4475  0.7907 -0.1826
 3603TIP3    H232225   6.265   0.829  13.497 -0.5274  1.9759  1.6512
 3604TIP3   OH232226   1.158   3.733  11.768 -0.2111 -0.0742 -0.4909
 3604TIP3    H132227   1.140   3.669  11.837 -1.8096 -0.3327 -1.1190
 3604TIP3    H232228   1.133   3.688  11.687  0.7722  0.5624 -1.1619
 3605TIP3   OH232229   5.108   0.711   2.673  0.4174 -0.3070  0.1448
 3605TIP3    H132230   5.098   0.705   2.578  0.3577 -2.5019  0.2665
 3605TIP3    H232231   5.193   0.670   2.690 -0.4007 -1.5714  1.2112
 3606TIP3   OH232232   6.478   5.603   0.667  0.4244  0.4580 -0.0746
 3606TIP3    H132233   6.387   5.624   0.649  1.1642  1.5220 -2.7581
 3606TIP3    H232234   6.491   5.630   0.758 -2.3340 -1.2864  0.9218
 3607TIP3   OH232235   4.965   4.731  13.112  0.4917 -0.4956  0.3798
 3607TIP3    H132236   4.929   4.662  13.167  2.1452 -0.6676  1.2694
 3607TIP3    H232237   5.055   4.705  13.095  0.7253  0.7545 -0.4209
 3608TIP3   OH232238   1.610   2.674   4.479 -0.3384  0.2365 -0.7847
 3608TIP3    H132239   1.638   2.762   4.452  0.4855 -0.1507 -1.2250
 3608TIP3    H232240   1.591   2.629   4.397 -3.1468  0.7499 -0.4590
 3609TIP3   OH232241   2.044   0.232  13.248  0.0882  0.0883  0.3332
 3609TIP3    H132242   2.125   0.281  13.254 -0.2463  0.8060 -0.8665
 3609TIP3    H232243   1.997   0.270  13.173 -2.0659  0.7342  1.9460
 3610TIP3   OH232244   2.689   6.149   2.578  0.2200  0.3048  0.5957
 3610TIP3    H132245   2.751   6.135   2.506  0.8769 -2.0018  1.5618
 3610TIP3    H232246   2.722   6.227   2.622  1.5760 -0.0209  0.1895
 3611TIP3   OH232247   2.173   0.014  13.399 -0.5612  0.8920 -0.0289
 3611TIP3    H132248   2.259  -0.007  13.438 -0.9616  0.2871  0.5452
 3611TIP3    H232249   2.186   0.002  13.305  0.2694  1.8274 -0.0408
 3612TIP3   OH232250   5.819   0.142   6.468  1.1524 -0.5206  0.5714
 3612TIP3    H132251   5.744   0.094   6.433  1.0767 -0.1895  0.2712
 3612TIP3    H232252   5.890   0.122   6.407  0.4758  1.8027 -1.0700
 3613TIP3   OH232253   3.724   6.772  16.122  0.2815 -0.2558  0.2703
 3613TIP3    H132254   3.750   6.758  16.031  2.1917 -0.7903  0.8616
 3613TIP3    H232255   3.651   6.833  16.117 -0.9072 -1.7751 -1.7261
 3614TIP3   OH232256   5.655   6.663  15.224 -0.7432 -0.0742  0.0522
 3614TIP3    H132257   5.643   6.757  15.207 -1.0658 -0.0088  0.6074
 3614TIP3    H232258   5.750   6.650  15.220 -0.7595  0.1036 -0.8981
 3615TIP3   OH232259   1.319   2.360   2.147  0.3060 -0.1052  0.1614
 3615TIP3    H132260   1.389   2.424   2.159  0.2210  0.3222 -1.4975
 3615TIP3    H232261   1.249   2.390   2.204  0.8093  0.4637  0.4830
 3616TIP3   OH232262   2.105   4.946  11.211 -0.0409 -0.7415  0.6421
 3616TIP3    H132263   2.017   4.975  11.189 -0.6304 -2.5610  0.5312
 3616TIP3    H232264   2.093   4.881  11.280  1.1227 -1.8258 -0.1564
 3617TIP3   OH232265   2.293   0.898  16.247  0.2829 -0.0868 -0.9089
 3617TIP3    H132266   2.257   0.868  16.331 -2.6709  0.8744 -1.7373
 3617TIP3    H232267   2.225   0.874  16.183  0.8592  2.3425 -2.4898
 3618TIP3   OH232268   4.490   2.582  13.893 -0.2638 -0.0022  0.6141
 3618TIP3    H132269   4.568   2.543  13.852 -1.6123 -2.1593  0.0561
 3618TIP3    H232270   4.521   2.667  13.925  1.6950  0.2810 -1.8380
 3619TIP3   OH232271   0.004   1.184   3.903 -0.5960 -0.6896 -0.2878
 3619TIP3    H132272  -0.072   1.196   3.959  0.4447  3.3581  0.4748
 3619TIP3    H232273   0.079   1.189   3.963  0.3958  0.0356 -1.5567
 3620TIP3   OH232274   0.249   1.077   1.791  0.4122  0.0137 -0.2344
 3620TIP3    H132275   0.332   1.086   1.837  0.7751  0.5320 -0.9770
 3620TIP3    H232276   0.182   1.086   1.859  0.9862 -2.5703  0.7260
 3621TIP3   OH232277   3.486   2.756   4.396 -0.1437 -0.8386 -0.1253
 3621TIP3    H132278   3.505   2.742   4.303 -0.9069  0.0287 -0.4282
 3621TIP3    H232279   3.521   2.679   4.440  1.3846 -0.6576 -0.9810
 3622TIP3   OH232280   6.246   3.197   4.808  0.2724  0.1468  0.0134
 3622TIP3    H132281   6.322   3.139   4.803  0.9382  0.8989  1.3532
 3622TIP3    H232282   6.281   3.280   4.841 -0.9681  0.7900 -0.2554
 3623TIP3   OH232283   5.399   4.796   0.703 -0.2843 -0.1401 -1.0192
 3623TIP3    H132284   5.364   4.874   0.659  2.5829  1.0633 -1.2689
 3623TIP3    H232285   5.472   4.768   0.649  2.4920  0.5615  2.1780
 3624TIP3   OH232286   4.318   3.395  12.243 -0.2818  0.8335  0.6821
 3624TIP3    H132287   4.242   3.346  12.274 -0.3535  1.5692  1.6975
 3624TIP3    H232288   4.391   3.362  12.296 -0.4538  2.2910  1.8389
 3625TIP3   OH232289   2.546   3.797  12.587  0.4644  0.3917  0.2114
 3625TIP3    H132290   2.517   3.795  12.677 -0.1806 -0.0192 -0.0079
 3625TIP3    H232291   2.642   3.805  12.593  0.3666  1.0961  0.9168
 3626TIP3   OH232292   6.439   3.951   1.171 -0.1391  0.3102 -0.3733
 3626TIP3    H132293   6.456   3.872   1.121  3.6240 -0.0668  1.2572
 3626TIP3    H232294   6.395   3.921   1.250 -0.9618  0.1594 -0.8932
 3627TIP3   OH232295   5.926   5.861   0.929  0.0140  0.0426  0.1741
 3627TIP3    H132296   5.919   5.956   0.921  1.2920 -0.0922 -3.3983
 3627TIP3    H232297   6.019   5.846   0.947  0.0621 -0.5946 -0.5986
 3628TIP3   OH232298   2.198   1.119  17.208  0.3173  0.3319 -0.6259
 3628TIP3    H132299   2.231   1.209  17.201  1.6349 -0.0816  0.0201
 3628TIP3    H232300   2.117   1.128  17.258  0.2538  1.2109 -0.8717
 3629TIP3   OH232301   3.614   2.993   6.119  0.9244  0.1454 -0.8761
 3629TIP3    H132302   3.680   3.040   6.068  1.0015 -1.0542 -1.9003
 3629TIP3    H232303   3.593   2.916   6.066 -1.5751  0.6961 -0.7391
 3630TIP3   OH232304   4.194   5.829  13.887 -0.2686  0.7004  0.5487
 3630TIP3    H132305   4.157   5.741  13.884  0.5410  0.4343 -2.3735
 3630TIP3    H232306   4.247   5.830  13.967 -1.0002 -1.1430  1.0753
 3631TIP3   OH232307   1.519   1.006   3.027 -0.2997 -0.2870  0.0039
 3631TIP3    H132308   1.571   0.975   2.953  0.2710  0.5921  0.0337
 3631TIP3    H232309   1.580   1.007   3.101 -0.9595 -1.5185  0.5762
 3632TIP3   OH232310   0.877   2.306  14.640  0.6185 -0.1148  0.0422
 3632TIP3    H132311   0.902   2.361  14.714  0.7405  0.3731 -0.3602
 3632TIP3    H232312   0.958   2.263  14.614  0.4623 -0.7206  0.5499
 3633TIP3   OH232313   1.974   5.518  15.932 -0.2137 -0.3185 -0.3449
 3633TIP3    H132314   1.934   5.431  15.934  0.2426 -0.5204  0.0514
 3633TIP3    H232315   1.955   5.555  16.018 -0.0916 -0.1647 -0.3843
 3634TIP3   OH232316   6.404   4.677  13.722  0.0399  0.0702  0.3262
 3634TIP3    H132317   6.488   4.680  13.676  0.1157  1.0812  0.5089
 3634TIP3    H232318   6.415   4.610  13.789  0.7367  0.2518  0.3935
 3635TIP3   OH232319   3.688   2.097  11.398  0.1921  0.8413 -0.0518
 3635TIP3    H132320   3.640   2.123  11.319 -2.2176  1.8115  1.6565
 3635TIP3    H232321   3.738   2.175  11.423  0.9115  0.5517 -0.5776
 3636TIP3   OH232322   3.251   5.754  14.942  0.7530  0.2448  0.3697
 3636TIP3    H132323   3.246   5.795  14.855 -0.4972  0.8904  0.7339
 3636TIP3    H232324   3.263   5.661  14.924  0.8196  0.4185 -0.5048
 3637TIP3   OH232325   4.602   6.066  14.122  0.1985  0.4198  0.6937
 3637TIP3    H132326   4.590   5.980  14.083  2.3525  0.0176  0.8424
 3637TIP3    H232327   4.535   6.072  14.190 -0.7473 -0.6295 -0.1416
 3638TIP3   OH232328   3.622   2.401  16.083 -0.7111 -0.5640 -0.4105
 3638TIP3    H132329   3.529   2.412  16.100 -0.3881  1.1642  0.4328
 3638TIP3    H232330   3.663   2.476  16.127  1.1244 -1.6402 -0.2376
 3639TIP3   OH232331   1.448   4.591  17.064  0.0427  0.0259 -0.4565
 3639TIP3    H132332   1.397   4.514  17.089  0.8755 -0.9025 -1.6039
 3639TIP3    H232333   1.411   4.662  17.117 -0.2331 -1.2975  1.1650
 3640TIP3   OH232334   3.342   3.502   5.621  0.2751  0.0585  0.1900
 3640TIP3    H132335   3.318   3.592   5.642 -1.5124 -0.3644  0.0092
 3640TIP3    H232336   3.293   3.448   5.684  0.3740 -0.8460 -0.4890
 3641TIP3   OH232337   5.507   1.734  13.016  0.3058 -0.0984  0.4360
 3641TIP3    H132338   5.473   1.786  12.943  0.4308 -0.7349 -0.0913
 3641TIP3    H232339   5.540   1.798  13.079 -2.7400  0.5870  1.4187
 3642TIP3   OH232340   5.555   2.249   5.975 -0.8113 -0.7924 -0.0861
 3642TIP3    H132341   5.564   2.175   6.035  0.4933 -0.7135 -0.1603
 3642TIP3    H232342   5.521   2.210   5.894 -1.2536 -1.1175  0.2522
 3643TIP3   OH232343   1.667   4.810   4.194  0.2836 -0.1193  0.4644
 3643TIP3    H132344   1.677   4.756   4.116 -2.0385 -1.6637  1.1927
 3643TIP3    H232345   1.702   4.896   4.169  1.0442 -1.0528 -1.7261
 3644TIP3   OH232346   0.619   4.508  12.095 -0.8033  0.3108  0.3160
 3644TIP3    H132347   0.651   4.563  12.166 -0.1550 -1.5310  1.4764
 3644TIP3    H232348   0.696   4.460  12.066 -1.2813  0.3042 -0.9687
 3645TIP3   OH232349   2.877   5.250   1.237 -0.5393  0.0323  0.4999
 3645TIP3    H132350   2.842   5.325   1.188  2.2635  1.8082  1.0951
 3645TIP3    H232351   2.874   5.278   1.328  1.1222 -0.2939  0.6735
 3646TIP3   OH232352   2.984   3.286   6.563  0.2967  0.3072 -0.1073
 3646TIP3    H132353   2.986   3.303   6.469  0.6951  0.5638 -0.0578
 3646TIP3    H232354   3.076   3.295   6.590  0.4081 -1.1595  0.0598
 3647TIP3   OH232355   4.688   1.566   2.635  0.4342  0.0423  0.0073
 3647TIP3    H132356   4.711   1.510   2.561  0.3187  2.3099 -1.8056
 3647TIP3    H232357   4.767   1.568   2.689  0.0806 -2.7027  0.6898
 3648TIP3   OH232358   1.063   0.584   1.803  0.5652  0.0752  0.1358
 3648TIP3    H132359   1.118   0.507   1.814  1.6183  0.7844 -0.0169
 3648TIP3    H232360   1.119   0.657   1.831 -0.5211  0.7446  0.6007
 3649TIP3   OH232361   5.073   6.265   0.803  0.2585 -0.7276  0.5105
 3649TIP3    H132362   5.073   6.323   0.727  0.1493  0.3517  1.3270
 3649TIP3    H232363   5.008   6.198   0.783  0.7128 -0.8346 -0.6351
 3650TIP3   OH232364   5.724   4.621   2.374 -0.4496  0.0719 -0.2633
 3650TIP3    H132365   5.744   4.683   2.304  0.7293  0.0645  0.0393
 3650TIP3    H232366   5.649   4.572   2.343 -1.3227  1.5729 -0.5555
 3651TIP3   OH232367   0.335   2.723   6.049 -0.7504 -0.0630 -0.1202
 3651TIP3    H132368   0.392   2.759   6.117  1.2141 -1.7881 -0.8203
 3651TIP3    H232369   0.248   2.724   6.089  0.1307  0.2991  1.8777
 3652TIP3   OH232370   4.112   2.159   2.036 -0.4273 -0.2328 -0.4002
 3652TIP3    H132371   4.043   2.200   2.088 -1.1643  0.4421 -1.8732
 3652TIP3    H232372   4.190   2.163   2.091 -1.2834  0.0684  0.8073
 3653TIP3   OH232373   1.797   5.900  14.984  0.2571 -1.1091  0.5182
 3653TIP3    H132374   1.746   5.832  15.028  1.2143 -1.7562  0.6405
 3653TIP3    H232375   1.829   5.956  15.054  0.3238 -1.1196  0.4972
 3654TIP3   OH232376   5.604   6.652  12.077  0.5733  0.3753 -0.1360
 3654TIP3    H132377   5.599   6.683  11.986 -0.0119 -3.2983 -1.4553
 3654TIP3    H232378   5.545   6.709  12.125  0.0674  1.7067 -2.2616
 3655TIP3   OH232379   5.681   4.898   4.341  0.5674 -0.0928  0.5608
 3655TIP3    H132380   5.732   4.823   4.370  1.9956  1.3482  1.8902
 3655TIP3    H232381   5.620   4.915   4.413 -0.6010 -0.7331 -0.2684
 3656TIP3   OH232382   1.745   2.173   3.067  0.3532  0.6621  0.1647
 3656TIP3    H132383   1.815   2.164   3.132  0.2111 -0.7240  0.1438
 3656TIP3    H232384   1.666   2.186   3.118  0.1845 -0.8073  0.2980
 3657TIP3   OH232385   5.812   0.176   0.849  0.2230  0.0012 -0.1061
 3657TIP3    H132386   5.784   0.133   0.769  0.9077 -0.6853  0.0222
 3657TIP3    H232387   5.905   0.155   0.857 -0.3488 -1.9475  2.1060
 3658TIP3   OH232388   5.473   5.199  14.760  0.4949  0.2988 -0.4612
 3658TIP3    H132389   5.510   5.189  14.672  0.4458 -0.2206 -0.4227
 3658TIP3    H232390   5.430   5.115  14.778  1.6392 -0.0828  0.5918
 3659TIP3   OH232391   6.470   3.564  13.197  0.3914 -0.4939  0.3128
 3659TIP3    H132392   6.522   3.508  13.140  1.4605  0.6858  0.1184
 3659TIP3    H232393   6.422   3.621  13.138  0.6029 -0.0604  0.5586
 3660TIP3   OH232394   1.457   0.143  11.892 -0.2345 -0.8943 -0.0140
 3660TIP3    H132395   1.451   0.136  11.987  0.6671 -0.0695  0.1162
 3660TIP3    H232396   1.503   0.064  11.865  1.0699 -0.3008  0.4191
 3661TIP3   OH232397   3.361   4.926  15.897 -0.1772  0.6257 -0.0346
 3661TIP3    H132398   3.276   4.911  15.856  0.7620 -0.3205 -1.6344
 3661TIP3    H232399   3.342   4.986  15.969 -1.8302  2.3506 -1.8563
 3662TIP3   OH232400   5.866   0.851   6.012  0.3976 -0.3219 -0.7268
 3662TIP3    H132401   5.923   0.849   5.935  0.8623 -3.1560 -0.3516
 3662TIP3    H232402   5.926   0.853   6.087 -0.0064 -0.9534 -0.3791
 3663TIP3   OH232403   2.456   0.335  11.646 -0.1109  0.3294 -0.6455
 3663TIP3    H132404   2.444   0.394  11.721  0.9690  1.1332 -1.0917
 3663TIP3    H232405   2.386   0.271  11.655  1.0497 -0.6497  2.0850
 3664TIP3   OH232406   1.413   0.540  10.709  0.3114 -0.1387  0.3820
 3664TIP3    H132407   1.405   0.580  10.622  0.2251 -0.9279  0.0273
 3664TIP3    H232408   1.487   0.480  10.702 -0.1592 -0.7605  0.6382
 3665TIP3   OH232409   2.851   2.625   4.329 -1.2650  0.4409  0.3779
 3665TIP3    H132410   2.919   2.563   4.305 -2.0576  0.0603 -0.9600
 3665TIP3    H232411   2.885   2.671   4.406  1.2682  1.5400 -1.3699
 3666TIP3   OH232412   6.029   2.720  16.190 -0.1380  0.2323 -0.2293
 3666TIP3    H132413   6.100   2.661  16.215  1.0732  1.8919  0.3133
 3666TIP3    H232414   6.058   2.807  16.218 -0.8079  1.4677 -3.1535
 3667TIP3   OH232415   0.995   4.050  16.959 -0.0727 -0.2218  0.0316
 3667TIP3    H132416   0.963   4.002  16.883 -0.3046 -1.1515  0.7043
 3667TIP3    H232417   1.086   4.023  16.968  0.0949  0.2596 -0.1999
 3668TIP3   OH232418   5.328   2.844  11.552  0.1990  0.0370  0.8741
 3668TIP3    H132419   5.275   2.887  11.485 -1.4112 -1.9931  0.7936
 3668TIP3    H232420   5.418   2.859  11.524 -0.4141 -3.6073 -3.7090
 3669TIP3   OH232421   0.134   0.303   4.523  0.0184  0.0127  0.1346
 3669TIP3    H132422   0.176   0.221   4.553 -0.6319 -0.8058 -1.1566
 3669TIP3    H232423   0.207   0.357   4.493  0.4269 -0.2031  0.7134
 3670TIP3   OH232424   5.699   4.029   2.312 -0.2169  0.1077  0.3932
 3670TIP3    H132425   5.648   4.074   2.245 -0.3481  0.2093  0.5622
 3670TIP3    H232426   5.634   3.996   2.375 -0.2413 -1.5811 -0.4843
 3671TIP3   OH232427   2.008   6.474   2.851  0.3160 -0.1674  0.1267
 3671TIP3    H132428   2.018   6.557   2.898  0.8149  0.3518 -0.8702
 3671TIP3    H232429   1.970   6.414   2.915 -1.7181  1.3199  0.3571
 3672TIP3   OH232430   2.136   0.599   1.997 -0.0316 -0.3369  0.3615
 3672TIP3    H132431   2.206   0.550   2.042  0.2731 -0.1803  0.0646
 3672TIP3    H232432   2.159   0.691   2.010  0.4618 -0.2943 -0.7234
 3673TIP3   OH232433   1.146   6.190   2.633  0.5601 -0.0910  0.0214
 3673TIP3    H132434   1.225   6.184   2.686 -0.6307 -0.1741  1.8631
 3673TIP3    H232435   1.086   6.243   2.686 -1.0907 -1.1460 -0.7264
 3674TIP3   OH232436   0.849   1.240  15.248 -0.2327  0.4007  0.3284
 3674TIP3    H132437   0.885   1.241  15.159 -0.1060 -0.5138  0.3624
 3674TIP3    H232438   0.777   1.304  15.246  0.0005  0.6430 -0.3301
 3675TIP3   OH232439   1.366   6.375   2.060  0.8422  0.1669  0.1421
 3675TIP3    H132440   1.407   6.341   1.981  1.6452  0.7559  0.2914
 3675TIP3    H232441   1.304   6.308   2.086  0.4720  0.0318 -1.0698
 3676TIP3   OH232442   6.691   3.365  11.272 -0.2857 -0.3090  0.1636
 3676TIP3    H132443   6.775   3.367  11.318 -0.7300  0.1443  0.9689
 3676TIP3    H232444   6.712   3.389  11.182  0.5514 -0.8852  0.1997
 3677TIP3   OH232445   3.642   4.677   2.832  0.2891 -0.0437 -0.1013
 3677TIP3    H132446   3.602   4.594   2.860  0.5201  0.2824  1.2089
 3677TIP3    H232447   3.644   4.671   2.736  2.5651 -2.6478  0.0255
 3678TIP3   OH232448   1.260   2.297   2.480 -0.2794 -0.1696  0.5109
 3678TIP3    H132449   1.218   2.232   2.424  3.2929 -2.2560  0.0222
 3678TIP3    H232450   1.312   2.351   2.420  0.5825  0.0233  1.4087
 3679TIP3   OH232451   2.910   6.413   3.285  0.2236  0.3321 -0.0047
 3679TIP3    H132452   2.974   6.451   3.346  1.4859 -0.7364 -0.6435
 3679TIP3    H232453   2.836   6.474   3.288  0.2651  0.3447  2.5651
 3680TIP3   OH232454   5.212   6.598   0.825 -0.4122  0.4487 -0.3236
 3680TIP3    H132455   5.120   6.604   0.850 -0.7292 -1.8316 -0.8144
 3680TIP3    H232456   5.249   6.533   0.886  0.3582 -0.1886 -1.4504
 3681TIP3   OH232457   1.686   4.203  12.322  0.1248 -0.5210  0.2513
 3681TIP3    H132458   1.768   4.244  12.349  0.2941 -0.9257  0.3710
 3681TIP3    H232459   1.619   4.268  12.340  0.5714  0.3467 -1.1222
 3682TIP3   OH232460   0.880   1.124  10.600  0.0867 -0.1565  0.5739
 3682TIP3    H132461   0.955   1.099  10.547  0.5389 -1.1864  1.6788
 3682TIP3    H232462   0.820   1.050  10.593 -1.1790  0.9670 -0.9006
 3683TIP3   OH232463   1.590   2.443  12.972  0.2238 -0.1265  0.1721
 3683TIP3    H132464   1.524   2.407  13.031  0.3761  1.5380  1.3941
 3683TIP3    H232465   1.669   2.391  12.991 -0.2414 -0.9002  0.0127
 3684TIP3   OH232466   0.494   2.181  11.362 -0.4436  0.1491  0.1345
 3684TIP3    H132467   0.542   2.255  11.324 -2.8214  0.2844 -2.7641
 3684TIP3    H232468   0.407   2.186  11.324 -0.6816 -4.1911 -0.1701
 3685TIP3   OH232469   5.859   0.322   3.916  0.9475  0.3669  0.3703
 3685TIP3    H132470   5.819   0.358   3.994  0.6661 -0.1571  0.4703
 3685TIP3    H232471   5.947   0.296   3.943  2.1721  3.4835 -0.3624
 3686TIP3   OH232472   1.132   2.418  13.208 -0.0849 -0.1670  0.7023
 3686TIP3    H132473   1.189   2.362  13.261 -0.1919 -0.6593  0.3074
 3686TIP3    H232474   1.186   2.493  13.184 -0.0739  0.1144  1.6102
 3687TIP3   OH232475   5.212   3.120  15.019  0.1610  0.4889 -0.4904
 3687TIP3    H132476   5.174   3.185  15.078 -1.9787  0.6194 -1.9572
 3687TIP3    H232477   5.244   3.171  14.944  1.5496  0.1746 -0.1345
 3688TIP3   OH232478   0.129   0.944   5.145 -0.2077 -0.0050 -0.7580
 3688TIP3    H132479   0.222   0.924   5.134 -0.3740 -1.4646  0.3252
 3688TIP3    H232480   0.089   0.921   5.061  0.3490  0.2641 -1.1005
 3689TIP3   OH232481   0.301   4.512  14.970 -0.3566  0.1435  0.8009
 3689TIP3    H132482   0.359   4.567  15.022  0.5144 -1.8151  1.9506
 3689TIP3    H232483   0.355   4.478  14.899 -0.6567  0.0840  0.5971
 3690TIP3   OH232484   1.910   4.257   0.637  0.2350  0.1557  0.1783
 3690TIP3    H132485   2.004   4.276   0.638  0.2762  0.1798 -1.6260
 3690TIP3    H232486   1.898   4.189   0.703  1.2258  1.4019  1.6819
 3691TIP3   OH232487   4.131   4.255  12.403 -0.1776 -0.5443  1.0656
 3691TIP3    H132488   4.159   4.204  12.479  1.7841  0.4858  1.0706
 3691TIP3    H232489   4.114   4.342  12.438 -0.0902 -0.2841  0.4743
 3692TIP3   OH232490   6.185   4.197   1.527  0.6337  0.3706 -0.1971
 3692TIP3    H132491   6.234   4.209   1.608  0.0940  2.7132 -0.1743
 3692TIP3    H232492   6.124   4.271   1.525  0.7448  0.4372 -2.7985
 3693TIP3   OH232493   3.833   5.924   0.719 -0.0460  0.4335 -0.0571
 3693TIP3    H132494   3.920   5.925   0.759 -0.8158 -2.8003  1.8273
 3693TIP3    H232495   3.782   5.987   0.770  0.8263  1.4231 -0.3905
 3694TIP3   OH232496   0.954   4.501   2.084 -0.0578  0.1318  0.5658
 3694TIP3    H132497   0.928   4.593   2.079 -0.9970 -0.1884 -0.9832
 3694TIP3    H232498   1.049   4.502   2.070 -0.1018  0.8595  0.3138
 3695TIP3   OH232499   2.998   2.657   3.989  0.0291 -0.1261 -0.3222
 3695TIP3    H132500   3.070   2.595   3.978 -0.5609 -0.9498  0.3930
 3695TIP3    H232501   2.964   2.671   3.901  2.6775  2.2661 -1.0716
 3696TIP3   OH232502   5.555   5.118   1.153 -0.4544 -0.4624 -0.0700
 3696TIP3    H132503   5.496   5.116   1.229 -2.4487  0.1101 -1.5820
 3696TIP3    H232504   5.503   5.083   1.081  1.4276 -0.9979 -1.2011
 3697TIP3   OH232505   2.901   5.623  15.680 -0.2442  0.2131 -0.6341
 3697TIP3    H132506   2.975   5.623  15.741 -0.1421  1.6571 -0.7412
 3697TIP3    H232507   2.922   5.691  15.617 -2.7520  2.2756  0.6607
 3698TIP3   OH232508   4.791   0.918  11.931 -0.0491 -0.2201  0.4394
 3698TIP3    H132509   4.723   0.985  11.934 -0.9483 -0.8905 -2.5894
 3698TIP3    H232510   4.784   0.882  11.842  2.2360 -2.4108  1.1034
 3699TIP3   OH232511   4.073   0.291   2.232  0.3455  0.0070 -0.0737
 3699TIP3    H132512   4.005   0.357   2.242 -0.8327 -1.1464 -0.4259
 3699TIP3    H232513   4.063   0.234   2.308  1.9337  0.7245  0.7006
 3700TIP3   OH232514   6.226   6.687  12.129  0.0815  0.3525  0.4172
 3700TIP3    H132515   6.318   6.663  12.114 -0.3726 -0.9394 -0.4256
 3700TIP3    H232516   6.200   6.635  12.205 -0.1682  0.1111  0.1699
 3701TIP3   OH232517   5.155   6.273   5.538  0.2717  0.6715 -0.0684
 3701TIP3    H132518   5.173   6.332   5.465 -1.0704  0.6965 -0.3876
 3701TIP3    H232519   5.125   6.330   5.608  2.1838  0.7218  0.7422
 3702TIP3   OH232520   4.272   5.901  13.443  0.0145 -0.5189  0.1427
 3702TIP3    H132521   4.315   5.986  13.438  0.5115 -0.8087 -0.5317
 3702TIP3    H232522   4.220   5.906  13.523 -0.0698  0.4671  0.0387
 3703TIP3   OH232523   4.466   3.852  13.986  0.5128 -0.0369 -0.1628
 3703TIP3    H132524   4.371   3.844  13.977  0.3324  1.4356  0.2003
 3703TIP3    H232525   4.499   3.859  13.897  0.0877  1.2365 -0.2298
 3704TIP3   OH232526   5.508   5.085  10.893  0.3261 -0.1508  0.0778
 3704TIP3    H132527   5.454   5.014  10.859  0.4255  0.0403 -0.4754
 3704TIP3    H232528   5.452   5.162  10.890 -0.7189 -0.7005  3.2327
 3705TIP3   OH232529   0.843   0.943  11.402  0.5322  0.2583  0.1381
 3705TIP3    H132530   0.883   1.013  11.351 -0.5444  1.2156  0.5711
 3705TIP3    H232531   0.915   0.906  11.452  1.5274 -0.4566 -1.7959
 3706TIP3   OH232532   2.754   0.804   1.486  0.1723  0.0840  0.3902
 3706TIP3    H132533   2.776   0.743   1.416  0.4205 -1.3451  1.6756
 3706TIP3    H232534   2.828   0.800   1.546 -0.8346 -0.1131  1.6482
 3707TIP3   OH232535   2.022   0.101  10.893 -0.6231  0.4432 -0.4555
 3707TIP3    H132536   2.014   0.026  10.834  0.1769  0.4999 -0.6438
 3707TIP3    H232537   2.092   0.076  10.954 -1.0212  0.6393  0.0870
 3708TIP3   OH232538   2.916   6.154  14.309  0.2239 -0.0081 -0.0183
 3708TIP3    H132539   2.885   6.245  14.312 -1.0423 -0.4016 -0.7508
 3708TIP3    H232540   2.917   6.126  14.400 -1.5623  0.0315  0.0270
 3709TIP3   OH232541   5.589   0.822   3.623 -0.2037 -0.2765  0.2843
 3709TIP3    H132542   5.556   0.892   3.679 -0.8822  0.7237 -1.3388
 3709TIP3    H232543   5.592   0.860   3.536 -0.2711 -2.1756 -0.5781
 3710TIP3   OH232544   0.599   6.763  11.667 -0.0676 -0.0491 -0.7457
 3710TIP3    H132545   0.672   6.777  11.727  0.5131 -0.6608 -1.3057
 3710TIP3    H232546   0.557   6.682  11.697 -0.8684  0.5928 -0.0862
 3711TIP3   OH232547   4.965   2.711  13.058  0.3292 -0.5334 -0.3732
 3711TIP3    H132548   5.052   2.751  13.068 -0.1216  0.3190  0.2280
 3711TIP3    H232549   4.936   2.738  12.971  0.2114  0.1000 -0.1424
 3712TIP3   OH232550   5.209   0.332  15.664  0.0238  0.6216 -0.0352
 3712TIP3    H132551   5.189   0.286  15.583  2.5618 -1.1118  0.2895
 3712TIP3    H232552   5.257   0.410  15.636  1.1543 -0.1229 -0.2165
 3713TIP3   OH232553   1.136   5.018   4.723 -0.0777  0.2957  0.0510
 3713TIP3    H132554   1.227   5.008   4.750 -0.0353  3.8942  1.5499
 3713TIP3    H232555   1.141   5.055   4.634 -0.0158  1.6189  0.5884
 3714TIP3   OH232556   2.092   2.406   0.334 -0.1459 -0.8825  0.2544
 3714TIP3    H132557   2.051   2.354   0.266  2.2391 -0.5988 -1.4537
 3714TIP3    H232558   2.022   2.464   0.366 -1.0772 -0.4342 -2.5094
 3715TIP3   OH232559   4.849   0.206  15.456  0.0890 -0.3364 -0.2426
 3715TIP3    H132560   4.848   0.298  15.430 -2.5183 -0.8290 -2.0532
 3715TIP3    H232561   4.938   0.177  15.436  0.2208  1.1639 -1.9993
 3716TIP3   OH232562   5.765   2.145  16.215  0.4596 -0.6744  0.0493
 3716TIP3    H132563   5.716   2.226  16.200  0.1790 -1.0614 -1.1692
 3716TIP3    H232564   5.734   2.115  16.301 -1.8664 -1.1671 -0.9017
 3717TIP3   OH232565   3.595   5.774   6.151  0.1382  0.0095  0.2825
 3717TIP3    H132566   3.504   5.789   6.126  0.6599  0.4011 -1.4647
 3717TIP3    H232567   3.617   5.689   6.111  0.3433 -0.3882  1.2382
 3718TIP3   OH232568   0.615   3.782   5.617 -0.2506 -0.3132  0.7741
 3718TIP3    H132569   0.692   3.767   5.672  0.0104 -0.5287  0.3606
 3718TIP3    H232570   0.578   3.864   5.649  1.2121  0.7679 -0.2072
 3719TIP3   OH232571   4.736   5.833  16.738 -0.1426  0.1022  0.2417
 3719TIP3    H132572   4.794   5.844  16.662 -1.0038 -1.2346 -0.6338
 3719TIP3    H232573   4.783   5.772  16.795 -0.1646 -0.0546  0.0896
 3720TIP3   OH232574   3.854   5.680   3.418  0.1254  0.6703 -0.0040
 3720TIP3    H132575   3.859   5.597   3.465 -3.4064  1.4831  2.0687
 3720TIP3    H232576   3.791   5.664   3.347 -1.3305  1.7648  0.9963
 3721TIP3   OH232577   5.847   5.186  16.737  1.1552  0.0876 -0.5100
 3721TIP3    H132578   5.924   5.201  16.792  0.4852 -1.6223  0.9432
 3721TIP3    H232579   5.774   5.221  16.787  0.1928 -3.6957  0.8997
 3722TIP3   OH232580   6.021   1.263  16.115 -0.1705 -0.1891 -0.5436
 3722TIP3    H132581   6.078   1.205  16.166  1.3886  1.2655 -0.6191
 3722TIP3    H232582   6.054   1.351  16.132 -3.1682  0.8231  0.4101
 3723TIP3   OH232583   2.300   2.646  13.131  0.5318 -0.0765  0.6837
 3723TIP3    H132584   2.379   2.603  13.097  0.4252  1.3481 -1.4596
 3723TIP3    H232585   2.331   2.695  13.207  1.9883  1.3400 -0.7570
 3724TIP3   OH232586   0.467   3.769   2.869 -0.8334  0.0580  0.2084
 3724TIP3    H132587   0.543   3.733   2.915  0.0474  0.9849 -0.5116
 3724TIP3    H232588   0.408   3.694   2.858 -1.7967  0.1393  4.2542
 3725TIP3   OH232589   5.064   0.104   3.494 -0.1659  0.4909  0.3242
 3725TIP3    H132590   5.134   0.168   3.482 -1.1576  1.5684  0.1603
 3725TIP3    H232591   5.093   0.049   3.567  0.1194  1.9560  1.3418
 3726TIP3   OH232592   4.345   6.348   1.500 -0.2385  0.4746  0.6176
 3726TIP3    H132593   4.284   6.275   1.488 -0.9568  1.3157 -1.0040
 3726TIP3    H232594   4.419   6.310   1.546 -1.4006 -0.8759  1.4370
 3727TIP3   OH232595   0.850   2.971  11.307  0.4083  0.1841 -0.8676
 3727TIP3    H132596   0.880   3.009  11.390 -1.6519 -0.0869  0.0297
 3727TIP3    H232597   0.793   3.039  11.270 -1.8728 -1.2674 -0.1115
 3728TIP3   OH232598   4.017   1.467   2.002 -0.7511 -0.7671  0.3828
 3728TIP3    H132599   3.962   1.390   1.988  0.6772 -1.3585 -2.3123
 3728TIP3    H232600   4.090   1.455   1.942  0.8659  1.4126  1.8499
 3729TIP3   OH232601   3.436   4.956  13.057 -0.3808 -0.4825 -0.5181
 3729TIP3    H132602   3.476   5.036  13.091  0.8202 -0.9001 -0.9469
 3729TIP3    H232603   3.358   4.986  13.010  0.1252  0.4426 -0.7641
 3730TIP3   OH232604   3.046   1.432  11.124  0.4887  0.3626 -0.2492
 3730TIP3    H132605   2.951   1.426  11.124  0.4150  0.1741  3.0601
 3730TIP3    H232606   3.072   1.408  11.035 -2.3298 -3.4238 -0.1947
 3731TIP3   OH232607   5.525   1.903   4.286 -0.2096 -0.5110 -0.2252
 3731TIP3    H132608   5.604   1.850   4.299  0.7107  0.9163  0.0404
 3731TIP3    H232609   5.539   1.947   4.202 -0.0323  0.9036  0.5300
 3732TIP3   OH232610   4.854   1.847   2.632  0.0238 -0.0440 -0.4963
 3732TIP3    H132611   4.767   1.846   2.591 -0.5670  0.8190  0.6958
 3732TIP3    H232612   4.884   1.757   2.628 -0.6395 -0.2287 -1.5193
 3733TIP3   OH232613   4.101   0.253  13.145  0.7621 -0.1288 -0.4302
 3733TIP3    H132614   4.155   0.183  13.181 -0.1793 -0.5862  0.1424
 3733TIP3    H232615   4.023   0.253  13.201 -1.0401 -1.2788 -2.8547
 3734TIP3   OH232616   3.888   6.253  14.514 -0.3132 -0.4158 -0.3928
 3734TIP3    H132617   3.795   6.273  14.507 -0.8983 -2.0237  2.0254
 3734TIP3    H232618   3.908   6.205  14.435 -0.9528  1.9667 -2.0557
 3735TIP3   OH232619   0.783   2.076   5.861  0.4993 -0.1126  0.3824
 3735TIP3    H132620   0.772   2.168   5.839 -2.5007 -0.8211 -1.4225
 3735TIP3    H232621   0.827   2.076   5.946  1.7630  2.9385 -0.2291
 3736TIP3   OH232622   6.486   0.716  12.673  0.1619 -0.0605  0.2674
 3736TIP3    H132623   6.515   0.804  12.696  0.2901  0.1716 -0.7385
 3736TIP3    H232624   6.528   0.659  12.737  0.8812  0.5191  0.3145
 3737TIP3   OH232625   5.034   3.710   3.776  0.2166 -0.2256  0.8045
 3737TIP3    H132626   4.988   3.708   3.692  2.6964  0.9810 -0.6080
 3737TIP3    H232627   4.971   3.751   3.836 -0.5965  1.4091 -1.1008
 3738TIP3   OH232628   0.246   6.356  15.592  0.4717  0.4473  0.0950
 3738TIP3    H132629   0.224   6.430  15.535 -0.2091 -0.4918 -0.8831
 3738TIP3    H232630   0.161   6.326  15.625  0.6721 -0.4321 -0.1855
 3739TIP3   OH232631   4.507   4.768   5.439  0.3640  0.1752 -0.8388
 3739TIP3    H132632   4.543   4.773   5.528  2.2185  3.5116 -1.6949
 3739TIP3    H232633   4.581   4.789   5.382 -0.9247 -1.4225 -3.1895
 3740TIP3   OH232634   4.520   2.516  12.971  0.0972  0.6614 -0.0576
 3740TIP3    H132635   4.593   2.537  13.028 -0.2498 -0.1356  0.7061
 3740TIP3    H232636   4.519   2.585  12.905  2.2680  0.0118 -0.7910
 3741TIP3   OH232637   4.340   2.777   0.276  0.0557  0.3276  0.0160
 3741TIP3    H132638   4.391   2.696   0.280  0.2054  0.3410 -1.4234
 3741TIP3    H232639   4.259   2.756   0.322 -0.7585 -1.2886 -2.0900
 3742TIP3   OH232640   0.151   6.221  14.410  0.1154  0.2040 -0.2961
 3742TIP3    H132641   0.086   6.229  14.339  1.2461 -1.8750 -1.6025
 3742TIP3    H232642   0.233   6.204  14.365  1.1651  0.5150  1.4768
 3743TIP3   OH232643   6.298   4.187  11.741  0.5126  0.0147  0.2320
 3743TIP3    H132644   6.246   4.121  11.695  0.5875  0.4888 -0.5480
 3743TIP3    H232645   6.326   4.144  11.822 -1.3222 -0.1453  0.7919
 3744TIP3   OH232646   4.615   3.703   5.740 -0.1825 -0.0002  0.1127
 3744TIP3    H132647   4.527   3.715   5.776 -0.4162  0.4243 -0.5862
 3744TIP3    H232648   4.651   3.791   5.734  0.7633 -0.2666  1.5302
 3745TIP3   OH232649   3.325   0.580  17.146  0.3727  0.5367  1.0028
 3745TIP3    H132650   3.281   0.519  17.205  0.7091 -1.6528 -0.9260
 3745TIP3    H232651   3.311   0.666  17.185 -1.9215 -0.5602  2.6880
 3746TIP3   OH232652   5.186   0.901  16.604 -0.2158  0.0604  0.0373
 3746TIP3    H132653   5.260   0.940  16.649  3.4494 -2.9665 -3.0087
 3746TIP3    H232654   5.200   0.807  16.612 -2.3128 -0.5667 -2.7713
 3747TIP3   OH232655   0.780   3.454   2.695 -0.0444  0.4689  0.2157
 3747TIP3    H132656   0.838   3.413   2.630 -0.4119  0.8956 -0.3854
 3747TIP3    H232657   0.710   3.390   2.709 -0.2548  0.6034 -0.2155
 3748TIP3   OH232658   0.912   5.689   2.482 -0.3120 -0.4118  0.6035
 3748TIP3    H132659   0.995   5.723   2.450 -1.5895  2.5416  0.2949
 3748TIP3    H232660   0.903   5.726   2.570 -1.3608 -0.5756  0.5757
 3749TIP3   OH232661   2.762   3.393   5.145 -0.1251 -0.1326 -0.0835
 3749TIP3    H132662   2.696   3.447   5.102 -0.2094 -0.2097 -0.0522
 3749TIP3    H232663   2.727   3.377   5.233  0.2944  0.4723  0.1972
 3750TIP3   OH232664   4.894   1.476   3.280 -0.3213 -0.1348  0.6104
 3750TIP3    H132665   4.874   1.543   3.345  1.7566  0.7593  0.3531
 3750TIP3    H232666   4.813   1.425   3.273 -1.6901  1.8759  1.3463
 3751TIP3   OH232667   2.640   3.954   0.292 -0.3727  0.1605  0.1538
 3751TIP3    H132668   2.663   4.025   0.232  2.2791  0.2393  1.1958
 3751TIP3    H232669   2.602   3.997   0.368  0.7746  0.4546  0.5728
 3752TIP3   OH232670   3.518   0.227  15.802 -0.1910  0.6610 -0.2128
 3752TIP3    H132671   3.453   0.292  15.774  0.0145  1.4311  1.0539
 3752TIP3    H232672   3.503   0.217  15.896  0.2704 -0.5918 -0.2570
 3753TIP3   OH232673   6.261   3.347  16.801 -0.0944 -0.0629  0.7164
 3753TIP3    H132674   6.273   3.264  16.756  1.5105  1.7342 -2.3515
 3753TIP3    H232675   6.311   3.339  16.881  0.5523 -1.8350  0.1472
 3754TIP3   OH232676   4.531   0.967  14.864  0.2926  0.8226 -0.5191
 3754TIP3    H132677   4.495   0.962  14.776  2.8269  0.3989 -1.5642
 3754TIP3    H232678   4.501   1.052  14.897 -0.9055  0.8667 -1.6651
 3755TIP3   OH232679   6.200   3.383   3.213 -0.2235 -0.1949  0.3184
 3755TIP3    H132680   6.248   3.388   3.131  0.3037 -3.5431  0.3433
 3755TIP3    H232681   6.226   3.462   3.261  2.4822 -0.1244 -1.1601
 3756TIP3   OH232682   4.664   4.494   5.680 -0.3809  0.1559 -0.0834
 3756TIP3    H132683   4.588   4.445   5.648  0.1712 -0.6317 -0.1879
 3756TIP3    H232684   4.709   4.434   5.739  0.5620  0.3661 -0.5752
 3757TIP3   OH232685   1.992   4.113  13.654 -0.4487  0.3127 -0.1960
 3757TIP3    H132686   2.027   4.198  13.680  0.2373  0.3998 -1.4028
 3757TIP3    H232687   2.015   4.054  13.727  1.7296  0.4830 -0.7256
 3758TIP3   OH232688   3.388   4.765   0.543 -0.4896  0.2113 -0.1014
 3758TIP3    H132689   3.397   4.716   0.462  0.1554 -1.3850  0.9138
 3758TIP3    H232690   3.478   4.777   0.574 -0.7190  0.9962  0.2704
 3759TIP3   OH232691   0.697   0.503  12.408  0.5268 -0.1520 -0.3095
 3759TIP3    H132692   0.664   0.591  12.391 -4.1627 -1.4608  1.3340
 3759TIP3    H232693   0.709   0.500  12.503 -0.5718 -1.6763 -0.2114
 3760TIP3   OH232694   1.855   5.207  13.732 -0.3970 -0.1597 -0.5747
 3760TIP3    H132695   1.894   5.272  13.673 -0.4015  0.5750  0.2153
 3760TIP3    H232696   1.836   5.132  13.676 -0.1526  0.4255 -1.4539
 3761TIP3   OH232697   5.413   2.192  14.749  0.4955 -0.3502  0.2201
 3761TIP3    H132698   5.423   2.283  14.777  0.0710  0.6716 -2.7182
 3761TIP3    H232699   5.503   2.161  14.735  0.5603  0.6154 -1.6524
 3762TIP3   OH232700   4.631   1.788  12.501  0.8745  0.0277  0.9065
 3762TIP3    H132701   4.698   1.857  12.495  1.3158 -0.4406  0.3675
 3762TIP3    H232702   4.674   1.719  12.551  0.5797 -0.0385  1.0687
 3763TIP3   OH232703   0.335   2.140  16.214  0.2359 -0.0853 -0.6270
 3763TIP3    H132704   0.297   2.206  16.156  0.7373  1.3344  0.6463
 3763TIP3    H232705   0.282   2.061  16.198 -2.6261  1.5578  0.3148
 3764TIP3   OH232706   1.221   0.645   4.686 -0.1747  0.3335  0.3902
 3764TIP3    H132707   1.176   0.589   4.623 -0.2533  1.9330 -1.0247
 3764TIP3    H232708   1.152   0.672   4.747 -0.3746 -0.1920  0.3951
 3765TIP3   OH232709   6.082   0.874  14.475  0.5775  0.1709  0.7664
 3765TIP3    H132710   6.144   0.932  14.518  1.4271  0.8122 -1.2611
 3765TIP3    H232711   6.017   0.933  14.435 -1.0994 -0.4663  2.4747
 3766TIP3   OH232712   0.429   4.904   0.424 -0.1933 -0.4137  0.3729
 3766TIP3    H132713   0.336   4.885   0.437 -0.2102  0.0077  0.9010
 3766TIP3    H232714   0.430   4.993   0.387  0.0175 -0.2126  0.8545
 3767TIP3   OH232715   6.480   0.798   5.299 -0.5957  0.3722 -0.3334
 3767TIP3    H132716   6.421   0.873   5.291  0.3322  1.0359 -0.8898
 3767TIP3    H232717   6.455   0.740   5.227  0.4060  1.3237 -1.4504
 3768TIP3   OH232718   3.080   1.019  16.709 -0.0498 -0.4477  0.0287
 3768TIP3    H132719   3.066   0.951  16.642  0.9613 -0.2438 -0.3980
 3768TIP3    H232720   3.011   1.004  16.773 -0.6416 -1.0556 -0.7372
 3769TIP3   OH232721   3.741   6.108  16.241  0.3804  0.1351 -0.3912
 3769TIP3    H132722   3.834   6.093  16.222  0.3227 -0.5379 -0.1719
 3769TIP3    H232723   3.741   6.169  16.314  0.6943 -1.5001  1.0184
 3770TIP3   OH232724   5.377   1.665   0.797 -0.3985  0.1828  0.4386
 3770TIP3    H132725   5.361   1.760   0.794  1.0932  0.4327 -0.1342
 3770TIP3    H232726   5.298   1.626   0.761 -1.5093  1.1552  1.7882
 3771TIP3   OH232727   6.669   0.651   2.556  0.4425 -0.1758 -0.6116
 3771TIP3    H132728   6.577   0.624   2.550  0.7599 -1.0817 -1.5273
 3771TIP3    H232729   6.714   0.596   2.492  1.2057  2.1314 -2.0967
 3772TIP3   OH232730   0.329   2.786  13.473 -0.2069  0.6251 -0.1259
 3772TIP3    H132731   0.352   2.722  13.540  0.3556  0.2804 -0.6484
 3772TIP3    H232732   0.389   2.859  13.487  0.0478  0.4639 -0.3931
 3773TIP3   OH232733   2.703   0.758   4.380 -0.6489  0.7151  0.2323
 3773TIP3    H132734   2.705   0.830   4.443 -1.4927  2.0974 -1.2891
 3773TIP3    H232735   2.612   0.755   4.350 -0.5807 -0.8882  0.1717
 3774TIP3   OH232736   2.580   1.228   6.291 -0.0740  0.3127 -0.1039
 3774TIP3    H132737   2.616   1.151   6.247 -1.0716  0.0139 -0.4163
 3774TIP3    H232738   2.623   1.230   6.376  2.5745  1.4109 -1.4054
 3775TIP3   OH232739   6.775   0.429   3.863 -0.0416  0.0506  0.1570
 3775TIP3    H132740   6.695   0.421   3.914 -0.5133  0.6781 -0.4675
 3775TIP3    H232741   6.829   0.355   3.890 -0.2019  0.4826  1.6966
 3776TIP3   OH232742   5.315   3.275  11.244  0.0787  0.2746 -0.2156
 3776TIP3    H132743   5.269   3.262  11.162 -0.9854 -1.7829  0.6758
 3776TIP3    H232744   5.248   3.309  11.304  0.7090  1.2121 -0.0265
 3777TIP3   OH232745   0.891   0.863  12.992  0.2107  0.4102 -0.4640
 3777TIP3    H132746   0.833   0.932  13.026  1.6260  0.9382  0.9289
 3777TIP3    H232747   0.884   0.792  13.056  0.5665  0.1948 -0.6608
 3778TIP3   OH232748   1.992   1.397  14.419  0.4473 -0.0419 -0.1707
 3778TIP3    H132749   1.928   1.456  14.459  1.1500  0.5642  0.0968
 3778TIP3    H232750   1.942   1.322  14.390 -0.3366  0.2910  0.3074
 3779TIP3   OH232751   6.406   3.194  13.853  0.7522  0.3318 -0.0349
 3779TIP3    H132752   6.409   3.118  13.794  3.6184 -0.1944  0.6880
 3779TIP3    H232753   6.317   3.228  13.845  1.0534  0.2785 -4.6636
 3780TIP3   OH232754   2.589   4.252  16.690  0.6056  0.6215  0.7126
 3780TIP3    H132755   2.684   4.239  16.684  0.4650 -0.5377  1.0563
 3780TIP3    H232756   2.567   4.228  16.779  0.0970  1.6894  0.8847
 3781TIP3   OH232757   2.877   3.413  12.578  0.0064 -0.3427  0.4175
 3781TIP3    H132758   2.836   3.363  12.507  0.1640 -2.1904  1.5814
 3781TIP3    H232759   2.883   3.502  12.544 -2.7186 -0.5288 -0.7252
 3782TIP3   OH232760   3.702   3.929   3.338 -0.3175 -0.0735 -0.2693
 3782TIP3    H132761   3.688   4.013   3.294  2.9450  1.5140  1.5395
 3782TIP3    H232762   3.762   3.881   3.281 -0.8140 -0.4627 -0.4644
 3783TIP3   OH232763   6.063   4.139   2.800  0.0070 -0.4522 -0.3769
 3783TIP3    H132764   6.093   4.076   2.865 -0.9193  0.5540  1.0427
 3783TIP3    H232765   6.011   4.086   2.739  1.3248 -1.4916 -0.6416
 3784TIP3   OH232766   2.592   3.450   4.786 -0.4951 -0.6011 -0.3732
 3784TIP3    H132767   2.687   3.458   4.795 -0.5913 -1.6527  2.1951
 3784TIP3    H232768   2.574   3.360   4.813 -2.3709  0.0583  0.6366
 3785TIP3   OH232769   1.898   4.886  11.884  0.4508 -0.0214 -0.1529
 3785TIP3    H132770   1.969   4.946  11.907 -1.3968  1.3014  2.3237
 3785TIP3    H232771   1.889   4.829  11.960 -0.0784 -1.2356 -1.1100
 3786TIP3   OH232772   4.958   0.104   5.963  0.9881  0.3920  0.2664
 3786TIP3    H132773   4.877   0.069   5.927  2.0090 -0.2317 -1.5177
 3786TIP3    H232774   4.931   0.154   6.040 -0.9469 -0.7599  0.3751
 3787TIP3   OH232775   0.794   5.808  11.459 -0.0865 -0.0172 -0.0044
 3787TIP3    H132776   0.878   5.764  11.452  0.0699  0.1948  0.4840
 3787TIP3    H232777   0.733   5.751  11.412 -0.0905 -1.3242  1.5127
 3788TIP3   OH232778   4.145   4.963  12.861  0.3306 -0.6098 -0.2339
 3788TIP3    H132779   4.059   5.006  12.869  0.0122 -1.3168  0.2340
 3788TIP3    H232780   4.141   4.916  12.778 -0.9793 -3.3089  1.2766
 3789TIP3   OH232781   2.052   4.509  14.552 -0.3859 -0.1346  0.2996
 3789TIP3    H132782   2.101   4.586  14.521  1.2935 -1.2060  0.1884
 3789TIP3    H232783   2.038   4.457  14.473  0.9474 -1.2615  0.7825
 3790TIP3   OH232784   5.061   2.163   4.344  0.5076 -0.0138  0.5737
 3790TIP3    H132785   5.067   2.142   4.437 -1.1684  1.0998  0.9422
 3790TIP3    H232786   5.046   2.257   4.341 -0.6298 -0.2157 -0.7608
 3791TIP3   OH232787   0.674   2.629   4.054 -0.0538  0.0974  0.4226
 3791TIP3    H132788   0.647   2.720   4.038  1.0920  0.9395  2.9517
 3791TIP3    H232789   0.626   2.578   3.989 -0.1187  2.5850 -1.5877
 3792TIP3   OH232790   1.808   0.745   1.858 -0.3384  0.2673 -0.1536
 3792TIP3    H132791   1.778   0.655   1.850 -0.0818  0.1765 -0.0890
 3792TIP3    H232792   1.747   0.785   1.920 -0.0577 -0.0388  0.3280
 3793TIP3   OH232793   4.040   2.897   0.705 -0.2311 -0.0546 -0.6921
 3793TIP3    H132794   3.946   2.903   0.688 -0.5580  1.0486  1.3022
 3793TIP3    H232795   4.063   2.806   0.684 -1.3839  0.1026 -2.7668
 3794TIP3   OH232796   0.911   1.966   3.760 -0.6073 -0.4251  0.1799
 3794TIP3    H132797   0.847   1.950   3.829 -1.1113  0.3051 -0.1189
 3794TIP3    H232798   0.958   2.044   3.788 -0.2444 -0.6113  0.1035
 3795TIP3   OH232799   3.880   5.972   5.192  0.2962 -0.2762 -0.1045
 3795TIP3    H132800   3.886   5.929   5.277 -1.4487  0.8089  0.5826
 3795TIP3    H232801   3.902   6.064   5.209  0.2821 -0.1221 -0.8831
 3796TIP3   OH232802   0.150   0.120  13.994  0.6327 -0.6565  0.0314
 3796TIP3    H132803   0.243   0.097  13.992  0.7266 -0.1974 -0.9102
 3796TIP3    H232804   0.113   0.062  14.060  1.0924 -2.6164 -1.3966
 3797TIP3   OH232805   3.007   5.899  12.734 -0.1130  0.0059  0.2434
 3797TIP3    H132806   3.092   5.925  12.768 -0.8884  1.8456  0.8436
 3797TIP3    H232807   2.971   5.841  12.801  0.0533  0.4135  0.6851
 3798TIP3   OH232808   0.210   0.296   2.311  0.2273 -0.0772 -0.9194
 3798TIP3    H132809   0.152   0.239   2.261  0.6636 -0.3489 -1.1171
 3798TIP3    H232810   0.287   0.242   2.329  1.2130  0.8632 -2.2370
 3799TIP3   OH232811   3.498   4.710   4.269 -1.0037  0.0060 -0.1453
 3799TIP3    H132812   3.549   4.717   4.189 -2.5075 -0.5512 -1.1634
 3799TIP3    H232813   3.511   4.620   4.298 -0.9278  0.0425 -0.0630
 3800TIP3   OH232814   1.452   6.521   2.610  0.1189 -0.1339  0.1203
 3800TIP3    H132815   1.425   6.503   2.700 -0.3126 -0.4294 -0.0623
 3800TIP3    H232816   1.531   6.574   2.618 -1.2299  1.8483  0.6981
 3801TIP3   OH232817   1.608   1.851   1.556  0.3665 -0.1303 -0.1534
 3801TIP3    H132818   1.639   1.762   1.536 -0.6119 -0.6474  0.5345
 3801TIP3    H232819   1.663   1.880   1.629 -0.2598 -0.7535  0.5793
 3802TIP3   OH232820   4.558   0.276  10.756 -0.2957 -0.1997 -0.3799
 3802TIP3    H132821   4.550   0.285  10.661 -0.2222 -0.3412 -0.3987
 3802TIP3    H232822   4.485   0.220  10.781  0.0768 -0.7151 -0.4377
 3803TIP3   OH232823   2.540   5.278   5.041  0.0026  0.0492  0.7505
 3803TIP3    H132824   2.619   5.304   5.089 -0.0179 -1.0324  1.3762
 3803TIP3    H232825   2.569   5.269   4.950  0.3662  0.6787  0.8007
 3804TIP3   OH232826   5.099   2.301  12.764 -0.6186 -0.6779 -0.5443
 3804TIP3    H132827   5.010   2.301  12.801 -0.0259 -0.4362  0.9002
 3804TIP3    H232828   5.086   2.318  12.670 -2.1283 -1.1183 -0.4279
 3805TIP3   OH232829   5.715   0.835   5.565  0.3666  0.2484  0.2330
 3805TIP3    H132830   5.750   0.911   5.612  1.3093  1.0804 -1.7949
 3805TIP3    H232831   5.633   0.814   5.611  0.8346  1.5818  1.6994
 3806TIP3   OH232832   1.824   0.632  15.119  0.1172  0.5100 -0.6324
 3806TIP3    H132833   1.772   0.709  15.094 -1.9054 -0.2052  1.2820
 3806TIP3    H232834   1.773   0.557  15.089  0.4584 -0.1787  0.4734
 3807TIP3   OH232835   6.329   1.913   0.361 -0.1925 -0.3957 -0.3256
 3807TIP3    H132836   6.315   1.863   0.441  0.1414 -0.4601 -0.3063
 3807TIP3    H232837   6.246   1.959   0.346 -0.2744 -0.4292  0.0239
 3808TIP3   OH232838   1.438   2.313  15.429  0.1905 -0.3780 -0.0909
 3808TIP3    H132839   1.491   2.283  15.502  0.1769 -0.3768 -0.0794
 3808TIP3    H232840   1.407   2.400  15.455  0.2754 -0.3317 -0.1437
 3809TIP3   OH232841   3.469   3.361   1.799 -0.3474  0.2297  0.4047
 3809TIP3    H132842   3.547   3.408   1.827 -0.9778  1.5050  0.0626
 3809TIP3    H232843   3.426   3.335   1.880 -0.0582  0.3561  0.6006
 3810TIP3   OH232844   3.637   4.115  11.345  0.5206  0.5239 -0.1270
 3810TIP3    H132845   3.666   4.198  11.306  1.5711 -0.1988 -0.9128
 3810TIP3    H232846   3.671   4.048  11.286 -1.9814 -0.4094 -0.5457
 3811TIP3   OH232847   0.259   6.471   3.763  0.2605  0.4086  0.3872
 3811TIP3    H132848   0.225   6.463   3.852 -0.9587  0.6503 -0.0437
 3811TIP3    H232849   0.352   6.493   3.774  0.5437 -1.2816  1.5897
 3812TIP3   OH232850   6.347   4.557  12.589 -0.0535 -0.3817  0.8432
 3812TIP3    H132851   6.282   4.597  12.530 -0.8289  0.4789  2.2638
 3812TIP3    H232852   6.430   4.598  12.565 -0.0818 -1.1856 -0.7037
 3813TIP3   OH232853   3.318   3.584   1.708  0.1826  0.2294 -0.0538
 3813TIP3    H132854   3.353   3.605   1.621 -0.7104  0.1103 -0.4566
 3813TIP3    H232855   3.376   3.516   1.741  1.6405  1.5927  0.2361
 3814TIP3   OH232856   1.045   3.309   5.121  0.3288 -0.3818 -0.1519
 3814TIP3    H132857   1.002   3.378   5.171  0.1047 -0.6251 -0.0054
 3814TIP3    H232858   0.974   3.249   5.097  0.5390 -0.6242 -0.1742
 3815TIP3   OH232859   3.725   1.808  16.973  0.1322  0.3284 -0.4830
 3815TIP3    H132860   3.719   1.904  16.975  0.5105  0.3572 -0.7340
 3815TIP3    H232861   3.775   1.786  17.052 -0.7628  0.2759  0.0708
 3816TIP3   OH232862   1.611   5.822  15.889  0.1512 -0.4038  0.5814
 3816TIP3    H132863   1.559   5.832  15.968 -0.5997 -1.4088  0.2236
 3816TIP3    H232864   1.701   5.840  15.917 -0.5721  3.1702  0.8108
 3817TIP3   OH232865   2.697   3.425  12.091  0.0681  0.1824 -0.7517
 3817TIP3    H132866   2.781   3.440  12.048 -0.1489  0.4009 -1.1103
 3817TIP3    H232867   2.664   3.513  12.110  0.0564  0.0912 -0.3469
 3818TIP3   OH232868   5.575   4.889  17.208 -0.0020  0.4821  0.2615
 3818TIP3    H132869   5.580   4.937  17.125  0.2944 -0.1203 -0.0731
 3818TIP3    H232870   5.482   4.878  17.224 -0.1270  2.3428  1.0319
 3819TIP3   OH232871   0.455   3.347  11.306  0.2890  0.5672 -0.4888
 3819TIP3    H132872   0.427   3.423  11.357  1.9578  0.4722  0.6154
 3819TIP3    H232873   0.376   3.293  11.297 -0.4102  1.4071  0.5388
 3820TIP3   OH232874   5.530   0.093  12.577 -0.4141  0.4810  0.1967
 3820TIP3    H132875   5.591   0.059  12.512 -0.1777 -0.4506  0.9070
 3820TIP3    H232876   5.584   0.139  12.640 -0.7416  2.2984 -0.8166
 3821TIP3   OH232877   2.273   5.022   1.637  0.6369  0.0091 -0.7298
 3821TIP3    H132878   2.310   4.974   1.711  0.9577 -1.0003 -1.5413
 3821TIP3    H232879   2.184   4.990   1.630  0.7818 -0.3144 -1.1303
 3822TIP3   OH232880   4.212   0.320  12.718 -0.1211  0.2407 -0.2698
 3822TIP3    H132881   4.277   0.312  12.648  0.8076 -0.3351  0.6563
 3822TIP3    H232882   4.190   0.230  12.742  0.7217  0.4151  1.2401
 3823TIP3   OH232883   6.231   1.846   4.799  0.4819 -0.2724  0.4572
 3823TIP3    H132884   6.236   1.928   4.848  1.2313  0.1149 -0.2592
 3823TIP3    H232885   6.315   1.803   4.814  1.4025  0.6471 -1.8463
 3824TIP3   OH232886   2.901   0.840   5.006  0.3628 -1.0713 -0.2526
 3824TIP3    H132887   2.909   0.865   5.098 -1.8171 -2.6974  0.4245
 3824TIP3    H232888   2.840   0.903   4.969 -1.7511 -2.6903  0.3909
 3825TIP3   OH232889   4.841   6.301   3.950  0.1889 -0.2735  0.1273
 3825TIP3    H132890   4.813   6.390   3.973  1.4001  0.1299  0.0987
 3825TIP3    H232891   4.858   6.306   3.855 -0.4348 -0.7239 -0.0047
 3826TIP3   OH232892   4.135   2.280  13.852  0.3015 -0.2250  0.0914
 3826TIP3    H132893   4.111   2.318  13.937 -1.5282 -0.0305 -0.5000
 3826TIP3    H232894   4.225   2.311  13.837  1.2220 -1.5271  2.6578
 3827TIP3   OH232895   0.474   6.294   3.374  0.1788  0.3403 -0.0251
 3827TIP3    H132896   0.462   6.209   3.333  0.5559  0.2946 -0.0389
 3827TIP3    H232897   0.444   6.357   3.309  3.5345  0.4511 -1.5344
 3828TIP3   OH232898   3.194   1.315  16.368  0.0609  0.1888  0.3050
 3828TIP3    H132899   3.181   1.380  16.437  0.9437  0.5002  0.1822
 3828TIP3    H232900   3.124   1.251  16.381 -0.0135  0.4597  1.2439
 3829TIP3   OH232901   5.633   4.920   4.676  0.1358  0.2471  0.7719
 3829TIP3    H132902   5.547   4.887   4.651  1.0720 -0.6505 -1.3731
 3829TIP3    H232903   5.680   4.843   4.707  0.1436  0.7645  2.0882
 3830TIP3   OH232904   2.665   2.559  14.276  0.4688 -0.1576  0.4870
 3830TIP3    H132905   2.717   2.530  14.202  0.3335  1.9307 -0.4607
 3830TIP3    H232906   2.713   2.528  14.353  1.6942 -0.5532 -0.4239
 3831TIP3   OH232907   1.028   1.871  11.393 -0.1843  0.2755 -0.6341
 3831TIP3    H132908   1.120   1.896  11.385  0.0541  0.2855  1.6090
 3831TIP3    H232909   1.028   1.776  11.380 -0.1210  0.4898 -2.3280
 3832TIP3   OH232910   5.068   4.195   1.875  0.2307 -0.1361 -0.9946
 3832TIP3    H132911   5.021   4.275   1.850 -1.5669 -1.4719 -2.0055
 3832TIP3    H232912   5.000   4.138   1.911  1.5269 -1.1790 -0.1451
 3833TIP3   OH232913   2.218   4.822   2.360  0.6734 -0.2434 -0.3048
 3833TIP3    H132914   2.305   4.786   2.377  0.6399 -0.1162  0.1484
 3833TIP3    H232915   2.164   4.789   2.431  0.6383  0.6869  0.1166
 3834TIP3   OH232916   0.253   5.888   4.630  0.0694  0.3901 -0.2187
 3834TIP3    H132917   0.194   5.834   4.577 -2.0630  1.1484  1.3143
 3834TIP3    H232918   0.195   5.937   4.688  2.0587  3.2932 -0.6017
 3835TIP3   OH232919   1.291   0.840  15.179 -0.3902  0.1974 -0.0470
 3835TIP3    H132920   1.288   0.926  15.136  0.4327  0.1470 -0.2056
 3835TIP3    H232921   1.331   0.857  15.264  1.3166 -0.3039 -0.7436
 3836TIP3   OH232922   1.754   0.735   1.196 -0.1708  0.1640  0.2672
 3836TIP3    H132923   1.809   0.813   1.197 -1.4594  1.1313 -1.1755
 3836TIP3    H232924   1.805   0.668   1.241  2.0369  1.1332 -0.7365
 3837TIP3   OH232925   2.556   0.902   5.541  0.6313 -0.3770 -0.0263
 3837TIP3    H132926   2.624   0.943   5.595  0.6919 -0.8879  0.2896
 3837TIP3    H232927   2.604   0.844   5.482  0.7213  1.5284 -1.8762
 3838TIP3   OH232928   4.085   5.931   0.814 -0.1595  0.4264 -0.2030
 3838TIP3    H132929   4.099   5.884   0.896 -1.2604  1.6385  0.7037
 3838TIP3    H232930   4.142   5.887   0.751 -0.7132 -1.7304  0.7567
 3839TIP3   OH232931   0.334   4.256   3.240  0.2018 -0.2138 -0.1210
 3839TIP3    H132932   0.382   4.307   3.305 -1.4495  0.2220  0.7722
 3839TIP3    H232933   0.385   4.176   3.231  2.5980  1.3554 -1.2199
 3840TIP3   OH232934   0.523   0.415   3.042  0.2306  0.5043 -0.7311
 3840TIP3    H132935   0.513   0.395   2.949 -0.3958 -1.4686 -0.2606
 3840TIP3    H232936   0.618   0.412   3.056  0.3210  0.6497 -1.2740
 3841TIP3   OH232937   6.675   2.283   4.679  0.5183  0.6534  0.4024
 3841TIP3    H132938   6.690   2.189   4.680 -0.8674  0.3878 -1.2636
 3841TIP3    H232939   6.640   2.303   4.766  0.2529 -0.4633  0.5585
 3842TIP3   OH232940   1.569   0.166  14.920  0.0816  0.0828 -0.6000
 3842TIP3    H132941   1.643   0.115  14.886  0.7306 -0.4239  1.5147
 3842TIP3    H232942   1.497   0.148  14.859  0.9090 -1.6984 -1.0672
 3843TIP3   OH232943   3.680   6.769  11.310  0.1141  0.1718 -0.4381
 3843TIP3    H132944   3.690   6.862  11.331  0.2643 -0.2208  1.3398
 3843TIP3    H232945   3.740   6.755  11.237 -0.0912  1.5215 -0.8814
 3844TIP3   OH232946   6.492   2.521   3.034  0.2438  0.8890  0.2074
 3844TIP3    H132947   6.585   2.501   3.019  0.0714 -0.2784  0.6628
 3844TIP3    H232948   6.445   2.461   2.976 -0.1971  2.5902 -1.2275
 3845TIP3   OH232949   1.414   6.033   0.906  0.0206  0.3703 -0.3269
 3845TIP3    H132950   1.337   6.067   0.860 -0.3626 -0.2615 -0.1661
 3845TIP3    H232951   1.451   5.968   0.847 -1.3674 -1.5819  0.8406
 3846TIP3   OH232952   1.398   0.509  13.851 -0.2872  0.2263  0.4191
 3846TIP3    H132953   1.480   0.491  13.896 -0.2592 -0.1224  0.2275
 3846TIP3    H232954   1.375   0.598  13.877  0.3623  0.4731  0.1440
 3847TIP3   OH232955   4.507   2.104   5.622  0.4194  0.0203  0.2275
 3847TIP3    H132956   4.576   2.153   5.666  1.6261  0.1302 -1.7395
 3847TIP3    H232957   4.443   2.171   5.597  0.4827  0.1583  0.4367
 3848TIP3   OH232958   2.432   6.209   0.592  0.1572  0.4742 -0.0949
 3848TIP3    H132959   2.426   6.143   0.523 -1.3366  1.1605 -0.6290
 3848TIP3    H232960   2.527   6.220   0.605  0.4400 -0.9047 -0.8184
 3849TIP3   OH232961   1.951   5.421  15.578 -0.4021 -0.0927 -0.6527
 3849TIP3    H132962   1.872   5.370  15.596 -0.3622  0.3913  0.9919
 3849TIP3    H232963   1.985   5.444  15.665  0.0182  2.0243 -1.3504
 3850TIP3   OH232964   1.869   5.914   2.514 -0.3246  0.3738 -0.0793
 3850TIP3    H132965   1.814   5.917   2.593 -0.9959  0.9421 -0.5600
 3850TIP3    H232966   1.809   5.936   2.443  0.9209  2.8699 -0.3974
 3851TIP3   OH232967   1.897   3.207  13.420 -0.1291  0.7550 -0.4244
 3851TIP3    H132968   1.831   3.142  13.396  1.1646 -2.0487  3.1942
 3851TIP3    H232969   1.861   3.251  13.497  1.8770 -0.4163  1.2408
 3852TIP3   OH232970   2.369   6.392   4.429 -0.2965  0.3965  0.4299
 3852TIP3    H132971   2.399   6.437   4.349 -0.0593 -0.3007  0.1261
 3852TIP3    H232972   2.428   6.423   4.497  2.1282 -2.1203 -0.4484
 3853TIP3   OH232973   2.621   0.784  14.148  0.2482 -0.5622  0.3399
 3853TIP3    H132974   2.594   0.697  14.120 -0.0519 -0.7030  1.0532
 3853TIP3    H232975   2.565   0.804  14.223  0.1815  0.3279  0.0584
 3854TIP3   OH232976   4.812   4.964  16.174  0.5537  0.1097 -1.0656
 3854TIP3    H132977   4.802   4.958  16.269  2.2328  1.8103 -0.7491
 3854TIP3    H232978   4.728   5.000  16.144  0.3129  0.3451 -0.1449
 3855TIP3   OH232979   4.215   1.034  15.350 -0.7660  0.1764  0.6084
 3855TIP3    H132980   4.241   1.085  15.273  0.3019  0.5709  1.2207
 3855TIP3    H232981   4.119   1.035  15.348 -0.7650  2.3232  0.6843
 3856TIP3   OH232982   2.115   5.476   4.535  1.0516 -0.2347 -0.2007
 3856TIP3    H132983   2.077   5.486   4.448 -1.4327  1.4647  0.9959
 3856TIP3    H232984   2.161   5.558   4.550  0.3307  0.0326  0.5899
 3857TIP3   OH232985   6.372   2.738   2.451  0.2825 -0.2168 -0.1602
 3857TIP3    H132986   6.366   2.800   2.524 -0.0362  0.1043 -0.4517
 3857TIP3    H232987   6.343   2.788   2.375  2.1879 -0.0733 -0.8048
 3858TIP3   OH232988   4.674   2.917   0.492 -0.4623  0.3938  0.3761
 3858TIP3    H132989   4.725   2.947   0.567  0.5664 -0.3285 -0.0208
 3858TIP3    H232990   4.651   2.827   0.513  0.8128 -0.1887 -0.6705
 3859TIP3   OH232991   1.888   4.318   2.060 -1.5939 -0.0849  0.9739
 3859TIP3    H132992   1.800   4.282   2.071 -1.8660  1.2791  3.7073
 3859TIP3    H232993   1.942   4.267   2.120 -0.6951 -0.3559 -0.0694
 3860TIP3   OH232994   3.584   0.949   2.140 -0.1493 -0.6908  0.0984
 3860TIP3    H132995   3.630   0.924   2.220  0.0836 -1.0757 -0.1543
 3860TIP3    H232996   3.630   0.902   2.070 -1.3265 -1.5924 -0.0792
 3861TIP3   OH232997   2.949   1.268  14.200 -0.0889 -0.0735 -0.2215
 3861TIP3    H132998   2.868   1.267  14.251  0.0859  0.9233  0.0905
 3861TIP3    H232999   3.008   1.212  14.249 -1.0122 -1.9048 -1.1709
 3862TIP3   OH233000   4.328   0.480  11.707  0.2589 -0.1833 -0.3687
 3862TIP3    H133001   4.296   0.549  11.765 -0.6189 -0.8805 -0.0166
 3862TIP3    H233002   4.384   0.426  11.764 -1.1281 -1.2467  0.0010
 3863TIP3   OH233003   2.335   6.718   0.297  0.3507 -0.2777  0.5086
 3863TIP3    H133004   2.287   6.639   0.272  0.4952 -0.2695  0.2014
 3863TIP3    H233005   2.391   6.737   0.221 -1.1333  1.2568 -0.2520
 3864TIP3   OH233006   3.374   4.244   3.070 -0.2522  0.1795 -0.6451
 3864TIP3    H133007   3.378   4.191   3.149 -0.4259  0.6584 -0.3173
 3864TIP3    H233008   3.285   4.280   3.069  0.8396  3.0705  0.8360
 3865TIP3   OH233009   0.948   2.956   6.663 -0.3028 -0.5483  0.2452
 3865TIP3    H133010   0.855   2.945   6.680 -0.6911  1.5156 -0.4273
 3865TIP3    H233011   0.990   2.932   6.746 -1.5887  0.5164  1.2374
 3866TIP3   OH233012   0.927   3.275   0.977  0.0433  0.5009 -0.2224
 3866TIP3    H133013   0.938   3.189   0.936  1.3065  0.7489 -0.4128
 3866TIP3    H233014   0.997   3.329   0.940  0.2540  1.1584  1.0922
 3867TIP3   OH233015   6.735   3.628   4.104  0.3165 -0.2009  0.6284
 3867TIP3    H133016   6.684   3.702   4.071 -1.0333  0.2187  3.4349
 3867TIP3    H233017   6.817   3.667   4.134 -0.3224  0.1724  1.9443
 3868TIP3   OH233018   3.342   4.315  13.070  0.3257  0.7012  0.1539
 3868TIP3    H133019   3.290   4.314  13.150  0.8213  0.6614  0.4783
 3868TIP3    H233020   3.301   4.383  13.016 -0.5650  0.0942  0.0594
 3869TIP3   OH233021   0.648   4.436  12.638  0.3589  0.3713  0.3981
 3869TIP3    H133022   0.557   4.425  12.611  0.4678 -1.5225  0.7449
 3869TIP3    H233023   0.690   4.479  12.564 -0.1572 -1.4684 -0.9915
 3870TIP3   OH233024   6.097   4.048   0.921 -0.7301 -0.2352 -0.0576
 3870TIP3    H133025   6.060   4.109   0.858  0.3156  0.1284 -0.3184
 3870TIP3    H233026   6.034   4.047   0.994 -1.7425 -0.3652 -0.9227
 3871TIP3   OH233027   6.069   4.915  12.474  0.3484 -0.3744  0.5807
 3871TIP3    H133028   6.006   4.925  12.403  1.3745 -2.0809 -0.6007
 3871TIP3    H233029   6.120   4.996  12.473 -0.6880  0.2865  0.4257
 3872TIP3   OH233030   6.413   1.186   3.406 -0.3362  0.0217  0.1455
 3872TIP3    H133031   6.355   1.234   3.346 -0.3973  0.3771  0.4899
 3872TIP3    H233032   6.359   1.114   3.439 -0.7501  0.6601  0.8725
 3873TIP3   OH233033   0.959   5.229  11.139  0.5267 -0.3030 -0.2676
 3873TIP3    H133034   0.998   5.164  11.080  0.9556 -1.2227  0.9938
 3873TIP3    H233035   0.864   5.220  11.125  0.6620  0.1739 -1.5173
 3874TIP3   OH233036   3.519   6.355  15.392 -0.1430 -0.4009  0.1580
 3874TIP3    H133037   3.471   6.301  15.456  0.5291  1.1713  2.0414
 3874TIP3    H233038   3.607   6.318  15.390  0.0943  0.1148  0.8530
 3875TIP3   OH233039   3.560   3.483   1.536  0.4434  0.0567  0.1278
 3875TIP3    H133040   3.494   3.535   1.490  0.2877 -0.6987 -0.5236
 3875TIP3    H233041   3.644   3.514   1.501  0.3221 -0.5587 -0.7403
 3876TIP3   OH233042   6.349   5.242  16.051  0.4632 -0.2581  0.3685
 3876TIP3    H133043   6.395   5.237  15.967  0.5963 -0.5335  0.4582
 3876TIP3    H233044   6.280   5.306  16.036 -1.4787 -2.5691 -0.9094
 3877TIP3   OH233045   4.251   6.690  12.977 -0.5837  0.2584 -0.4237
 3877TIP3    H133046   4.237   6.737  13.059  0.3256 -0.2995  0.0612
 3877TIP3    H233047   4.180   6.624  12.975 -1.0759  0.7871 -0.4749
 3878TIP3   OH233048   1.305   3.553   3.296 -0.0229  0.1066 -0.1882
 3878TIP3    H133049   1.260   3.600   3.225 -2.1749 -0.4332  0.7598
 3878TIP3    H233050   1.250   3.569   3.373  1.2312 -0.9103  0.9351
 3879TIP3   OH233051   3.973   4.619   0.647 -0.2695 -0.2206 -0.3737
 3879TIP3    H133052   4.048   4.642   0.592  0.7866 -1.7066  0.3958
 3879TIP3    H233053   3.902   4.603   0.586 -0.0907  1.5985 -1.0989
 3880TIP3   OH233054   6.005   2.492  11.342 -0.3680  0.3653  0.3467
 3880TIP3    H133055   6.089   2.536  11.356  1.0419 -2.4584  1.1824
 3880TIP3    H233056   6.024   2.423  11.278 -1.9280 -0.5850  0.8698
 3881TIP3   OH233057   2.467   1.809  10.844  0.2134  0.2072 -0.0365
 3881TIP3    H133058   2.373   1.823  10.832  0.4662  0.9096 -1.3843
 3881TIP3    H233059   2.505   1.897  10.833  1.0592 -0.1375  0.1260
 3882TIP3   OH233060   0.763   3.352  13.424 -0.0373 -0.0906 -0.2167
 3882TIP3    H133061   0.732   3.333  13.335  0.5732  0.3039 -0.5216
 3882TIP3    H233062   0.801   3.440  13.417  1.2725 -0.6082  0.1019
 3883TIP3   OH233063   3.510   5.457   4.378  0.4518  0.5391  0.6417
 3883TIP3    H133064   3.523   5.478   4.285  0.6504  1.4558  0.8736
 3883TIP3    H233065   3.529   5.363   4.384 -0.6830  0.2170 -0.4598
 3884TIP3   OH233066   5.236   0.151  12.576 -0.6265  0.0366  0.4754
 3884TIP3    H133067   5.302   0.082  12.565 -0.6738  0.1273 -0.4197
 3884TIP3    H233068   5.286   0.226  12.608 -0.5602 -0.3758  1.3598
 3885TIP3   OH233069   2.048   3.570   5.263 -0.6141 -0.2932 -0.5884
 3885TIP3    H133070   1.959   3.566   5.298 -0.3221  1.7490  0.4706
 3885TIP3    H233071   2.042   3.530   5.177 -2.7709  0.6795 -0.9141
 3886TIP3   OH233072   6.295   2.975  15.223  0.7269  0.1033  0.4569
 3886TIP3    H133073   6.384   2.999  15.251  0.4666  2.3774 -0.5466
 3886TIP3    H233074   6.256   3.058  15.195 -0.5620 -1.3939 -2.3219
 3887TIP3   OH233075   1.991   3.578   4.620  0.0113 -0.2195 -0.0164
 3887TIP3    H133076   2.028   3.494   4.647  0.0181 -1.1208 -2.6838
 3887TIP3    H233077   1.900   3.574   4.649  1.0563  0.6724  3.6668
 3888TIP3   OH233078   0.294   1.176  14.432 -0.0268 -0.1158 -0.4957
 3888TIP3    H133079   0.228   1.238  14.463 -2.3121 -0.8630 -3.6216
 3888TIP3    H233080   0.257   1.090  14.453  0.7228 -0.5123 -0.7790
 3889TIP3   OH233081   1.221   4.479   4.963 -0.0811  0.7412  0.2320
 3889TIP3    H133082   1.158   4.484   4.892 -0.3270  2.3401  0.5531
 3889TIP3    H233083   1.247   4.386   4.965 -0.9453  0.4519 -1.1536
 3890TIP3   OH233084   4.272   2.255  11.348  0.1410 -0.3766  0.1601
 3890TIP3    H133085   4.223   2.335  11.329 -1.6019 -0.3186  4.4019
 3890TIP3    H233086   4.240   2.192  11.285  0.0246  1.6618 -1.8888
 3891TIP3   OH233087   2.449   3.673  13.691  0.0008  0.3953 -0.2457
 3891TIP3    H133088   2.464   3.653  13.783  0.5543  0.5619 -0.2931
 3891TIP3    H233089   2.387   3.607  13.662  0.9755 -0.5917 -0.1214
 3892TIP3   OH233090   5.860   3.506  11.276  0.8113 -0.8484 -0.4374
 3892TIP3    H133091   5.900   3.465  11.353  3.1989  1.9671 -0.0851
 3892TIP3    H233092   5.887   3.451  11.203 -0.0743 -2.6054  0.5190
 3893TIP3   OH233093   2.504   5.332   0.602  0.2283  0.5151 -0.0136
 3893TIP3    H133094   2.408   5.331   0.607  0.2671  1.2876  0.9327
 3893TIP3    H233095   2.532   5.384   0.677  1.4676 -1.1046  0.6674
 3894TIP3   OH233096   0.960   3.825  15.480  0.1736 -0.6431 -0.0793
 3894TIP3    H133097   1.001   3.891  15.536 -0.5482 -0.6111  0.4256
 3894TIP3    H233098   0.988   3.848  15.391  3.0465 -1.9590  0.4443
 3895TIP3   OH233099   4.967   1.640   1.823 -0.0072  0.5992  0.1229
 3895TIP3    H133100   4.919   1.559   1.807  0.6166  0.7414 -2.7349
 3895TIP3    H233101   4.947   1.695   1.747  2.3647  1.7558  0.2937
 3896TIP3   OH233102   2.629   4.157  15.426  0.5265  0.0313 -0.0887
 3896TIP3    H133103   2.556   4.094  15.424  0.4719  0.1287 -2.4786
 3896TIP3    H233104   2.607   4.216  15.499 -1.0825 -0.7609  0.1057
 3897TIP3   OH233105   4.198   5.889  14.951 -0.1147 -0.3336  0.3338
 3897TIP3    H133106   4.202   5.942  15.031 -3.2101  0.3560  0.0982
 3897TIP3    H233107   4.113   5.845  14.956 -0.1751 -0.6027 -2.3728
 3898TIP3   OH233108   1.312   2.466  11.196  0.2910  0.1719  0.1789
 3898TIP3    H133109   1.272   2.548  11.226 -0.9093 -0.1448 -0.5027
 3898TIP3    H233110   1.402   2.489  11.176  0.2291  1.1064  0.9271
 3899TIP3   OH233111   2.687   2.689   6.097  0.0870  0.0340  0.2380
 3899TIP3    H133112   2.752   2.746   6.137 -0.5604  1.1808 -0.3157
 3899TIP3    H233113   2.658   2.632   6.169  1.8622 -0.6676  0.4283
 3900TIP3   OH233114   4.032   5.122  11.635 -0.4936 -0.4042 -0.2738
 3900TIP3    H133115   3.936   5.124  11.640 -0.5936  2.0954 -2.1813
 3900TIP3    H233116   4.051   5.070  11.557 -0.3807  1.0571 -1.2302
 3901TIP3   OH233117   0.498   2.374   0.103  0.0387  0.0001 -0.2754
 3901TIP3    H133118   0.511   2.297   0.158 -1.6250  0.3784  0.6848
 3901TIP3    H233119   0.481   2.339   0.015  2.3954 -0.6093 -0.5329
 3902TIP3   OH233120   5.277   2.631  12.006 -0.2002  0.0799 -0.1494
 3902TIP3    H133121   5.252   2.707  11.953  0.7398 -0.9026 -2.0802
 3902TIP3    H233122   5.306   2.667  12.089 -0.3482  1.7843 -0.8237
 3903TIP3   OH233123   6.594   2.557   5.800 -0.1976 -0.1190 -0.0393
 3903TIP3    H133124   6.622   2.590   5.885  0.4972  2.0848 -1.1061
 3903TIP3    H233125   6.625   2.622   5.737 -2.2790 -0.7939 -1.8187
 3904TIP3   OH233126   0.810   4.711  15.385 -0.5431 -0.0050 -0.1332
 3904TIP3    H133127   0.826   4.715  15.291  0.8017  1.0712  0.1221
 3904TIP3    H233128   0.793   4.619  15.403 -0.6669 -0.2327 -1.4162
 3905TIP3   OH233129   1.339   4.138  10.854 -0.0741  0.0113 -0.1377
 3905TIP3    H133130   1.281   4.075  10.814 -0.4464 -0.0570  0.5009
 3905TIP3    H233131   1.384   4.180  10.781  0.4064 -1.2072 -0.5441
 3906TIP3   OH233132   5.322   2.152  11.511 -0.1585 -0.3306 -0.6942
 3906TIP3    H133133   5.393   2.170  11.450  0.8118 -1.9924 -0.0701
 3906TIP3    H233134   5.352   2.190  11.594 -0.3107 -0.4067 -0.6044
 3907TIP3   OH233135   5.612   3.341  11.722  0.0119 -0.8986 -0.2876
 3907TIP3    H133136   5.624   3.308  11.811  0.5007 -0.1647 -0.0810
 3907TIP3    H233137   5.530   3.302  11.693  1.3233 -3.5652 -0.6012
 3908TIP3   OH233138   5.418   1.583   4.137 -0.0247  0.0243  0.3369
 3908TIP3    H133139   5.328   1.553   4.137  0.6809 -2.2166  0.6541
 3908TIP3    H233140   5.420   1.656   4.200 -1.1132 -1.5091  2.1792
 3909TIP3   OH233141   3.085   0.735   2.442 -0.3119 -0.4087 -0.0390
 3909TIP3    H133142   3.068   0.735   2.537  1.0167  1.5569  0.2417
 3909TIP3    H233143   3.003   0.767   2.403 -0.5500 -0.3028  0.5367
 3910TIP3   OH233144   2.117   3.929  15.847  0.0610 -0.2758  0.5661
 3910TIP3    H133145   2.129   4.017  15.883  2.5319 -0.2133 -0.3532
 3910TIP3    H233146   2.059   3.941  15.772  0.7634  0.6522  0.1628
 3911TIP3   OH233147   0.480   3.938   0.812  0.1676 -0.4889 -0.2942
 3911TIP3    H133148   0.572   3.964   0.809 -0.1037  0.8778  2.0794
 3911TIP3    H233149   0.432   4.020   0.822 -1.1613 -1.3536  0.5897
 3912TIP3   OH233150   3.646   0.424  11.641 -0.3529 -0.1772  0.1561
 3912TIP3    H133151   3.729   0.469  11.656 -1.5765  2.3488 -0.4254
 3912TIP3    H233152   3.639   0.362  11.713  2.3706 -0.9352 -0.1961
 3913TIP3   OH233153   3.208   3.867  13.030  0.2409  0.3263 -0.0869
 3913TIP3    H133154   3.126   3.830  12.999  1.8955 -2.5582 -1.1772
 3913TIP3    H233155   3.182   3.947  13.076 -3.1910 -0.7831  0.0495
 3914TIP3   OH233156   4.468   2.886  13.974 -0.7906  0.0214  0.4291
 3914TIP3    H133157   4.509   2.934  13.901  0.1888 -1.6055 -0.1187
 3914TIP3    H233158   4.376   2.879  13.949 -0.5033 -0.3345 -0.5669
 3915TIP3   OH233159   4.580   3.188  11.109  0.1641 -0.0179  0.1642
 3915TIP3    H133160   4.510   3.240  11.149  0.4142  0.0376  0.5326
 3915TIP3    H233161   4.622   3.247  11.047 -0.3002 -0.1387 -0.2676
 3916TIP3   OH233162   3.596   4.446  13.791  0.3634  0.2454  0.2835
 3916TIP3    H133163   3.685   4.424  13.762  0.8404  1.9399  0.4335
 3916TIP3    H233164   3.609   4.498  13.870 -0.7883 -0.0944  0.6934
 3917TIP3   OH233165   5.704   6.349  15.189  0.5388  1.2394 -0.0512
 3917TIP3    H133166   5.760   6.378  15.262 -1.0451  2.4059  0.7498
 3917TIP3    H233167   5.763   6.303  15.130  2.1942  1.7799  1.1359
 3918TIP3   OH233168   6.658   1.688   2.758  0.3353  0.0186  0.2106
 3918TIP3    H133169   6.598   1.617   2.783 -0.6609  0.5831 -0.5262
 3918TIP3    H233170   6.604   1.748   2.707  1.3696  0.9054  0.1358
 3919TIP3   OH233171   3.193   2.200  12.916  0.3148  0.2385  0.0392
 3919TIP3    H133172   3.158   2.210  13.005  0.8636  3.1052 -0.0386
 3919TIP3    H233173   3.287   2.194  12.928  0.3191 -0.4362 -0.2987
 3920TIP3   OH233174   4.882   2.323  11.972  0.2722  0.2835  0.9903
 3920TIP3    H133175   4.830   2.383  12.025  1.6609  1.8816  0.5724
 3920TIP3    H233176   4.966   2.317  12.017  0.0819 -1.5437  1.1510
 3921TIP3   OH233177   3.648   6.250   6.601  0.1603 -0.1748  0.3101
 3921TIP3    H133178   3.647   6.339   6.635 -2.6547  0.8090 -2.1204
 3921TIP3    H233179   3.729   6.244   6.550  1.0460  0.5113  1.6206
 3922TIP3   OH233180   1.443   2.435  12.099  0.8147  0.1925 -0.3398
 3922TIP3    H133181   1.369   2.429  12.159  1.7362  2.1743  1.0366
 3922TIP3    H233182   1.487   2.350  12.107  1.5887  0.8148  2.7010
 3923TIP3   OH233183   2.203   5.355   0.054 -0.2139  0.1115 -0.4744
 3923TIP3    H133184   2.246   5.378   0.136 -0.7653  1.3838 -0.5322
 3923TIP3    H233185   2.134   5.293   0.079  0.8572 -0.9976 -0.2328
 3924TIP3   OH233186   4.213   4.121   2.918 -0.5737  0.2028  0.1405
 3924TIP3    H133187   4.232   4.188   2.852 -0.3567  0.0054  0.0011
 3924TIP3    H233188   4.199   4.041   2.868  0.5515 -0.1583  0.3842
 3925TIP3   OH233189   1.043   5.072   5.631 -0.2791 -0.0424 -0.2231
 3925TIP3    H133190   0.963   5.053   5.581 -1.7231  1.0423  1.6174
 3925TIP3    H233191   1.095   4.993   5.623 -2.3432 -1.4767  0.0596
 3926TIP3   OH233192   4.823   1.841  16.972 -0.3654  0.0611  0.1108
 3926TIP3    H133193   4.781   1.904  16.913  0.3772  0.3812 -0.0935
 3926TIP3    H233194   4.876   1.786  16.914 -1.2533 -0.9701  0.2503
 3927TIP3   OH233195   2.646   1.377  13.779  0.1269  0.2548  0.6662
 3927TIP3    H133196   2.685   1.332  13.854 -1.7222 -0.6242  1.1412
 3927TIP3    H233197   2.574   1.320  13.752 -2.3768  2.9943  1.3809
 3928TIP3   OH233198   6.768   5.361  11.347 -0.1551 -0.3892  0.3571
 3928TIP3    H133199   6.785   5.291  11.410  1.6447 -0.3798 -0.1089
 3928TIP3    H233200   6.788   5.322  11.262  1.6473  0.9078  0.1507
 3929TIP3   OH233201   5.669   5.709   5.549 -0.0955 -0.3566 -0.0572
 3929TIP3    H133202   5.616   5.775   5.505  2.8289  0.3913 -2.5780
 3929TIP3    H233203   5.726   5.759   5.607  0.0980 -0.9008  0.2242
 3930TIP3   OH233204   3.908   1.473  13.614  0.1589 -0.4425  0.6987
 3930TIP3    H133205   3.893   1.532  13.688 -0.8718  0.6974 -0.3962
 3930TIP3    H233206   3.870   1.390  13.641 -0.9886  0.2095  1.1040
 3931TIP3   OH233207   2.101   2.986   5.377  0.3954  0.3432 -0.0786
 3931TIP3    H133208   2.123   3.060   5.320  0.8173  0.0278 -0.3201
 3931TIP3    H233209   2.116   3.019   5.466 -0.9353  1.0699 -0.0973
 3932TIP3   OH233210   2.414   4.335  12.468 -0.2553  0.3755  0.2105
 3932TIP3    H133211   2.368   4.418  12.476  0.8155  1.0451 -0.5506
 3932TIP3    H233212   2.488   4.353  12.411  1.8654 -0.3214  2.6314
 3933TIP3   OH233213   1.626   4.914   5.821 -0.0887 -0.3737  0.2156
 3933TIP3    H133214   1.660   4.919   5.911  3.8862 -2.1284 -1.0717
 3933TIP3    H233215   1.586   4.827   5.816  0.2499 -0.5237  0.1116
 3934TIP3   OH233216   5.877   4.964   6.010  0.3457  0.0388 -0.3422
 3934TIP3    H133217   5.971   4.948   6.022  0.2500 -0.4592 -0.2319
 3934TIP3    H233218   5.843   4.969   6.099 -0.0315 -1.6335 -0.3715
 3935TIP3   OH233219   5.361   3.451   6.270  0.4943 -0.2790 -0.2713
 3935TIP3    H133220   5.397   3.377   6.222 -0.6183 -1.2501  0.3740
 3935TIP3    H233221   5.339   3.516   6.203  1.0089 -0.7353 -0.8789
 3936TIP3   OH233222   3.898   1.306  15.682  0.1278  0.3828  0.6870
 3936TIP3    H133223   3.960   1.272  15.747  0.7088 -0.0474 -0.0882
 3936TIP3    H233224   3.819   1.325  15.732  0.4804 -0.2124  1.4780
 3937TIP3   OH233225   4.343   5.558  12.203  0.2246  0.1255  0.1619
 3937TIP3    H133226   4.333   5.650  12.179  0.9683  0.1749  0.0496
 3937TIP3    H233227   4.272   5.542  12.265  0.7195  1.0481  0.9735
 3938TIP3   OH233228   1.932   4.272   0.159  0.1751  0.5140 -0.0261
 3938TIP3    H133229   1.936   4.340   0.091  0.3182  2.3500  1.7745
 3938TIP3    H233230   1.889   4.315   0.233  0.7685 -1.2018  1.3439
 3939TIP3   OH233231   1.194   3.920  11.129 -0.1007 -0.4471  0.0923
 3939TIP3    H133232   1.124   3.904  11.192  0.4847 -1.6130  0.4579
 3939TIP3    H233233   1.157   3.894  11.045 -0.7745  0.8115 -0.0133
 3940TIP3   OH233234   2.685   2.703  11.941 -0.3009  0.2439  0.7237
 3940TIP3    H133235   2.712   2.664  11.858 -0.6241 -0.3669  0.9029
 3940TIP3    H233236   2.661   2.628  11.996  1.3403  0.5411  1.8731
 3941TIP3   OH233237   3.323   4.883   2.095 -0.0790 -0.0465 -0.5236
 3941TIP3    H133238   3.230   4.895   2.115 -0.0552  0.3681 -0.6714
 3941TIP3    H233239   3.367   4.954   2.141  0.3884 -1.5253  1.3589
 3942TIP3   OH233240   4.420   4.740   3.213  0.5248 -0.2349 -0.6287
 3942TIP3    H133241   4.483   4.806   3.186  0.0143 -0.1561 -1.6293
 3942TIP3    H233242   4.339   4.789   3.231  1.0269 -0.1805  1.7427
 3943TIP3   OH233243   0.776   4.445  15.396  0.0759 -0.6940 -0.5977
 3943TIP3    H133244   0.767   4.406  15.483 -1.0339 -0.7844 -0.7343
 3943TIP3    H233245   0.861   4.415  15.364  1.2683  0.7373  1.1331
 3944TIP3   OH233246   3.434   6.738   0.475 -0.0123  0.7572 -0.4286
 3944TIP3    H133247   3.339   6.729   0.483  0.2565 -0.7708  1.2006
 3944TIP3    H233248   3.453   6.708   0.386 -1.1007  1.4842 -0.9181
 3945TIP3   OH233249   5.413   0.560   4.883  0.2551 -0.3468 -0.1925
 3945TIP3    H133250   5.376   0.594   4.801 -1.2948  1.0346  1.0478
 3945TIP3    H233251   5.415   0.465   4.870 -0.8001 -0.2101 -1.5090
 3946TIP3   OH233252   5.434   3.922  13.822 -0.4385 -0.1817 -0.0874
 3946TIP3    H133253   5.435   3.986  13.752 -1.8041 -1.0442 -0.9081
 3946TIP3    H233254   5.393   3.968  13.896  1.7364  0.9839  0.4337
 3947TIP3   OH233255   6.273   5.274  15.290 -0.2140 -0.1717 -0.3619
 3947TIP3    H133256   6.186   5.288  15.326 -0.0462 -1.0666  0.4172
 3947TIP3    H233257   6.332   5.281  15.366  0.5641  2.1556 -1.1566
 3948TIP3   OH233258   0.473   5.495  14.090 -0.2674 -0.1391 -0.4115
 3948TIP3    H133259   0.539   5.535  14.033  0.3598  0.9079  1.0316
 3948TIP3    H233260   0.488   5.534  14.176 -1.3906 -1.4881  0.4242
 3949TIP3   OH233261   4.605   1.318   4.741  0.2667 -0.7895 -0.6852
 3949TIP3    H133262   4.610   1.413   4.743  1.2741 -0.8548  0.7867
 3949TIP3    H233263   4.622   1.294   4.650 -0.5037  0.4485 -1.1669
 3950TIP3   OH233264   0.928   0.663  11.070 -0.0823  0.4456  0.1870
 3950TIP3    H133265   0.879   0.670  11.152  0.9492  0.7509  0.7883
 3950TIP3    H233266   0.983   0.586  11.081  0.1724  0.5754 -0.1681
 3951TIP3   OH233267   3.970   5.758  14.986  0.6728 -0.2507 -0.4909
 3951TIP3    H133268   3.902   5.792  15.044  1.0996 -0.7712  0.3231
 3951TIP3    H233269   3.925   5.741  14.904  0.4141  2.1764 -0.9000
 3952TIP3   OH233270   0.039   1.762  12.051 -0.0553 -0.2706 -0.4368
 3952TIP3    H133271   0.108   1.816  12.013 -0.8521  0.1915 -1.2325
 3952TIP3    H233272   0.052   1.771  12.146 -0.8699  2.2208 -0.5337
 3953TIP3   OH233273   4.980   6.121   4.096 -0.2073  0.1339  0.3621
 3953TIP3    H133274   4.940   6.202   4.063  0.3227 -0.1451 -0.9913
 3953TIP3    H233275   5.065   6.117   4.052  0.8624  0.1647  2.4059
 3954TIP3   OH233276   2.225   5.023   1.179  0.0769  0.1268 -0.3357
 3954TIP3    H133277   2.176   5.074   1.243 -0.9387  0.7130 -1.5504
 3954TIP3    H233278   2.301   4.990   1.227 -2.2713 -2.0891  2.0187
 3955TIP3   OH233279   3.629   2.371  11.333  0.0035  0.1693 -0.4014
 3955TIP3    H133280   3.575   2.298  11.301 -0.7826  1.1400 -1.3230
 3955TIP3    H233281   3.596   2.447  11.286  0.0039  1.3459  1.4686
 3956TIP3   OH233282   1.642   4.532   0.852  0.5229  0.2756 -0.3105
 3956TIP3    H133283   1.720   4.554   0.801 -0.3399  1.6207 -1.0831
 3956TIP3    H233284   1.662   4.563   0.941  1.7028 -1.3293  0.0064
 3957TIP3   OH233285   3.703   3.036  15.556  0.3366  0.2064 -0.2498
 3957TIP3    H133286   3.780   3.003  15.603  0.5730  1.2937  0.1268
 3957TIP3    H233287   3.706   2.991  15.471  1.2774  0.1078 -0.1682
 3958TIP3   OH233288   0.011   4.496  15.318 -0.2418  0.0652  0.9701
 3958TIP3    H133289   0.070   4.421  15.320  0.5930  0.6980  0.5765
 3958TIP3    H233290  -0.063   4.468  15.265 -0.3029 -0.7366  1.4642
 3959TIP3   OH233291   5.976   1.555  16.374 -0.5636  0.2099  0.3033
 3959TIP3    H133292   5.944   1.633  16.328  0.1298  0.2620 -0.1122
 3959TIP3    H233293   5.983   1.582  16.466  3.9739  2.1346 -0.4442
 3960TIP3   OH233294   2.363   2.385   2.246 -0.2410 -0.0297 -0.5781
 3960TIP3    H133295   2.412   2.406   2.166 -1.6466 -1.5087 -1.8587
 3960TIP3    H233296   2.271   2.398   2.222 -0.5962  1.0436  1.2884
 3961TIP3   OH233297   2.956   4.164   4.128 -0.0444 -0.5867  0.4123
 3961TIP3    H133298   3.047   4.136   4.123 -0.9836 -3.5806 -1.0623
 3961TIP3    H233299   2.911   4.114   4.060 -2.6830  1.3226  0.6574
 3962TIP3   OH233300   4.408   5.845  12.460  0.1452 -0.0132  0.3251
 3962TIP3    H133301   4.369   5.853  12.373 -1.4694 -2.4213  0.7858
 3962TIP3    H233302   4.406   5.751  12.479  0.5496  0.4643  2.9179
 3963TIP3   OH233303   3.368   5.693  15.513  0.0576  0.7513 -0.0428
 3963TIP3    H133304   3.390   5.601  15.494  1.0658  1.0899 -0.5813
 3963TIP3    H233305   3.307   5.717  15.443  1.5626  1.1496 -1.2558
 3964TIP3   OH233306   5.390   1.231  11.719  0.3614 -0.1016  0.3322
 3964TIP3    H133307   5.468   1.287  11.719 -0.2791  0.8286 -1.0884
 3964TIP3    H233308   5.318   1.291  11.739  0.0732 -1.0890  2.3476
 3965TIP3   OH233309   5.951   3.113  17.135  0.3461 -0.9213 -0.0564
 3965TIP3    H133310   5.932   3.036  17.082  2.2169 -1.5290  0.1361
 3965TIP3    H233311   5.964   3.183  17.070  0.5996 -1.2014 -0.3096
 3966TIP3   OH233312   0.012   2.139  11.960  0.0471 -0.4183  0.8795
 3966TIP3    H133313   0.061   2.104  11.885 -0.7888 -0.6225  0.4177
 3966TIP3    H233314   0.054   2.100  12.036 -1.6533 -3.5058  0.3185
 3967TIP3   OH233315   6.031   1.479   3.286 -0.5531 -0.2672  0.3517
 3967TIP3    H133316   5.965   1.514   3.347 -0.0165 -0.1385  0.8626
 3967TIP3    H233317   5.984   1.472   3.203 -0.9348  0.8176  0.4565
 3968TIP3   OH233318   1.688   1.729  12.283 -0.0578 -0.5682  0.1588
 3968TIP3    H133319   1.727   1.708  12.198  0.1431 -1.1103  0.3823
 3968TIP3    H233320   1.756   1.709  12.347 -0.4640 -0.8755  0.5008
 3969TIP3   OH233321   4.681   2.948   3.876  0.5630 -0.7154  0.3628
 3969TIP3    H133322   4.753   3.011   3.882 -0.5222  0.3476  2.4131
 3969TIP3    H233323   4.621   2.986   3.812  0.6022 -0.4031  0.5151
 3970TIP3   OH233324   6.546   5.623  16.704  0.1003 -0.0635  0.2024
 3970TIP3    H133325   6.601   5.619  16.626  0.8249 -0.4322  0.7306
 3970TIP3    H233326   6.559   5.539  16.748 -0.8141 -0.1217  0.3799
 3971TIP3   OH233327   5.658   3.827  11.263  0.0537 -0.0854 -0.4365
 3971TIP3    H133328   5.602   3.790  11.195 -1.2008 -0.6376  0.8782
 3971TIP3    H233329   5.621   3.914  11.279  0.0715 -0.1342 -0.1362
 3972TIP3   OH233330   4.104   2.231   0.575 -0.4091  0.2204  0.0521
 3972TIP3    H133331   4.137   2.145   0.600 -0.8079  0.2144  0.5776
 3972TIP3    H233332   4.112   2.283   0.655 -2.4763 -0.0331  0.4443
 3973TIP3   OH233333   3.337   5.603  11.957 -0.0657  0.1115 -0.1610
 3973TIP3    H133334   3.369   5.533  12.015  2.7166  2.0723  0.7385
 3973TIP3    H233335   3.392   5.595  11.878 -2.0340 -0.8246 -1.4844
 3974TIP3   OH233336   0.251   2.501   6.640 -0.0564 -0.0441  0.1143
 3974TIP3    H133337   0.332   2.485   6.689 -0.9654 -0.9796  1.3288
 3974TIP3    H233338   0.246   2.596   6.633  0.5921  0.0586  0.9776
 3975TIP3   OH233339   3.417   1.616  11.738  0.2446  0.2183 -0.3283
 3975TIP3    H133340   3.438   1.529  11.706  0.1393 -0.1901  0.6735
 3975TIP3    H233341   3.326   1.610  11.766  0.5311  0.3527  0.6783
 3976TIP3   OH233342   1.157   4.504  16.468  0.1289 -0.2304  0.3132
 3976TIP3    H133343   1.148   4.571  16.400  0.5880  1.1676  1.5837
 3976TIP3    H233344   1.151   4.421  16.421  0.3345  0.6954 -1.4127
 3977TIP3   OH233345   1.868   4.071  16.001 -0.2770 -0.4081 -0.2701
 3977TIP3    H133346   1.896   4.001  16.060  0.1728 -0.7596 -0.8918
 3977TIP3    H233347   1.863   4.149  16.056  0.5471 -0.6460  0.1490
 3978TIP3   OH233348   3.317   2.063  15.988 -0.5311  0.1474 -0.3313
 3978TIP3    H133349   3.402   2.023  15.969 -0.4334  0.4385 -0.5122
 3978TIP3    H233350   3.253   1.997  15.960 -0.3625 -0.1579  0.0054
 3979TIP3   OH233351   2.319   4.904   5.799  0.1429 -0.3724 -0.4913
 3979TIP3    H133352   2.248   4.879   5.740  0.3152 -0.2165 -0.7634
 3979TIP3    H233353   2.289   4.875   5.886 -0.4081  0.0124 -0.5533
 3980TIP3   OH233354   3.120   2.383  14.614 -0.2246 -0.5958  0.3299
 3980TIP3    H133355   3.027   2.406  14.604 -0.3774 -1.1448  0.5052
 3980TIP3    H233356   3.160   2.462  14.650 -0.0254  0.7793 -2.7613
 3981TIP3   OH233357   1.447   6.435   6.745 -0.3491 -0.4375 -0.4498
 3981TIP3    H133358   1.416   6.437   6.836  0.3682 -2.9197 -0.1189
 3981TIP3    H233359   1.375   6.472   6.695 -1.4772 -0.6746  0.9528
 3982TIP3   OH233360   4.665   0.172   1.968 -0.3989  0.3880  0.4684
 3982TIP3    H133361   4.677   0.257   1.925 -2.2043  0.6356  0.4128
 3982TIP3    H233362   4.729   0.115   1.927  1.2115  1.8586  0.8909
 3983TIP3   OH233363   0.357   4.296   1.713  0.0806  0.4371 -0.0208
 3983TIP3    H133364   0.305   4.247   1.648 -0.7905  0.5579  0.5779
 3983TIP3    H233365   0.359   4.239   1.790  1.2374  0.2329 -0.1899
 3984TIP3   OH233366   6.136   1.547  14.786 -0.2205 -0.0359 -0.0228
 3984TIP3    H133367   6.198   1.547  14.859  0.3863  0.9265 -0.5388
 3984TIP3    H233368   6.087   1.465  14.797  1.0925 -0.7769  0.4247
 3985TIP3   OH233369   1.047   6.355  13.829  0.0671  0.8464 -0.0875
 3985TIP3    H133370   1.002   6.275  13.800  0.8283 -0.0761  1.2621
 3985TIP3    H233371   1.026   6.419  13.761  0.1038 -0.7093 -1.5972
 3986TIP3   OH233372   6.049   1.189   1.701  0.2705  0.5758  0.0591
 3986TIP3    H133373   6.090   1.257   1.647  0.5736  1.2620  1.1335
 3986TIP3    H233374   5.957   1.217   1.709  0.0984  0.1907 -0.5364
 3987TIP3   OH233375   1.517   4.607  12.798 -0.0676 -0.1766  0.3318
 3987TIP3    H133376   1.423   4.587  12.800 -0.0779 -0.3965 -1.3040
 3987TIP3    H233377   1.549   4.580  12.884 -1.2289 -1.5590  0.3568
 3988TIP3   OH233378   0.387   4.832   3.927 -0.4981  0.0795  0.1675
 3988TIP3    H133379   0.292   4.845   3.919 -0.2402  2.6513  0.5771
 3988TIP3    H233380   0.408   4.871   4.012  1.1286  0.8536 -0.5728
 3989TIP3   OH233381   4.867   5.211  15.033  0.2244 -0.0835  0.4411
 3989TIP3    H133382   4.855   5.294  14.987  1.3427 -0.3133 -0.2724
 3989TIP3    H233383   4.782   5.194  15.075 -0.2373  1.0332 -0.0321
 3990TIP3   OH233384   5.049   0.974   2.912  0.1204  0.3273  0.4134
 3990TIP3    H133385   4.973   0.949   2.964 -1.8810 -0.8259 -2.9207
 3990TIP3    H233386   5.091   0.892   2.889  0.4758  0.7460 -0.4802
 3991TIP3   OH233387   1.863   0.720  12.476 -0.0826 -0.2047 -0.1121
 3991TIP3    H133388   1.850   0.626  12.481 -1.2209 -0.1911 -2.1830
 3991TIP3    H233389   1.921   0.732  12.400  1.5196  0.6593  1.2050
 3992TIP3   OH233390   6.210   5.083  13.070  0.1683 -0.0924 -0.2533
 3992TIP3    H133391   6.262   5.084  12.989 -1.4496  2.3922 -1.2931
 3992TIP3    H233392   6.187   4.991  13.082  1.9557 -0.7550 -1.5925
 3993TIP3   OH233393   1.760   4.169   5.304 -0.4712 -0.3204  0.3791
 3993TIP3    H133394   1.797   4.257   5.316  0.5009 -0.2015 -2.9332
 3993TIP3    H233395   1.813   4.114   5.362  1.3961  0.7101 -0.2797
 3994TIP3   OH233396   0.414   4.045   5.399 -0.0027 -0.2060  0.6436
 3994TIP3    H133397   0.332   3.995   5.391 -0.6028  1.0482 -1.4578
 3994TIP3    H233398   0.436   4.068   5.309  1.2280  1.7702  1.4324
 3995TIP3   OH233399   5.736   1.953  13.400 -0.5841  0.2313  0.0727
 3995TIP3    H133400   5.744   2.041  13.436 -0.2529  0.2774 -0.1189
 3995TIP3    H233401   5.815   1.908  13.429 -0.2258  0.3218 -0.7583
 3996TIP3   OH233402   6.773   0.161   5.289  0.2793  0.7361 -0.0678
 3996TIP3    H133403   6.738   0.235   5.338 -0.4703  0.2954  0.0677
 3996TIP3    H233404   6.857   0.142   5.332 -0.8336 -0.2794  1.7005
 3997TIP3   OH233405   6.544   2.795   4.493  0.4485  0.1834  0.1287
 3997TIP3    H133406   6.554   2.711   4.538  1.0684 -0.6347 -1.5154
 3997TIP3    H233407   6.455   2.793   4.458  0.4722  0.2118  0.0664
 3998TIP3   OH233408   0.089   6.715  12.966  0.4945  0.0078 -0.6039
 3998TIP3    H133409   0.081   6.719  12.871  0.1097 -2.6567 -0.7254
 3998TIP3    H233410   0.001   6.690  12.996  0.7133  0.4438  0.4174
 3999TIP3   OH233411   5.320   3.540  11.455 -0.3830  0.1144 -0.0572
 3999TIP3    H133412   5.406   3.506  11.428 -0.4883  0.1868 -0.4837
 3999TIP3    H233413   5.263   3.524  11.381 -0.7780 -0.0596  0.2810
 4000TIP3   OH233414   5.376   0.770  12.590  0.7118  0.2788 -0.6548
 4000TIP3    H133415   5.401   0.684  12.555 -0.4869  0.0317 -0.9176
 4000TIP3    H233416   5.435   0.832  12.546  2.7545 -0.5658  0.8015
 4001TIP3   OH233417   6.415   3.633   3.889 -0.0393  0.3410 -0.1975
 4001TIP3    H133418   6.355   3.706   3.880  0.7502  0.9470 -0.6841
 4001TIP3    H233419   6.361   3.559   3.917 -0.9611  0.9267 -0.4452
 4002TIP3   OH233420   6.596   1.938  12.735 -0.6098  0.8425  0.0825
 4002TIP3    H133421   6.680   1.899  12.762  0.5037  2.4826 -0.8929
 4002TIP3    H233422   6.539   1.863  12.718  0.6599 -0.3027  0.7817
 4003TIP3   OH233423   3.559   2.750  16.979 -0.0406 -0.2315 -0.5677
 4003TIP3    H133424   3.588   2.662  17.001 -1.3227  0.1069  2.7968
 4003TIP3    H233425   3.619   2.808  17.026 -1.4918  0.5750  0.3676
 4004TIP3   OH233426   0.209   2.414   0.496  0.3523 -0.3228 -0.1658
 4004TIP3    H133427   0.179   2.352   0.429 -0.9232 -0.2904  0.3586
 4004TIP3    H233428   0.198   2.367   0.579  0.4092  0.2178  0.1473
 4005TIP3   OH233429   2.356   5.665   3.241 -0.2712  0.1175  0.1278
 4005TIP3    H133430   2.348   5.614   3.160 -0.0200  0.9558 -0.4254
 4005TIP3    H233431   2.369   5.755   3.211 -0.7192  0.5077  1.1053
 4006TIP3   OH233432   4.525   3.935   0.783  0.3251  0.0027 -0.3667
 4006TIP3    H133433   4.494   3.917   0.871  0.2327  0.4679 -0.3042
 4006TIP3    H233434   4.494   3.861   0.731  0.5671 -0.3800  0.0322
 4007TIP3   OH233435   6.223   4.579  12.828  0.2977 -0.1890  0.1456
 4007TIP3    H133436   6.256   4.551  12.742 -0.7569 -0.6494 -0.1252
 4007TIP3    H233437   6.190   4.668  12.813 -1.5916 -0.9432 -0.4087
 4008TIP3   OH233438   4.896   4.311   5.796  0.0221 -0.1418  0.1867
 4008TIP3    H133439   4.891   4.374   5.868 -0.0064 -1.0021  0.9569
 4008TIP3    H233440   4.839   4.239   5.824  0.3803 -0.6974 -0.4878
 4009TIP3   OH233441   4.081   0.425  15.485 -0.1256  0.7184 -0.1005
 4009TIP3    H133442   4.030   0.373  15.547  1.1424 -0.0471  0.3197
 4009TIP3    H233443   4.020   0.445  15.414 -0.2576 -2.5961 -0.9982
 4010TIP3   OH233444   0.843   1.817   6.465  0.5399 -0.0655 -1.0240
 4010TIP3    H133445   0.882   1.887   6.517 -0.2575  0.4683 -1.1372
 4010TIP3    H233446   0.754   1.809   6.498  0.4044 -0.5493 -1.4913
 4011TIP3   OH233447   4.977   0.111   1.259 -0.5204  0.1831  0.2604
 4011TIP3    H133448   4.959   0.134   1.168 -1.6778  1.2582  0.7361
 4011TIP3    H233449   4.890   0.105   1.300  0.0369  1.6353  1.7258
 4012TIP3   OH233450   4.849   2.752   2.602 -0.0106  0.2980 -0.1259
 4012TIP3    H133451   4.815   2.705   2.678 -1.6178  1.1689 -0.2987
 4012TIP3    H233452   4.781   2.815   2.579 -0.0170 -0.6245 -2.9247
 4013TIP3   OH233453   4.004   4.277  10.761  0.1633 -0.1124  0.1951
 4013TIP3    H133454   3.943   4.210  10.732 -0.7858  0.4733  0.8357
 4013TIP3    H233455   3.969   4.359  10.726  1.5245  0.0310 -0.9240
 4014TIP3   OH233456   3.103   3.538   5.416 -0.1093  0.2133 -0.0812
 4014TIP3    H133457   3.027   3.485   5.441 -0.9226  1.3018 -0.2314
 4014TIP3    H233458   3.175   3.475   5.409 -0.8927 -0.7553  0.5237
 4015TIP3   OH233459   0.877   6.165   0.501 -0.3816  0.3932 -0.2054
 4015TIP3    H133460   0.842   6.177   0.412 -1.2737  1.3011  0.2551
 4015TIP3    H233461   0.969   6.189   0.494 -0.1488 -0.6874 -1.1388
 4016TIP3   OH233462   1.869   3.149  16.489  0.4665  0.5864  0.1423
 4016TIP3    H133463   1.842   3.076  16.545 -0.2866  1.4881  0.9741
 4016TIP3    H233464   1.791   3.168  16.436  1.2328 -0.3927 -1.3843
 4017TIP3   OH233465   4.422   0.097  10.932  0.5413 -0.0603 -0.5259
 4017TIP3    H133466   4.374   0.036  10.876  0.1894 -0.9156  0.6882
 4017TIP3    H233467   4.472   0.041  10.991  0.8834  0.8305  0.0410
 4018TIP3   OH233468   1.839   3.008  14.475 -0.0701 -0.1994  0.1850
 4018TIP3    H133469   1.921   3.053  14.494 -0.5367  0.6877  0.0854
 4018TIP3    H233470   1.794   3.064  14.412 -0.1632 -1.3339 -0.7717
 4019TIP3   OH233471   4.353   5.623   6.030 -0.1960  0.4373 -0.4319
 4019TIP3    H133472   4.340   5.545   5.976 -0.6167  0.0294  0.2540
 4019TIP3    H233473   4.265   5.659   6.042 -0.2111  0.0168  0.7289
 4020TIP3   OH233474   3.574   4.791  14.524 -0.1012 -0.2920 -0.1073
 4020TIP3    H133475   3.611   4.712  14.564 -1.4594 -1.0019 -0.2210
 4020TIP3    H233476   3.563   4.767  14.432  0.4982  0.4146 -0.3644
 4021TIP3   OH233477   5.562   5.595  14.592  0.1942 -0.0493 -0.3885
 4021TIP3    H133478   5.648   5.599  14.551 -0.2078 -2.6177 -1.5929
 4021TIP3    H233479   5.501   5.607  14.519 -0.4956 -2.0050 -0.1584
 4022TIP3   OH233480   3.208   5.219   1.611 -0.5111  0.1016 -0.7223
 4022TIP3    H133481   3.180   5.287   1.673 -0.4077 -0.7382  0.2506
 4022TIP3    H233482   3.127   5.181   1.579 -0.5718  0.7501 -1.3426
 4023TIP3   OH233483   1.077   5.524   5.570 -0.0631 -0.4202  0.0497
 4023TIP3    H133484   1.047   5.569   5.491  0.7097  0.3651  0.2056
 4023TIP3    H233485   1.160   5.484   5.545 -0.6571 -1.6150 -0.0365
 4024TIP3   OH233486   0.391   0.425  12.588 -0.0071 -0.6780  0.3867
 4024TIP3    H133487   0.371   0.418  12.495  0.7642 -0.7764  0.2193
 4024TIP3    H233488   0.307   0.441  12.630 -0.2170  0.4301 -0.4362
 4025TIP3   OH233489   3.679   1.857  13.199  0.4611 -0.3631 -0.1768
 4025TIP3    H133490   3.762   1.900  13.222  0.0072  0.4875 -0.1192
 4025TIP3    H233491   3.625   1.865  13.278  0.3688 -1.0505 -0.1627
 4026TIP3   OH233492   5.450   0.023   1.711 -0.1139  0.3782  0.1148
 4026TIP3    H133493   5.385   0.051   1.775  0.8318  2.1912  0.3268
 4026TIP3    H233494   5.508   0.099   1.701  1.2876 -0.7894 -0.9210
 4027TIP3   OH233495   5.470   5.823   1.824  0.0169  0.2153 -0.6003
 4027TIP3    H133496   5.416   5.811   1.746 -0.6333 -0.6597 -0.0289
 4027TIP3    H233497   5.491   5.734   1.853  2.3435  0.5308 -1.1889
 4028TIP3   OH233498   5.209   1.602  12.963  0.5172  0.2300 -0.5180
 4028TIP3    H133499   5.200   1.594  12.868 -0.0474  0.8850 -0.5211
 4028TIP3    H233500   5.125   1.576  12.998  0.3061  1.2173 -0.2712
 4029TIP3   OH233501   5.765   3.854  15.481 -0.2052  0.2623  0.4538
 4029TIP3    H133502   5.840   3.898  15.440 -1.5244  0.5027 -1.7671
 4029TIP3    H233503   5.703   3.924  15.499 -0.7982 -0.2253  0.2948
 4030TIP3   OH233504   5.088   0.823   4.029  0.0431  0.1572  0.3227
 4030TIP3    H133505   5.087   0.728   4.027  0.1144  0.1636 -0.0519
 4030TIP3    H233506   5.060   0.846   4.118  0.1491 -0.2127  0.4504
 4031TIP3   OH233507   2.506   3.778  15.656 -0.5586  0.2835  0.3767
 4031TIP3    H133508   2.463   3.792  15.740 -1.2055 -0.0031  0.0999
 4031TIP3    H233509   2.467   3.844  15.598 -1.9172 -1.0881 -0.3282
 4032TIP3   OH233510   4.829   0.182   4.240  0.1591 -0.1098  0.6503
 4032TIP3    H133511   4.803   0.152   4.153  0.1882  0.1795  0.5402
 4032TIP3    H233512   4.896   0.120   4.268  1.6350  0.9820 -0.3876
 4033TIP3   OH233513   0.244   0.131  15.688  1.2210  0.6213  0.5169
 4033TIP3    H133514   0.246   0.088  15.603  0.0361  0.6494  0.4648
 4033TIP3    H233515   0.284   0.068  15.748 -0.0992 -0.3864  0.3592
 4034TIP3   OH233516   0.504   3.980  15.053  0.1891  0.1700  0.0682
 4034TIP3    H133517   0.463   3.943  15.131  0.2096  1.9463  0.9232
 4034TIP3    H233518   0.582   3.925  15.040 -1.1915 -1.7830 -0.2639
 4035TIP3   OH233519   1.916   1.177  14.306 -0.0565 -0.9365  0.5329
 4035TIP3    H133520   1.914   1.123  14.227  0.7741 -1.0474  0.5924
 4035TIP3    H233521   1.914   1.114  14.379 -0.8797 -0.8337  0.6152
 4036TIP3   OH233522   0.401   5.935  15.901  0.2198  0.3579 -0.2957
 4036TIP3    H133523   0.401   5.844  15.931 -1.2598  0.6151  0.5582
 4036TIP3    H233524   0.479   5.943  15.847 -0.2489 -1.7490 -1.3362
 4037TIP3   OH233525   3.510   2.141   5.838  0.2287  0.0639 -0.1664
 4037TIP3    H133526   3.573   2.105   5.901 -0.3149  0.8137  0.8160
 4037TIP3    H233527   3.473   2.217   5.883 -2.7865 -1.4568  0.0379
 4038TIP3   OH233528   2.459   0.837  14.934 -0.4905 -0.9335 -0.3868
 4038TIP3    H133529   2.376   0.881  14.953 -0.8990 -0.8840 -2.1862
 4038TIP3    H233530   2.510   0.903  14.887  0.2837 -1.2100  0.0650
 4039TIP3   OH233531   4.299   5.532   2.016  0.5806  0.4895 -0.0375
 4039TIP3    H133532   4.270   5.615   2.054  1.2881  0.3403  0.8647
 4039TIP3    H233533   4.219   5.482   2.002  0.2707  0.6713  1.0041
 4040TIP3   OH233534   1.507   1.185  15.294 -0.6072  0.0476  0.3725
 4040TIP3    H133535   1.452   1.257  15.262 -1.5922 -1.3051 -1.0599
 4040TIP3    H233536   1.446   1.129  15.342 -0.1580 -0.6051  0.1843
 4041TIP3   OH233537   3.458   4.968  10.868  0.2285 -0.1725  0.5226
 4041TIP3    H133538   3.423   4.979  10.780 -0.6906  0.5538  0.9659
 4041TIP3    H233539   3.537   5.022  10.869 -0.5139  0.9446  0.5544
 4042TIP3   OH233540   1.776   0.846   4.317  0.0941 -0.3312 -0.3144
 4042TIP3    H133541   1.724   0.766   4.312 -0.6689  0.1776 -0.6080
 4042TIP3    H233542   1.779   0.866   4.410  3.0704 -2.4960  0.1212
 4043TIP3   OH233543   2.150   5.080  13.527 -0.8183 -0.1208 -0.4935
 4043TIP3    H133544   2.065   5.037  13.528  0.1865 -2.1456 -0.2760
 4043TIP3    H233545   2.206   5.021  13.477  0.5197  1.0774 -0.4266
 4044TIP3   OH233546   4.676   2.544   5.773 -0.1104  0.3582 -0.0659
 4044TIP3    H133547   4.767   2.555   5.801 -0.3288 -1.0432  1.2598
 4044TIP3    H233548   4.625   2.578   5.846 -0.6658 -1.1238  0.2480
 4045TIP3   OH233549   0.445   2.468  16.196 -0.3600 -0.5606  0.2668
 4045TIP3    H133550   0.508   2.535  16.171 -1.4435  0.4014  0.0929
 4045TIP3    H233551   0.360   2.512  16.194 -1.1104 -1.9747 -0.0225
 4046TIP3   OH233552   5.978   5.012  12.237  0.6851  0.1873 -0.1100
 4046TIP3    H133553   5.958   5.089  12.292  0.1013 -0.7340  0.9838
 4046TIP3    H233554   5.892   4.984  12.204  0.7402 -0.8381  0.6283
 4047TIP3   OH233555   4.229   3.750   5.117 -0.1356  0.0158  0.2057
 4047TIP3    H133556   4.258   3.838   5.140 -0.7480  0.5086 -0.9201
 4047TIP3    H233557   4.308   3.696   5.126  0.5745  0.9224 -0.4700
 4048TIP3   OH233558   1.754   5.169   4.382  0.3188  0.0956  0.3377
 4048TIP3    H133559   1.781   5.092   4.332  2.3168 -0.3976  2.1044
 4048TIP3    H233560   1.831   5.225   4.384  1.0271 -0.8476  4.5482
 4049TIP3   OH233561   3.099   4.718  16.947 -0.3730  0.1406  0.3924
 4049TIP3    H133562   3.060   4.750  17.028 -0.9291 -1.4027  0.7407
 4049TIP3    H233563   3.129   4.629  16.968  1.2913  0.4696 -0.5149
 4050TIP3   OH233564   3.017   1.564   2.477 -0.0100  0.0610  0.3523
 4050TIP3    H133565   3.087   1.559   2.412 -0.8218 -1.1399 -0.4696
 4050TIP3    H233566   3.044   1.632   2.538  2.2537 -0.9329  0.5044
 4051TIP3   OH233567   0.759   5.900   2.660  0.0680 -0.0361 -0.3202
 4051TIP3    H133568   0.832   5.905   2.598 -0.6766  0.6661 -1.1493
 4051TIP3    H233569   0.800   5.906   2.746  0.7835  3.0345 -0.8315
 4052TIP3   OH233570   6.744   4.801   1.057  0.0665 -0.2319 -0.3903
 4052TIP3    H133571   6.677   4.854   1.101  0.1796  0.1676 -0.6956
 4052TIP3    H233572   6.789   4.755   1.128 -0.8014 -0.8245 -0.2074
 4053TIP3   OH233573   5.980   6.370   0.720  0.8799 -0.1071 -0.7546
 4053TIP3    H133574   5.982   6.292   0.776  1.2624  0.1346 -0.4304
 4053TIP3    H233575   5.933   6.435   0.771  1.2295  0.1139 -0.7132
 4054TIP3   OH233576   4.479   6.442  12.289 -0.7596  0.1010  0.2370
 4054TIP3    H133577   4.480   6.350  12.266 -0.6959  0.1262  0.1395
 4054TIP3    H233578   4.505   6.444  12.381  2.0093  0.2399 -0.4898
 4055TIP3   OH233579   1.350   1.284  17.122 -0.5449  0.0930  0.4075
 4055TIP3    H133580   1.373   1.323  17.038 -1.0867 -1.1056 -0.3153
 4055TIP3    H233581   1.374   1.192  17.114 -2.3407 -0.4499  0.8737
 4056TIP3   OH233582   6.409   0.690   6.303 -0.0402 -0.0225 -0.2879
 4056TIP3    H133583   6.486   0.746   6.303  1.1646 -1.6030 -2.0933
 4056TIP3    H233584   6.338   0.746   6.272  0.5175  1.2460  0.7000
 4057TIP3   OH233585   3.757   3.846  12.467  0.2067  0.4985 -0.2839
 4057TIP3    H133586   3.754   3.756  12.437  1.5412 -0.7515  3.1287
 4057TIP3    H233587   3.849   3.871  12.458 -0.1960  1.6079 -1.4257
 4058TIP3   OH233588   2.141   5.970  13.228  0.3017  0.5564 -0.2238
 4058TIP3    H133589   2.188   6.027  13.289 -0.0989  0.4733  0.1630
 4058TIP3    H233590   2.053   5.965  13.263  0.4888 -0.7855  0.0704
 4059TIP3   OH233591   1.643   4.400  12.652 -0.1999  0.1037  0.6752
 4059TIP3    H133592   1.685   4.325  12.694  0.2551 -0.8121 -1.3484
 4059TIP3    H233593   1.606   4.451  12.724 -0.9304 -2.3111  2.0506
 4060TIP3   OH233594   5.783   5.311   0.769  0.0813  0.0806  0.1998
 4060TIP3    H133595   5.730   5.233   0.752 -0.8105  0.5605  0.7736
 4060TIP3    H233596   5.776   5.364   0.689 -0.0542  0.0056  0.1624
 4061TIP3   OH233597   5.938   6.260   4.566  0.4534  0.1534 -0.4173
 4061TIP3    H133598   5.879   6.186   4.548  0.0155  0.6634 -1.0759
 4061TIP3    H233599   5.883   6.326   4.607  1.0282 -0.2168  0.9853
 4062TIP3   OH233600   4.276   0.910  16.727 -0.2689  0.1299 -0.0852
 4062TIP3    H133601   4.242   0.821  16.737 -1.6009  0.6217 -0.1785
 4062TIP3    H233602   4.334   0.905  16.651  0.2495 -0.8166  0.3577
 4063TIP3   OH233603   3.891   2.388  13.339 -0.4396  0.0089  0.7374
 4063TIP3    H133604   3.935   2.366  13.257  1.1359 -1.8221  2.0092
 4063TIP3    H233605   3.798   2.391  13.317 -0.1656 -1.8525 -0.8484
 4064TIP3   OH233606   0.342   5.311  14.536 -0.5476  0.3220  0.0271
 4064TIP3    H133607   0.305   5.373  14.599 -2.1350 -0.0538 -0.4862
 4064TIP3    H233608   0.326   5.225  14.575 -0.8392  0.1245 -0.5200
 4065TIP3   OH233609   2.000   2.721   1.985 -0.5347  0.3802 -0.3370
 4065TIP3    H133610   2.078   2.747   2.034 -0.6964 -0.4346  0.3713
 4065TIP3    H233611   2.015   2.753   1.896 -0.2751  1.9499  0.2564
 4066TIP3   OH233612   5.675   3.257   0.352  0.7543 -0.2612 -0.3096
 4066TIP3    H133613   5.606   3.240   0.416 -0.2405  2.1112 -0.6686
 4066TIP3    H233614   5.640   3.224   0.269 -0.1128  1.2087 -0.5475
 4067TIP3   OH233615   5.608   6.233   0.896  0.0761  0.1770 -0.1510
 4067TIP3    H133616   5.526   6.197   0.865  1.4765 -1.0498 -2.5616
 4067TIP3    H233617   5.600   6.327   0.885 -1.7265  0.2476  1.5245
 4068TIP3   OH233618   4.796   4.410   0.376 -0.0710 -0.0613  0.2686
 4068TIP3    H133619   4.751   4.341   0.425  1.6224 -2.5567 -1.5359
 4068TIP3    H233620   4.783   4.386   0.284  1.4725  1.4213 -0.3532
 4069TIP3   OH233621   2.348   3.117   0.051 -0.3955 -0.0333  0.3397
 4069TIP3    H133622   2.283   3.147   0.115  2.2998 -0.3027  3.2964
 4069TIP3    H233623   2.426   3.170   0.069  1.0615 -1.5170 -1.4002
 4070TIP3   OH233624   2.454   3.129   4.274  0.6601 -0.5913  0.3750
 4070TIP3    H133625   2.480   3.202   4.331  1.5977  0.3505 -1.2457
 4070TIP3    H233626   2.515   3.059   4.295  1.6456  0.0957 -0.1891
 4071TIP3   OH233627   2.864   1.884  12.226 -0.5728  0.4391 -0.3559
 4071TIP3    H133628   2.877   1.961  12.171 -1.4790  0.3607 -0.6986
 4071TIP3    H233629   2.825   1.819  12.168  0.2568 -0.3099 -0.0872
 4072TIP3   OH233630   0.364   1.311   0.585  0.1142  0.0111 -0.8378
 4072TIP3    H133631   0.276   1.330   0.553 -0.1816  0.3324  0.1352
 4072TIP3    H233632   0.406   1.397   0.589 -1.1324  0.5482  3.3084
 4073TIP3   OH233633   3.957   6.261  13.225 -0.6543  0.3098 -0.1047
 4073TIP3    H133634   3.967   6.179  13.274  2.3591 -0.3971 -1.8122
 4073TIP3    H233635   3.879   6.248  13.172 -0.0111 -1.6096 -0.6147
 4074TIP3   OH233636   5.013   2.175   2.065 -0.1473 -0.1836  0.3932
 4074TIP3    H133637   4.932   2.169   2.014  0.2650  0.0525 -0.2922
 4074TIP3    H233638   5.056   2.091   2.051 -0.2375 -0.2831  0.7030
 4075TIP3   OH233639   0.573   3.865  15.693 -0.1871  0.3552  0.1902
 4075TIP3    H133640   0.495   3.921  15.691  0.8859  2.0401  2.7627
 4075TIP3    H233641   0.646   3.925  15.676  0.7297 -0.9048 -0.4634
 4076TIP3   OH233642   4.469   3.003  14.391  0.1251  0.4816 -0.7419
 4076TIP3    H133643   4.558   3.036  14.398  0.3872 -0.3191 -0.2447
 4076TIP3    H233644   4.444   2.981  14.480 -0.2911 -0.0127 -0.9735
 4077TIP3   OH233645   1.020   5.962   2.539  0.5444 -0.5102 -0.3167
 4077TIP3    H133646   1.105   5.919   2.528  0.5594 -0.8929  1.2500
 4077TIP3    H233647   1.042   6.050   2.569  0.3894 -0.4778 -0.2994
 4078TIP3   OH233648   4.428   1.417   5.647 -0.0056  0.3269  0.4982
 4078TIP3    H133649   4.453   1.369   5.726  0.8546 -0.0009  0.0263
 4078TIP3    H233650   4.511   1.446   5.608 -0.4736  1.5809  0.3886
 4079TIP3   OH233651   5.892   2.646   1.874  0.3828 -0.5493  0.8062
 4079TIP3    H133652   5.985   2.633   1.892  0.7290  1.6581  0.7811
 4079TIP3    H233653   5.883   2.624   1.781  0.4176 -2.8998  1.3244
 4080TIP3   OH233654   1.667   1.640  12.948 -1.3933  0.4652 -0.4090
 4080TIP3    H133655   1.734   1.692  12.903 -0.6967 -0.4117 -0.3971
 4080TIP3    H233656   1.711   1.558  12.970 -2.0793  0.4281  0.8400
 4081TIP3   OH233657   5.712   6.677  14.439  0.2923  0.0503 -0.0339
 4081TIP3    H133658   5.658   6.605  14.470 -0.4330  0.8931  0.6679
 4081TIP3    H233659   5.753   6.712  14.518 -1.0775  1.8105 -0.0751
 4082TIP3   OH233660   2.239   3.146   2.906 -0.2076  1.2807  0.1096
 4082TIP3    H133661   2.191   3.081   2.855  1.0876 -0.9098  1.6156
 4082TIP3    H233662   2.265   3.213   2.842 -1.2123  0.1355 -1.5249
 4083TIP3   OH233663   3.482   4.815   6.112 -0.0952 -0.2255 -0.1251
 4083TIP3    H133664   3.456   4.905   6.096  0.7245  0.5631  2.8144
 4083TIP3    H233665   3.401   4.771   6.137 -0.6941 -0.6112 -2.5766
 4084TIP3   OH233666   0.071   1.533   3.186 -0.0366 -0.4915  0.0320
 4084TIP3    H133667   0.072   1.585   3.106  1.5531 -0.3226  0.1641
 4084TIP3    H233668   0.124   1.457   3.167 -0.4154 -0.9173  0.6279
 4085TIP3   OH233669   0.045   0.560  15.038 -0.2687  0.4392 -0.5014
 4085TIP3    H133670   0.105   0.634  15.046 -0.4403  0.3739  1.7438
 4085TIP3    H233671  -0.042   0.598  15.053 -0.3929 -0.1225  0.2446
 4086TIP3   OH233672   5.285   1.604  16.499  0.4189  0.1501 -0.0318
 4086TIP3    H133673   5.278   1.518  16.542 -0.7639 -0.6180 -1.6950
 4086TIP3    H233674   5.376   1.629  16.512  0.9481 -1.6561 -0.0282
 4087TIP3   OH233675   4.466   4.024  12.020  0.5907 -0.1173  0.0965
 4087TIP3    H133676   4.520   3.946  12.010  0.7897  0.0890 -0.4714
 4087TIP3    H233677   4.496   4.064  12.101 -0.3172 -1.2626  1.0184
 4088TIP3   OH233678   0.453   0.491  15.825 -0.1043 -0.1020 -0.5377
 4088TIP3    H133679   0.530   0.549  15.823 -1.5940  2.0356  1.2238
 4088TIP3    H233680   0.441   0.472  15.918 -1.8506 -0.1881 -0.7704
 4089TIP3   OH233681   2.637   5.984   2.191 -0.0506  0.3776 -0.1292
 4089TIP3    H133682   2.714   6.025   2.228 -1.0757  1.1879  1.1612
 4089TIP3    H233683   2.655   5.890   2.195  2.0708  0.6092 -2.5741
 4090TIP3   OH233684   4.336   1.949   5.036 -0.4750  0.1100  0.2973
 4090TIP3    H133685   4.342   1.881   4.968 -0.0691 -0.6202  1.0434
 4090TIP3    H233686   4.313   1.901   5.115 -1.1424  0.9845  0.6384
 4091TIP3   OH233687   2.346   1.708   2.703 -0.2991 -0.0437  0.2646
 4091TIP3    H133688   2.268   1.670   2.661 -1.6143  2.3888  0.4095
 4091TIP3    H233689   2.321   1.714   2.796  0.3247  0.1309  0.4182
 4092TIP3   OH233690   4.945   5.915  11.364 -0.5187  0.2268  0.8317
 4092TIP3    H133691   4.893   5.864  11.302 -0.6298  1.0859  0.2092
 4092TIP3    H233692   4.915   6.005  11.352 -1.1694  0.2930  2.7646
 4093TIP3   OH233693   0.109   1.220  14.887 -1.0602  1.1547  0.0537
 4093TIP3    H133694   0.097   1.141  14.834  0.6248  1.6307 -1.0441
 4093TIP3    H233695   0.145   1.284  14.827  1.2039  1.6146  1.8331
 4094TIP3   OH233696   5.176   6.466   2.164  0.8968  0.1154 -0.4706
 4094TIP3    H133697   5.161   6.553   2.199  1.3342 -1.0269  2.6993
 4094TIP3    H233698   5.090   6.437   2.133  0.4330  1.0110 -0.0326
 4095TIP3   OH233699   3.540   4.193  14.473  0.0630 -0.2042 -0.5120
 4095TIP3    H133700   3.514   4.213  14.383  1.6180  0.7845 -0.7665
 4095TIP3    H233701   3.524   4.274  14.521  3.4019  0.7061 -0.8577
 4096TIP3   OH233702   2.560   5.589   1.799 -0.4202 -0.3087  0.6189
 4096TIP3    H133703   2.638   5.533   1.806 -0.3484 -0.2100  0.6049
 4096TIP3    H233704   2.488   5.531   1.823 -0.4619 -0.7119 -0.4664
 4097TIP3   OH233705   6.740   6.616  15.955  0.4940  0.2528  0.8148
 4097TIP3    H133706   6.749   6.545  16.019  1.7851 -1.4605 -1.1795
 4097TIP3    H233707   6.717   6.693  16.007  0.0491 -1.4057  3.1514
 4098TIP3   OH233708   3.488   0.567  13.817  0.1650  0.0009  0.1304
 4098TIP3    H133709   3.437   0.619  13.880 -0.6866 -0.9262  0.2187
 4098TIP3    H233710   3.512   0.630  13.749  0.1688  0.7767  0.8304
 4099TIP3   OH233711   6.297   2.827   1.098  0.3007  0.0041 -0.3342
 4099TIP3    H133712   6.254   2.907   1.068 -0.9510 -0.8530 -0.8522
 4099TIP3    H233713   6.233   2.757   1.081  1.0122 -0.9833  0.9668
 4100TIP3   OH233714   4.750   4.452  12.977  0.1350 -0.7970  0.2264
 4100TIP3    H133715   4.724   4.537  12.943  0.6162 -1.3775 -1.6560
 4100TIP3    H233716   4.763   4.398  12.899  1.3454 -2.1407  1.3330
 4101TIP3   OH233717   5.690   5.557   0.021  0.1165  0.9072  0.0244
 4101TIP3    H133718   5.762   5.539   0.082  0.1202  1.1503  0.0930
 4101TIP3    H233719   5.628   5.485   0.035  0.7486  0.2273 -0.6491
 4102TIP3   OH233720   5.508   0.574  13.767 -0.2744 -0.0110 -0.1764
 4102TIP3    H133721   5.447   0.537  13.831  0.1777  1.7114  1.3023
 4102TIP3    H233722   5.454   0.591  13.690 -1.4209  0.3328  0.6862
 4103TIP3   OH233723   5.541   4.105  13.065 -0.3013  0.0832  0.4876
 4103TIP3    H133724   5.576   4.193  13.077 -0.0745 -0.3673  3.5746
 4103TIP3    H233725   5.566   4.059  13.145 -3.0290 -1.9060  0.2293
 4104TIP3   OH233726   5.340   3.321  14.815 -0.1427  0.2194 -0.4583
 4104TIP3    H133727   5.421   3.343  14.862 -1.1961  0.3328  1.3597
 4104TIP3    H233728   5.296   3.405  14.804 -0.7302 -0.0425 -0.0886
 4105TIP3   OH233729   1.603   6.708  12.961  0.6160 -0.1512 -0.8971
 4105TIP3    H133730   1.563   6.794  12.954 -0.3430 -0.3101  2.0762
 4105TIP3    H233731   1.542   6.649  12.916  0.8612  0.5421 -2.1783
 4106TIP3   OH233732   1.840   2.282   0.559  0.5154 -0.9940 -0.6889
 4106TIP3    H133733   1.881   2.307   0.642  0.1325 -0.6763 -0.5942
 4106TIP3    H233734   1.769   2.224   0.584  1.8014 -2.7240 -0.9488
 4107TIP3   OH233735   0.883   3.233   6.304  0.2477  0.4871 -0.2724
 4107TIP3    H133736   0.912   3.324   6.307  0.5677  0.4009 -0.7965
 4107TIP3    H233737   0.818   3.231   6.233 -1.2308  0.7341  1.0501
 4108TIP3   OH233738   6.200   0.685   3.853  0.3652 -0.7157  0.4720
 4108TIP3    H133739   6.141   0.651   3.920 -0.4435 -0.9807 -0.3675
 4108TIP3    H233740   6.286   0.684   3.895 -0.0552 -1.3160  1.3511
 4109TIP3   OH233741   0.218   3.319  14.072  0.7295  0.1045 -0.3217
 4109TIP3    H133742   0.270   3.299  14.150  0.0980  0.1078  0.0974
 4109TIP3    H233743   0.190   3.234  14.038 -0.0280  0.1586  0.1582
 4110TIP3   OH233744   4.520   0.222   4.518 -0.0232  0.1848  0.0343
 4110TIP3    H133745   4.552   0.293   4.462 -1.1600  0.1364 -0.6657
 4110TIP3    H233746   4.442   0.258   4.560  0.2461 -0.1362  0.8361
 4111TIP3   OH233747   5.094   2.357   0.139 -0.0092  0.2506  0.0915
 4111TIP3    H133748   5.139   2.395   0.214  1.2399  0.9313 -0.9728
 4111TIP3    H233749   5.042   2.285   0.176  1.0532  0.1917  1.5156
 4112TIP3   OH233750   0.523   6.075   3.581 -0.4349  0.3323 -0.5348
 4112TIP3    H133751   0.457   6.045   3.643 -0.9878  0.0455 -1.2487
 4112TIP3    H233752   0.484   6.153   3.541 -1.2552 -1.0148 -2.4531
 4113TIP3   OH233753   6.584   3.065  15.226  0.5665  0.2409  0.4629
 4113TIP3    H133754   6.629   2.996  15.177  0.1640 -0.0580  0.5073
 4113TIP3    H233755   6.601   3.044  15.318 -0.0682 -0.1549  0.4941
 4114TIP3   OH233756   1.382   4.731  12.526 -0.1357 -0.1161 -0.1848
 4114TIP3    H133757   1.328   4.788  12.471 -1.1007  0.2430  1.1105
 4114TIP3    H233758   1.470   4.740  12.490 -0.5627  0.9335 -1.0133
 4115TIP3   OH233759   5.459   6.244   3.024  0.3663 -0.2847 -0.1677
 4115TIP3    H133760   5.455   6.327   3.071 -2.0006 -0.5058  0.1082
 4115TIP3    H233761   5.526   6.257   2.957  2.4063  0.6762  2.0010
 4116TIP3   OH233762   5.384   2.747   4.938 -0.1421 -0.4724 -0.4735
 4116TIP3    H133763   5.443   2.674   4.923 -0.5211 -0.3571 -2.7425
 4116TIP3    H233764   5.303   2.721   4.895 -0.8889  0.5001  0.3192
 4117TIP3   OH233765   3.162   2.735   3.368  0.5557 -0.2675 -0.5940
 4117TIP3    H133766   3.154   2.716   3.275  1.8629 -4.8579  0.0863
 4117TIP3    H233767   3.250   2.704   3.391  0.7773  2.0181  1.9253
 4118TIP3   OH233768   2.794   5.478  15.263 -0.0003  0.3133  0.8601
 4118TIP3    H133769   2.856   5.407  15.281  2.2936  2.3550  1.3396
 4118TIP3    H233770   2.801   5.535  15.339 -0.4575  1.9687 -0.3224
 4119TIP3   OH233771   2.095   6.126  12.986  0.6389 -0.1391  0.2653
 4119TIP3    H133772   2.056   6.201  13.031  0.2560 -0.9058  1.2501
 4119TIP3    H233773   2.119   6.066  13.056 -1.0485 -1.8851 -0.5931
 4120TIP3   OH233774   5.553   0.674   5.723  0.4225  0.5957  0.8595
 4120TIP3    H133775   5.631   0.623   5.701 -0.1382  0.0511  0.1197
 4120TIP3    H233776   5.549   0.671   5.819  1.1308  0.3634  0.8858
 4121TIP3   OH233777   2.489   6.076   0.328 -0.5115 -0.2781  0.2111
 4121TIP3    H133778   2.478   6.005   0.265 -0.7375  0.6429 -0.8094
 4121TIP3    H233779   2.467   6.155   0.279 -0.9280  0.4361  1.5211
 4122TIP3   OH233780   6.373   6.212  12.391 -0.5099 -0.0527 -0.8003
 4122TIP3    H133781   6.316   6.203  12.315 -0.6649 -0.9083 -0.5854
 4122TIP3    H233782   6.313   6.210  12.466 -0.2052 -0.8504 -0.5806
 4123TIP3   OH233783   2.943   1.970   0.145  0.1783  0.9001 -0.4827
 4123TIP3    H133784   3.029   2.007   0.163 -0.5816  2.1907  0.6322
 4123TIP3    H233785   2.906   2.027   0.077 -0.8141  1.9897  0.9167
 4124TIP3   OH233786   1.648   2.777   2.426 -0.0342  0.3936  0.7055
 4124TIP3    H133787   1.728   2.757   2.377  0.4259  1.3165  1.0901
 4124TIP3    H233788   1.640   2.872   2.423 -1.7097  0.2494 -0.2701
 4125TIP3   OH233789   3.238   0.130  16.205 -0.5403  0.4401  0.4279
 4125TIP3    H133790   3.224   0.036  16.199  1.2096  0.1892 -0.1046
 4125TIP3    H233791   3.265   0.145  16.295  0.8235  0.1651  0.0873
 4126TIP3   OH233792   5.349   5.104  10.498 -0.1568 -0.1195 -0.7728
 4126TIP3    H133793   5.299   5.144  10.568 -0.5038  0.1805 -1.1879
 4126TIP3    H233794   5.308   5.018  10.485  2.0687 -1.6181  1.7217
 4127TIP3   OH233795   5.764   2.724  16.290 -0.6184  0.0991 -0.0703
 4127TIP3    H133796   5.856   2.742  16.270 -0.6169  0.8589  0.5833
 4127TIP3    H233797   5.722   2.810  16.291 -1.1879 -0.1766  0.3537
 4128TIP3   OH233798   3.522   3.083  13.921  0.5877 -0.2006  0.0392
 4128TIP3    H133799   3.600   3.074  13.976  1.2522 -0.2490 -0.8960
 4128TIP3    H233800   3.474   3.156  13.959  0.5324 -0.8698  1.2827
 4129TIP3   OH233801   0.928   0.229   4.923 -0.1942 -0.0579  0.3993
 4129TIP3    H133802   0.887   0.256   5.006 -1.8792 -0.4941 -0.2835
 4129TIP3    H233803   0.870   0.263   4.855  0.8850 -0.1927 -0.6120
 4130TIP3   OH233804   0.078   4.612   4.090 -0.8837 -0.2571  0.2651
 4130TIP3    H133805   0.092   4.525   4.055 -1.0950  0.8168 -2.5949
 4130TIP3    H233806   0.160   4.635   4.133 -1.0888 -2.1302  1.6986
 4131TIP3   OH233807   4.549   4.401  11.700  0.1086 -0.7533 -0.6009
 4131TIP3    H133808   4.479   4.436  11.755 -0.2085 -0.2890 -1.2913
 4131TIP3    H233809   4.570   4.315  11.739  0.2860 -0.1933  0.5745
 4132TIP3   OH233810   3.405   4.480   6.005 -0.0752  0.4010 -0.5544
 4132TIP3    H133811   3.374   4.390   6.005  1.1308 -0.0320 -2.1841
 4132TIP3    H233812   3.335   4.529   5.962 -1.6345  0.6092  2.0998
 4133TIP3   OH233813   2.412   1.226  12.183  0.3672  0.1412 -0.3632
 4133TIP3    H133814   2.379   1.234  12.273 -0.9981 -0.5011 -0.7909
 4133TIP3    H233815   2.354   1.162  12.142 -0.0814  1.6798 -2.1881
 4134TIP3   OH233816   3.955   5.831  12.914  0.0289 -0.2058  0.2165
 4134TIP3    H133817   3.919   5.744  12.930 -2.1060  0.7150  0.4526
 4134TIP3    H233818   3.931   5.883  12.991  1.6251  0.5040  0.2592
 4135TIP3   OH233819   5.963   1.483   0.526  0.3380  0.4254 -0.0528
 4135TIP3    H133820   5.929   1.507   0.612  2.8892  1.8424  0.6316
 4135TIP3    H233821   5.983   1.389   0.533 -0.9753  0.1627  0.3345
 4136TIP3   OH233822   0.172   6.300   3.390  0.0888 -0.0650 -0.3073
 4136TIP3    H133823   0.227   6.329   3.318  1.0476  1.6708  1.0940
 4136TIP3    H233824   0.125   6.379   3.419 -0.9963 -0.9278  0.3598
 4137TIP3   OH233825   1.129   1.115  12.928 -0.3683  0.3236  0.5313
 4137TIP3    H133826   1.035   1.129  12.941 -0.4448  1.1309 -0.7978
 4137TIP3    H233827   1.171   1.175  12.989 -0.7195  1.2782 -0.1551
 4138TIP3   OH233828   6.460   6.464  14.689  0.1370 -1.0248 -0.2302
 4138TIP3    H133829   6.424   6.466  14.778  0.0336 -0.6887 -0.2808
 4138TIP3    H233830   6.398   6.411  14.640 -0.9966  0.6272 -0.6264
 4139TIP3   OH233831   5.998   2.535  14.776  0.0075 -0.3381  0.3803
 4139TIP3    H133832   6.074   2.573  14.732 -1.2349 -0.0497 -1.5834
 4139TIP3    H233833   6.000   2.443  14.752  0.5654 -0.6558  1.5799
 4140TIP3   OH233834   6.477   1.474   5.263  0.1468 -0.4583  0.0255
 4140TIP3    H133835   6.394   1.486   5.310  0.5633  0.7969  0.4627
 4140TIP3    H233836   6.499   1.382   5.277 -0.7084 -0.5728  0.6804
 4141TIP3   OH233837   0.554   3.900   0.470 -0.3681 -0.5332  0.3990
 4141TIP3    H133838   0.538   3.992   0.491 -0.7406 -0.2874 -0.8993
 4141TIP3    H233839   0.624   3.873   0.529 -0.5334  0.4696  1.0592
 4142TIP3   OH233840   1.911   0.819   4.663 -0.5941  0.6476 -0.4291
 4142TIP3    H133841   1.931   0.736   4.705 -2.8295  0.3393  0.0396
 4142TIP3    H233842   1.819   0.813   4.638 -0.1486  2.0453 -2.5528
 4143TIP3   OH233843   2.058   3.386  15.257 -0.0775  0.0864  0.0244
 4143TIP3    H133844   2.104   3.457  15.301 -0.0874 -0.3302  0.6996
 4143TIP3    H233845   2.126   3.343  15.204  0.2461 -0.3497  0.7967
 4144TIP3   OH233846   3.625   4.880  16.953  0.1646  0.4400  0.2354
 4144TIP3    H133847   3.681   4.958  16.961 -1.0800  1.4525 -0.7577
 4144TIP3    H233848   3.549   4.900  17.008 -1.5897  1.2455 -2.4235
 4145TIP3   OH233849   3.004   4.668   5.364 -0.0265  0.2325 -0.5232
 4145TIP3    H133850   3.078   4.617   5.333 -0.3055  0.2935 -1.2916
 4145TIP3    H233851   2.950   4.604   5.411 -0.5838 -0.2761 -1.8342
 4146TIP3   OH233852   0.207   4.060  12.271 -0.4462 -0.0261 -0.1882
 4146TIP3    H133853   0.157   3.992  12.316  1.1682 -0.4566  1.0015
 4146TIP3    H233854   0.292   4.021  12.255  0.3758  1.5819  0.1305
 4147TIP3   OH233855   2.814   1.692   6.194 -0.4566 -0.6294  0.0853
 4147TIP3    H133856   2.865   1.611   6.198 -0.4621 -0.6015  0.8930
 4147TIP3    H233857   2.877   1.761   6.175 -0.3506 -0.7309  0.0741
 4148TIP3   OH233858   0.371   3.534  11.802 -0.5842 -0.8925 -0.2207
 4148TIP3    H133859   0.447   3.565  11.754 -0.7390 -0.2812 -0.0712
 4148TIP3    H233860   0.381   3.438  11.804 -0.4969 -0.9124 -1.3256
 4149TIP3   OH233861   6.052   3.378   4.580 -0.2497 -0.4228 -0.3260
 4149TIP3    H133862   6.073   3.294   4.621  1.0830 -0.1312 -0.4015
 4149TIP3    H233863   6.070   3.443   4.648  2.1743  0.0810 -1.4175
 4150TIP3   OH233864   0.094   1.356   0.552 -0.6378 -0.1562  0.1329
 4150TIP3    H133865   0.038   1.433   0.555  1.5690  1.4556  1.2170
 4150TIP3    H233866   0.077   1.317   0.467 -2.9443  0.6085  0.2063
 4151TIP3   OH233867   0.024   1.707  15.818  0.5616  0.0792 -0.6081
 4151TIP3    H133868   0.037   1.760  15.739 -1.3668  0.7236 -0.5133
 4151TIP3    H233869   0.029   1.771  15.889 -1.7878  0.1694 -0.4951
 4152TIP3   OH233870   1.284   3.155   5.668 -0.5241 -0.0542  0.5998
 4152TIP3    H133871   1.249   3.091   5.607 -0.9694  1.1476 -0.4283
 4152TIP3    H233872   1.216   3.223   5.673  1.4247  2.1184 -1.0995
 4153TIP3   OH233873   1.118   1.921  14.921 -0.7699 -0.5102  0.1803
 4153TIP3    H133874   1.141   1.854  14.857  2.3530  0.7936 -0.1519
 4153TIP3    H233875   1.134   2.004  14.875 -1.0719  0.4379  1.7566
 4154TIP3   OH233876   4.385   5.514   0.618  0.4304 -0.4781 -0.0239
 4154TIP3    H133877   4.369   5.549   0.705  1.9210  1.0113 -0.3103
 4154TIP3    H233878   4.457   5.452   0.630  0.4425 -0.4898 -0.1523
 4155TIP3   OH233879   2.503   1.600  15.203  0.1414 -0.0438  0.5811
 4155TIP3    H133880   2.508   1.624  15.111 -0.1972 -0.3336  0.4837
 4155TIP3    H233881   2.413   1.568  15.215 -0.0008  0.5637  1.1525
 4156TIP3   OH233882   3.662   2.049   1.900 -0.2592 -0.7074 -0.1124
 4156TIP3    H133883   3.690   2.121   1.958 -0.9738  0.9951 -1.8183
 4156TIP3    H233884   3.739   1.993   1.893  0.3764 -0.0082  1.1300
 4157TIP3   OH233885   0.171   0.706  16.065 -0.1321  0.3486  0.8071
 4157TIP3    H133886   0.264   0.718  16.043 -0.4244  2.4034  0.5778
 4157TIP3    H233887   0.133   0.666  15.987  0.8903 -2.2338  1.5741
 4158TIP3   OH233888   3.487   3.738  11.359  0.2505  0.4186 -0.1097
 4158TIP3    H133889   3.482   3.672  11.291  0.3956 -1.2783  1.4880
 4158TIP3    H233890   3.449   3.696  11.436  2.5151  1.3266  1.5707
 4159TIP3   OH233891   0.017   5.090   4.580 -0.1168 -0.0190 -0.0511
 4159TIP3    H133892   0.059   5.171   4.553  0.8549 -0.5724 -0.2309
 4159TIP3    H233893   0.084   5.044   4.630 -0.5059 -0.9080 -0.3331
 4160TIP3   OH233894   4.083   4.605   5.445 -0.4119 -0.3520 -0.1026
 4160TIP3    H133895   4.020   4.592   5.516 -2.5361 -0.7114 -1.9683
 4160TIP3    H233896   4.141   4.674   5.476 -0.5653 -1.3137  2.4333
 4161TIP3   OH233897   5.430   2.287  12.146  0.4492 -0.3632 -0.1144
 4161TIP3    H133898   5.426   2.242  12.061  1.6511 -0.8686  0.1008
 4161TIP3    H233899   5.355   2.252  12.195  0.3724 -0.8482 -0.5739
 4162TIP3   OH233900   4.268   3.452  14.074 -0.3322  0.1739 -0.1349
 4162TIP3    H133901   4.266   3.358  14.056  0.4079  0.0570  0.3787
 4162TIP3    H233902   4.319   3.489  14.002 -0.2201  0.1223 -0.0823
 4163TIP3   OH233903   0.693   0.573   1.427  0.8510 -1.0648  0.5808
 4163TIP3    H133904   0.757   0.511   1.393  0.3861 -1.0157 -0.3945
 4163TIP3    H233905   0.733   0.659   1.413 -0.3229 -0.8913 -2.0472
 4164TIP3   OH233906   3.959   6.098  13.479 -0.3896 -0.1818 -0.3256
 4164TIP3    H133907   3.980   6.040  13.553  0.2295 -3.6699 -3.1377
 4164TIP3    H233908   4.031   6.162  13.477 -0.0109 -0.5184  1.5648
 4165TIP3   OH233909   4.441   1.479  15.593 -0.7321  0.6993 -0.4383
 4165TIP3    H133910   4.372   1.441  15.647  1.8718 -2.1657  1.0191
 4165TIP3    H233911   4.456   1.414  15.525  2.5723 -0.1660  1.0362
 4166TIP3   OH233912   5.713   2.889  12.461 -0.0480  0.0447  0.1136
 4166TIP3    H133913   5.776   2.821  12.440  0.8043  0.2899  1.7647
 4166TIP3    H233914   5.627   2.847  12.452  0.4764 -1.4055  1.5699
 4167TIP3   OH233915   4.359   1.999  16.909 -0.1134  0.3850  0.4293
 4167TIP3    H133916   4.357   2.021  16.816 -2.2885  1.9684  0.8111
 4167TIP3    H233917   4.287   1.937  16.921  0.7706 -0.5719  0.9008
 4168TIP3   OH233918   1.381   2.422  16.513  0.8432 -0.4197 -0.1588
 4168TIP3    H133919   1.471   2.389  16.516  0.7272 -0.7014  0.3196
 4168TIP3    H233920   1.359   2.423  16.419  0.9691 -1.3820 -0.2079
 4169TIP3   OH233921   5.813   2.588   6.514  0.0632 -0.1839  0.3680
 4169TIP3    H133922   5.758   2.635   6.452  1.8573 -1.3101 -2.1200
 4169TIP3    H233923   5.792   2.495   6.501  0.6905 -0.4622  1.2172
 4170TIP3   OH233924   4.001   2.534   4.061 -0.4062  0.5247  0.3964
 4170TIP3    H133925   4.003   2.555   3.967  0.4605 -0.3750  0.1941
 4170TIP3    H233926   4.093   2.529   4.086 -0.5937 -0.9418  0.8853
 4171TIP3   OH233927   0.664   6.388  13.094  0.3470 -0.4633  0.0568
 4171TIP3    H133928   0.572   6.381  13.069  0.8300 -1.2121 -1.5220
 4171TIP3    H233929   0.687   6.479  13.075  0.4515 -0.7793 -1.3293
 4172TIP3   OH233930   6.408   4.095   2.713  0.5214 -0.3084  0.1461
 4172TIP3    H133931   6.329   4.146   2.732 -0.5504 -1.1849 -1.7301
 4172TIP3    H233932   6.443   4.135   2.633  0.4458 -1.5850 -0.5530
 4173TIP3   OH233933   6.602   0.918   2.365 -0.5653  0.2914 -0.2815
 4173TIP3    H133934   6.655   0.856   2.315 -1.2791  0.3893 -1.1745
 4173TIP3    H233935   6.587   0.991   2.305 -1.0798  0.6032  0.2224
 4174TIP3   OH233936   3.043   5.913  13.890 -0.0976 -0.4081 -0.1080
 4174TIP3    H133937   3.022   5.902  13.983  0.0217  0.7857  0.0768
 4174TIP3    H233938   3.124   5.864  13.877  0.6717  0.6106  0.7641
 4175TIP3   OH233939   0.701   3.381  11.791 -0.0962  0.1847  0.2882
 4175TIP3    H133940   0.679   3.458  11.845 -1.9380  1.0877 -1.6800
 4175TIP3    H233941   0.679   3.408  11.702  3.0169 -1.2360 -0.9798
 4176TIP3   OH233942   0.118   0.960  16.724  0.1093 -0.2488  0.3246
 4176TIP3    H133943   0.099   0.897  16.793 -0.5275 -0.1221  0.2605
 4176TIP3    H233944   0.033   0.984  16.689  0.4204 -0.1902 -0.3963
 4177TIP3   OH233945   4.796   5.238   6.299 -0.0950  0.2649  0.5947
 4177TIP3    H133946   4.720   5.258   6.245 -1.3440 -1.3807  1.6696
 4177TIP3    H233947   4.856   5.311   6.285 -0.8415  0.4153 -2.1329
 4178TIP3   OH233948   1.630   0.035  13.574 -0.0685  0.0847 -0.0662
 4178TIP3    H133949   1.624   0.108  13.512 -0.4605  1.0146  1.0503
 4178TIP3    H233950   1.723   0.029  13.596 -0.1939  0.9993  0.7255
 4179TIP3   OH233951   4.864   6.717   1.927 -0.3860  0.0044 -0.5642
 4179TIP3    H133952   4.947   6.683   1.894  0.6336 -0.9479  2.8488
 4179TIP3    H233953   4.816   6.639   1.956 -1.8650  0.6939 -1.0842
 4180TIP3   OH233954   0.113   4.385   5.095  0.6829 -0.2502  0.1909
 4180TIP3    H133955   0.105   4.290   5.086  0.5663 -0.0957 -1.5052
 4180TIP3    H233956   0.168   4.398   5.172 -0.2174 -1.6662  1.0939
 4181TIP3   OH233957   2.296   1.125  16.870  0.2967  0.2880  0.0323
 4181TIP3    H133958   2.244   1.047  16.885  1.1337 -0.0661  1.1780
 4181TIP3    H233959   2.234   1.190  16.837 -0.9235 -0.0643  1.5786
 4182TIP3   OH233960   4.612   0.108   2.898 -0.2213  0.0857  0.3724
 4182TIP3    H133961   4.643   0.172   2.962  1.1759 -1.2012  1.0235
 4182TIP3    H233962   4.691   0.058   2.875 -1.1843 -1.0115 -0.5506
 4183TIP3   OH233963   4.077   1.198  16.485 -0.9534  0.3375  0.1251
 4183TIP3    H133964   4.082   1.134  16.556 -0.4846  1.5400  1.1934
 4183TIP3    H233965   4.123   1.156  16.412 -1.5788 -0.9703  0.4818
 4184TIP3   OH233966   4.730   1.918   4.044 -0.6174 -0.4909 -0.2600
 4184TIP3    H133967   4.806   1.976   4.052 -0.4503 -0.8488  0.8157
 4184TIP3    H233968   4.764   1.841   3.998 -0.6186 -0.1423 -0.8531
 4185TIP3   OH233969   4.742   2.963   0.006  0.3122  0.1509 -0.2096
 4185TIP3    H133970   4.679   2.893   0.023  0.6853  0.1433  1.1929
 4185TIP3    H233971   4.752   3.008   0.090  2.5745 -0.1736 -0.2698
 4186TIP3   OH233972   1.284   4.337  11.102 -0.4735  0.6669  0.6703
 4186TIP3    H133973   1.298   4.282  11.025 -0.3460  0.8018  0.5981
 4186TIP3    H233974   1.252   4.420  11.067  0.6795  1.1260  0.6725
 4187TIP3   OH233975   5.272   4.745   3.077 -0.3327 -0.2037 -0.2972
 4187TIP3    H133976   5.212   4.707   3.013  0.5876  1.6085 -2.2629
 4187TIP3    H233977   5.359   4.724   3.044  0.1624  1.6773 -0.1987
 4188TIP3   OH233978   4.414   3.265  16.428 -0.1910 -0.4401  0.1852
 4188TIP3    H133979   4.414   3.180  16.384  2.2164  0.2634 -1.3001
 4188TIP3    H233980   4.436   3.245  16.519  0.0702 -1.4412 -0.0869
 4189TIP3   OH233981   0.694   5.577   4.320  0.1576 -0.1987 -0.7141
 4189TIP3    H133982   0.700   5.672   4.313 -0.2907 -0.2833 -2.3834
 4189TIP3    H233983   0.600   5.559   4.328  0.3120 -0.4418  0.6334
 4190TIP3   OH233984   2.672   2.852  12.167 -0.0655 -0.0396  0.3505
 4190TIP3    H133985   2.699   2.784  12.105  0.0542 -0.6922  1.1135
 4190TIP3    H233986   2.733   2.924  12.151  2.1405 -1.4889  2.0212
 4191TIP3   OH233987   2.763   1.829  15.757  0.0623  0.0324  0.2337
 4191TIP3    H133988   2.793   1.916  15.785 -1.7971  0.7939 -0.0474
 4191TIP3    H233989   2.792   1.822  15.666 -0.1433  0.5347  0.1271
 4192TIP3   OH233990   3.214   4.656   4.850  0.3464 -0.2425  0.9813
 4192TIP3    H133991   3.162   4.614   4.782 -0.1786  1.6716  0.1534
 4192TIP3    H233992   3.163   4.644   4.930 -0.0657 -0.6699  0.6573
 4193TIP3   OH233993   3.859   2.570   2.346  0.1747  0.1229  0.8803
 4193TIP3    H133994   3.829   2.497   2.400  0.0434 -0.7326 -0.3239
 4193TIP3    H233995   3.802   2.567   2.269  0.5309  1.1597  0.5722
 4194TIP3   OH233996   2.407   4.883   5.381  0.5200 -0.2789  0.1019
 4194TIP3    H133997   2.414   4.819   5.452  0.2904 -0.4136  0.0030
 4194TIP3    H233998   2.448   4.840   5.306  0.5744 -0.2181  0.0962
 4195TIP3   OH233999   3.296   3.369   5.312  0.4887  0.7250 -0.0659
 4195TIP3    H134000   3.382   3.333   5.290  0.2878  0.8737 -1.1177
 4195TIP3    H234001   3.247   3.366   5.231 -0.8521 -0.2780  0.7664
 4196TIP3   OH234002   0.830   5.372   0.900  0.3541  0.0011  0.2436
 4196TIP3    H134003   0.785   5.290   0.882  0.8174 -0.4003  0.9143
 4196TIP3    H234004   0.759   5.437   0.909  0.0054 -0.2659 -0.5448
 4197TIP3   OH234005   6.589   3.691  15.931  0.3413 -0.6361 -0.2717
 4197TIP3    H134006   6.613   3.731  16.015  0.6158 -0.4853 -0.4216
 4197TIP3    H234007   6.541   3.760  15.886 -0.0545 -0.8149 -0.1224
 4198TIP3   OH234008   4.756   6.113  10.454 -0.7293 -0.1813 -1.1511
 4198TIP3    H134009   4.721   6.060  10.383  1.3284 -1.8124 -0.9619
 4198TIP3    H234010   4.839   6.072  10.478 -1.1077  0.6346  1.8417
 4199TIP3   OH234011   2.640   4.704  13.451 -0.2525  0.1318 -0.7962
 4199TIP3    H134012   2.582   4.722  13.377 -0.3179  0.4088 -0.6800
 4199TIP3    H234013   2.626   4.778  13.510 -0.7253 -0.4368 -0.1856
 4200TIP3   OH234014   0.894   1.503  11.452  0.3748  0.0695 -0.9756
 4200TIP3    H134015   0.842   1.452  11.389 -0.3122 -0.2390 -0.1707
 4200TIP3    H234016   0.985   1.487  11.426  0.1906 -1.8022 -0.5770
 4201TIP3   OH234017   2.507   4.447   2.487  0.4743 -0.6646  0.1965
 4201TIP3    H134018   2.482   4.485   2.571 -0.3694 -0.0413 -0.3216
 4201TIP3    H234019   2.575   4.383   2.508  0.1534 -0.6298  1.3690
 4202TIP3   OH234020   5.704   3.150  13.645  0.2993  0.6116  1.0349
 4202TIP3    H134021   5.688   3.134  13.738  0.7644 -0.3703  0.9445
 4202TIP3    H234022   5.707   3.246  13.638 -2.3391  0.7753  1.5925
 4203TIP3   OH234023   4.212   0.791  13.774  0.3449 -0.0416 -0.5933
 4203TIP3    H134024   4.122   0.775  13.802  0.9367 -0.8895  0.9111
 4203TIP3    H234025   4.211   0.773  13.680 -1.1939  0.5823 -0.7095
 4204TIP3   OH234026   2.025   6.647  14.063 -0.1418  0.2606 -0.4221
 4204TIP3    H134027   2.009   6.714  13.997  2.1317  1.4811  0.2166
 4204TIP3    H234028   2.120   6.637  14.065 -0.3542 -1.8799  0.5958
 4205TIP3   OH234029   5.192   3.399   0.259 -0.6668  0.1018  0.3875
 4205TIP3    H134030   5.109   3.445   0.241  0.1425  0.7536 -1.8365
 4205TIP3    H234031   5.254   3.470   0.278 -0.5361 -0.3723  1.7781
 4206TIP3   OH234032   4.941   5.415  14.879  0.2256 -0.6494 -0.8344
 4206TIP3    H134033   4.926   5.352  14.809 -1.5167  1.0296 -2.0235
 4206TIP3    H234034   5.033   5.440  14.869  0.4366 -1.6619 -1.4844
 4207TIP3   OH234035   5.766   2.489  12.509 -0.0789 -0.2931  0.5046
 4207TIP3    H134036   5.711   2.457  12.581  2.7570 -1.9408  2.0580
 4207TIP3    H234037   5.757   2.422  12.441 -0.7628 -0.0520  0.3554
 4208TIP3   OH234038   2.204   0.557   0.827 -0.0243  0.0321 -0.2988
 4208TIP3    H134039   2.217   0.647   0.857 -0.0424 -0.3092  0.7272
 4208TIP3    H234040   2.279   0.540   0.769  1.0286  0.0579  1.0333
 4209TIP3   OH234041   3.144   6.773  14.079 -0.0647 -0.5147 -0.0778
 4209TIP3    H134042   3.143   6.730  13.994 -0.3867 -0.3160 -0.1748
 4209TIP3    H234043   3.188   6.857  14.063  0.2857 -0.6722  0.0474
 4210TIP3   OH234044   3.346   4.376  16.099  0.1317  0.1911 -0.0434
 4210TIP3    H134045   3.287   4.301  16.107  0.1149  0.1266 -0.7158
 4210TIP3    H234046   3.289   4.452  16.089  0.1531  0.1950 -0.1436
 4211TIP3   OH234047   0.608   4.823  14.809  0.2305 -0.5649  0.1667
 4211TIP3    H134048   0.649   4.869  14.881 -0.2780 -0.1466  0.1978
 4211TIP3    H234049   0.515   4.846  14.816 -0.0330 -1.6209  0.1997
 4212TIP3   OH234050   3.404   1.351   0.236  0.2303  0.0910 -0.5409
 4212TIP3    H134051   3.360   1.357   0.321  1.1417  0.0251 -0.0634
 4212TIP3    H234052   3.340   1.387   0.174  0.2179  1.7482  0.4010
 4213TIP3   OH234053   1.951   4.118  16.678 -0.3997  0.9208  0.7909
 4213TIP3    H134054   2.016   4.101  16.746 -0.4143 -0.0006  0.5881
 4213TIP3    H234055   1.990   4.185  16.623  0.5662  0.0491  0.4163
 4214TIP3   OH234056   3.394   4.076   3.563 -0.5412 -0.0675  0.6234
 4214TIP3    H134057   3.393   3.986   3.531 -0.1269  0.1644 -0.0425
 4214TIP3    H234058   3.455   4.122   3.505  0.7148  0.2088  2.1193
 4215TIP3   OH234059   5.733   4.413  14.626  0.3145  0.2214  0.3639
 4215TIP3    H134060   5.821   4.442  14.650  0.2428 -0.6132  1.6855
 4215TIP3    H234061   5.701   4.366  14.703 -1.0486 -0.0289 -0.3333
 4216TIP3   OH234062   3.669   0.822   3.380 -0.6549  0.2976  0.8949
 4216TIP3    H134063   3.699   0.751   3.437  0.4767  1.3974  1.7197
 4216TIP3    H234064   3.624   0.883   3.439 -3.1980 -0.5865 -0.1002
 4217TIP3   OH234065   5.978   3.828   0.569  0.3164  0.3130  0.0274
 4217TIP3    H134066   5.954   3.914   0.535  0.1217 -1.0238 -3.4246
 4217TIP3    H234067   5.895   3.779   0.572  0.7826 -0.5317 -0.4775
 4218TIP3   OH234068   4.548   2.303   3.853 -0.1846  0.5831  0.2867
 4218TIP3    H134069   4.474   2.286   3.912 -0.0580  0.0660  0.3019
 4218TIP3    H234070   4.519   2.267   3.768 -0.0470  0.6007  0.2326
 4219TIP3   OH234071   0.276   5.882  11.800  0.0593 -0.1216  0.4801
 4219TIP3    H134072   0.265   5.914  11.710 -0.9293 -1.8053 -0.0313
 4219TIP3    H234073   0.260   5.958  11.855  2.5976  1.4107 -0.7990
 4220TIP3   OH234074   6.253   6.562   1.140  0.0490  0.0584  0.2357
 4220TIP3    H134075   6.180   6.564   1.201  0.2312  0.1467  0.4515
 4220TIP3    H234076   6.230   6.494   1.076  0.0262 -0.2891  0.6136
 4221TIP3   OH234077   2.214   5.340   2.862 -0.4089 -0.3770 -0.0292
 4221TIP3    H134078   2.212   5.251   2.828  1.5319 -0.9105  1.1784
 4221TIP3    H234079   2.206   5.395   2.784 -0.1940 -1.5904 -0.9218
 4222TIP3   OH234080   5.270   0.288   5.876 -0.1258 -0.4708 -0.1255
 4222TIP3    H134081   5.251   0.199   5.905 -1.8658 -0.7808 -2.1033
 4222TIP3    H234082   5.219   0.345   5.934 -1.8769 -0.9718 -1.1377
 4223TIP3   OH234083   4.269   4.904  15.849  0.2880  0.3038 -0.4772
 4223TIP3    H134084   4.354   4.861  15.863  0.8858  1.3681 -0.8033
 4223TIP3    H234085   4.205   4.836  15.870  1.2129 -0.4463 -0.0004
 4224TIP3   OH234086   6.354   6.007  11.955 -0.5133 -0.1128  0.3779
 4224TIP3    H134087   6.286   5.942  11.970 -0.6764 -0.3276 -1.1936
 4224TIP3    H234088   6.429   5.957  11.924 -0.9069  0.5009 -1.6503
 4225TIP3   OH234089   5.691   2.786   4.933  0.2440 -0.4473  0.5397
 4225TIP3    H134090   5.620   2.737   4.975  1.1355 -0.2939  2.2878
 4225TIP3    H234091   5.646   2.850   4.877 -0.9895 -0.6558  1.2599
 4226TIP3   OH234092   6.675   0.081   4.636  0.0006 -0.2781 -0.8140
 4226TIP3    H134093   6.690   0.172   4.661 -3.3021  0.4664 -1.2825
 4226TIP3    H234094   6.720   0.071   4.552 -1.4837  1.5989 -1.8637
 4227TIP3   OH234095   2.406   5.029   4.685 -0.2511 -0.2265 -0.1079
 4227TIP3    H134096   2.366   5.114   4.704  0.1464 -0.0703  0.0195
 4227TIP3    H234097   2.331   4.972   4.663 -0.4099  0.5138 -1.5921
 4228TIP3   OH234098   5.696   2.889  12.820  0.7399 -0.3017  0.8627
 4228TIP3    H134099   5.658   2.819  12.768 -2.4339  1.0227  1.2965
 4228TIP3    H234100   5.735   2.845  12.896 -1.2511 -1.6143  1.1555
 4229TIP3   OH234101   4.172   2.772   3.062 -0.1910  0.4196 -0.2486
 4229TIP3    H134102   4.218   2.706   3.010  0.7815  1.0203 -0.1756
 4229TIP3    H234103   4.168   2.849   3.005 -3.0470 -0.2924 -1.0508
 4230TIP3   OH234104   6.303   1.544  11.180 -0.1822  0.1941  0.3363
 4230TIP3    H134105   6.269   1.617  11.233 -3.6892 -0.2230 -1.2129
 4230TIP3    H234106   6.343   1.586  11.104 -0.5132  0.5627  0.3632
 4231TIP3   OH234107   1.652   0.983  15.818  0.5029  0.1273 -0.2471
 4231TIP3    H134108   1.711   0.946  15.883  1.3171  2.7865  0.5850
 4231TIP3    H234109   1.697   1.062  15.786 -1.7142  1.1343 -1.0198
 4232TIP3   OH234110   0.207   6.703  11.931 -0.7179  0.2035  0.4164
 4232TIP3    H134111   0.276   6.733  11.991 -0.1331 -0.5895  0.1573
 4232TIP3    H234112   0.173   6.624  11.972  0.5396 -1.0560 -0.8799
 4233TIP3   OH234113   5.479   0.984  10.853  0.5634  0.1197  0.2733
 4233TIP3    H134114   5.553   0.965  10.796 -0.6812 -1.3237 -0.9026
 4233TIP3    H234115   5.451   0.899  10.888 -1.5861  0.4019 -0.6460
 4234TIP3   OH234116   5.578   0.973   1.139 -0.4471  0.1996 -0.2591
 4234TIP3    H134117   5.519   1.012   1.203  1.9133  0.3741  1.8992
 4234TIP3    H234118   5.572   0.879   1.154  0.1007  0.2401  0.2667
 4235TIP3   OH234119   0.657   5.947   4.823 -0.4170 -0.6088 -0.1617
 4235TIP3    H134120   0.739   5.943   4.773  0.5088  0.2472  1.2610
 4235TIP3    H234121   0.622   5.859   4.818  1.3761 -1.3775  0.5079
 4236TIP3   OH234122   5.147   6.035   3.675 -0.7502  0.2351  0.0775
 4236TIP3    H134123   5.095   6.072   3.603  0.7987 -0.8702 -1.6807
 4236TIP3    H234124   5.208   5.975   3.631  1.4833  0.9103  2.1317
 4237TIP3   OH234125   0.744   5.228   5.133  0.3172 -0.0853 -0.1396
 4237TIP3    H134126   0.695   5.172   5.194 -1.5526  2.2181  0.5379
 4237TIP3    H234127   0.836   5.207   5.149 -0.3115 -2.0630  0.9608
 4238TIP3   OH234128   2.488   4.696   3.960 -0.7640 -0.1079  0.3502
 4238TIP3    H134129   2.480   4.601   3.959  2.3103 -0.4330  1.1243
 4238TIP3    H234130   2.568   4.713   4.010 -3.0581  3.0339  3.2454
 4239TIP3   OH234131   0.509   2.384   1.319 -0.2244 -0.0837 -0.1222
 4239TIP3    H134132   0.596   2.414   1.292 -0.9472  1.9193 -0.3648
 4239TIP3    H234133   0.526   2.308   1.373  1.9223  2.0301  2.3402
 4240TIP3   OH234134   4.960   1.345  14.863  0.0660  0.4002 -0.0405
 4240TIP3    H134135   5.032   1.307  14.813 -0.1368  0.6366 -0.5178
 4240TIP3    H234136   4.962   1.299  14.947  0.0243 -0.4364 -0.4923
 4241TIP3   OH234137   1.210   6.477   1.047 -0.3488 -0.4851 -0.4723
 4241TIP3    H134138   1.275   6.525   1.099 -0.2339 -0.3139 -0.7702
 4241TIP3    H234139   1.139   6.539   1.034  0.0989 -0.1687 -1.4329
 4242TIP3   OH234140   5.355   5.610   5.846 -0.0060  0.0395 -0.2033
 4242TIP3    H134141   5.269   5.641   5.817  0.2223  0.5001 -0.4040
 4242TIP3    H234142   5.393   5.568   5.769  0.5298  1.1080 -0.5288
 4243TIP3   OH234143   0.919   5.411   4.771 -0.2102  0.2893 -0.1909
 4243TIP3    H134144   0.845   5.394   4.830 -0.1922  0.2242 -0.1859
 4243TIP3    H234145   0.995   5.418   4.829 -0.5763  2.7846  0.0281
 4244TIP3   OH234146   3.372   3.071   1.369  0.5980  0.3830 -0.1934
 4244TIP3    H134147   3.328   2.998   1.325  0.2925  0.2950  0.2601
 4244TIP3    H234148   3.437   3.101   1.305 -0.2625  0.6627 -0.9500
 4245TIP3   OH234149   0.836   3.708  16.986  0.8571 -0.3102 -0.2221
 4245TIP3    H134150   0.869   3.718  16.897  2.2231 -1.8474  0.0786
 4245TIP3    H234151   0.915   3.697  17.039  0.0429  0.5012  1.1617
 4246TIP3   OH234152   0.309   3.278  15.514 -0.0838 -0.0246  0.5105
 4246TIP3    H134153   0.351   3.196  15.541  0.1887  0.3175  1.1356
 4246TIP3    H234154   0.368   3.313  15.446 -0.0999 -0.2485  0.3798
 4247TIP3   OH234155   5.942   2.039   6.411  0.1823  0.7296  0.4779
 4247TIP3    H134156   6.037   2.040   6.419  0.1105 -1.6651  2.5211
 4247TIP3    H234157   5.923   1.969   6.349 -0.2878 -0.3363  1.7895
 4248TIP3   OH234158   5.284   2.838  12.242 -0.8360 -0.0040  0.0716
 4248TIP3    H134159   5.340   2.868  12.171  0.8893  1.2098  1.8837
 4248TIP3    H234160   5.206   2.894  12.237  0.9876  2.7950  1.4906
 4249TIP3   OH234161   1.237   0.837  11.274 -0.1030 -0.6483 -0.0662
 4249TIP3    H134162   1.263   0.746  11.262  0.8311 -0.3838 -0.0823
 4249TIP3    H234163   1.174   0.835  11.346  1.1320 -1.1181  1.0275
 4250TIP3   OH234164   6.450   4.794  10.864  0.4328 -0.2965 -0.0138
 4250TIP3    H134165   6.490   4.707  10.866 -0.0153 -0.5074 -0.3938
 4250TIP3    H234166   6.377   4.786  10.803  0.6729  0.4672 -0.4091
 4251TIP3   OH234167   4.659   4.393   5.241 -0.6660 -0.1279 -0.5230
 4251TIP3    H134168   4.685   4.473   5.287 -0.2916 -0.1605 -0.6732
 4251TIP3    H234169   4.563   4.396   5.240 -0.7738 -1.3763  2.4731
 4252TIP3   OH234170   3.788   0.419   4.822 -0.0367  0.9698 -0.0173
 4252TIP3    H134171   3.745   0.448   4.903  0.0627 -0.8078  0.6906
 4252TIP3    H234172   3.859   0.482   4.809 -1.8000  2.9556 -0.2931
 4253TIP3   OH234173   1.263   0.760   1.904  0.4135  0.4626  0.1097
 4253TIP3    H134174   1.337   0.772   1.845  1.3166 -3.3511  0.3306
 4253TIP3    H234175   1.302   0.761   1.992 -0.1443  0.7247  0.3580
 4254TIP3   OH234176   2.996   6.003   4.616 -0.5713 -0.5911  0.2508
 4254TIP3    H134177   2.900   5.997   4.622 -0.8652  2.6505 -0.3640
 4254TIP3    H234178   3.011   6.063   4.543  1.9445 -0.6751  0.6809
 4255TIP3   OH234179   5.647   5.767  12.293 -0.2515 -0.1635 -0.5187
 4255TIP3    H134180   5.660   5.717  12.373 -1.3657  1.0697  0.4592
 4255TIP3    H234181   5.558   5.746  12.265  0.2231 -0.7911 -1.5876
 4256TIP3   OH234182   0.596   5.564  16.638 -0.0925 -0.3194 -0.3247
 4256TIP3    H134183   0.515   5.596  16.598 -0.7553 -1.2476  0.2880
 4256TIP3    H234184   0.568   5.520  16.718  0.9515 -1.3353 -0.5180
 4257TIP3   OH234185   0.124   1.408   4.999  0.8086 -0.0812 -0.3686
 4257TIP3    H134186   0.129   1.336   4.935  1.2398 -1.0260  0.7059
 4257TIP3    H234187   0.060   1.378   5.064 -0.4795  1.3634 -0.9311
 4258TIP3   OH234188   4.909   2.052   2.825 -0.0836  0.1372  0.0801
 4258TIP3    H134189   4.968   2.122   2.798  0.5317  0.4118  2.0716
 4258TIP3    H234190   4.903   1.995   2.749 -0.2274  2.1050 -1.4085
 4259TIP3   OH234191   0.317   5.304  15.503  0.6322  0.0816  0.3173
 4259TIP3    H134192   0.395   5.257  15.532 -1.0239 -2.3755  0.9024
 4259TIP3    H234193   0.251   5.236  15.490 -1.6053  2.1714  0.4175
 4260TIP3   OH234194   4.930   2.574   0.292 -0.1452  0.0051  0.5790
 4260TIP3    H134195   4.909   2.493   0.246 -1.3874  0.7660 -0.2174
 4260TIP3    H234196   5.005   2.552   0.347  0.7172 -1.1667 -1.0628
 4261TIP3   OH234197   5.292   5.257   3.222 -0.7064  0.2750 -0.0534
 4261TIP3    H134198   5.275   5.294   3.309  0.6324 -0.3240  0.4726
 4261TIP3    H234199   5.219   5.288   3.169 -1.3584  0.9419  1.1973
 4262TIP3   OH234200   4.912   4.813  11.638  0.3397  0.5882  0.4364
 4262TIP3    H134201   4.956   4.842  11.559  1.0282 -0.4383  0.4264
 4262TIP3    H234202   4.819   4.829  11.622  0.2299 -1.7228 -1.5138
 4263TIP3   OH234203   0.741   3.227  16.741 -0.1114 -0.5145  0.0014
 4263TIP3    H134204   0.708   3.192  16.659 -1.8685  0.4141  0.2864
 4263TIP3    H234205   0.821   3.274  16.718 -1.0345  0.4348 -1.3133
 4264TIP3   OH234206   4.140   3.492  13.185 -0.6226 -0.0401 -0.9008
 4264TIP3    H134207   4.164   3.455  13.100  0.0501  2.6131 -1.9085
 4264TIP3    H234208   4.095   3.574  13.164  0.5467  1.2300  1.2938
 4265TIP3   OH234209   0.271   2.566  15.375  0.0434 -0.2838 -0.3484
 4265TIP3    H134210   0.185   2.606  15.359 -0.1757 -0.2579  0.8402
 4265TIP3    H234211   0.265   2.531  15.464  0.6863 -1.8002 -0.8793
 4266TIP3   OH234212   1.208   3.202  13.864  0.3397  0.1570 -0.3316
 4266TIP3    H134213   1.226   3.179  13.955  1.7763  0.9262 -0.4134
 4266TIP3    H234214   1.245   3.290  13.854  1.1679 -0.3684 -1.9649
 4267TIP3   OH234215   5.416   1.518   5.585 -0.4197 -0.2472 -0.4399
 4267TIP3    H134216   5.507   1.544   5.601  0.3011 -2.1848 -1.3442
 4267TIP3    H234217   5.365   1.569   5.649  1.4689 -0.5836  1.3808
 4268TIP3   OH234218   4.997   1.824  13.507  0.4744  0.0357  0.0849
 4268TIP3    H134219   5.027   1.810  13.597 -0.5202  0.8034  0.5557
 4268TIP3    H234220   4.947   1.905  13.512  0.9574  0.4304 -1.3021
 4269TIP3   OH234221   2.700   2.257   3.912 -0.2729  0.1507 -0.4627
 4269TIP3    H134222   2.747   2.221   3.837 -2.2114 -2.1747 -0.6501
 4269TIP3    H234223   2.711   2.190   3.981  0.6143  1.7671  0.9993
 4270TIP3   OH234224   0.634   3.391   4.184 -0.3450 -0.2101  1.2636
 4270TIP3    H134225   0.575   3.419   4.114  0.1365 -1.1016  0.4960
 4270TIP3    H234226   0.683   3.470   4.206  0.6595 -0.2943 -0.5468
 4271TIP3   OH234227   0.109   1.670  15.043 -0.0045 -0.2736  0.4160
 4271TIP3    H134228   0.046   1.741  15.047  1.2868  0.9352 -0.4130
 4271TIP3    H234229   0.181   1.697  15.099  0.4181 -1.0075  0.2431
 4272TIP3   OH234230   5.624   0.129   5.850 -0.2072  0.6667 -0.5244
 4272TIP3    H134231   5.540   0.093   5.821  0.4350 -0.7201 -0.6719
 4272TIP3    H234232   5.647   0.078   5.928  1.1970  0.0456 -1.3310
 4273TIP3   OH234233   0.086   6.586   0.628  0.1418  0.4327 -0.5172
 4273TIP3    H134234   0.068   6.678   0.648  1.8253  0.5455  0.6212
 4273TIP3    H234235   0.047   6.572   0.542 -0.7883  2.0039 -0.3795
 4274TIP3   OH234236   2.151   5.244  14.861 -0.0616  0.6461 -0.2765
 4274TIP3    H134237   2.214   5.211  14.797  1.0473 -1.3867  1.7736
 4274TIP3    H234238   2.204   5.279  14.932 -1.2341 -0.2358  1.0636
 4275TIP3   OH234239   0.626   2.911  10.853  0.2581 -0.5707  0.4985
 4275TIP3    H134240   0.538   2.901  10.818  1.2965 -0.1382 -2.3462
 4275TIP3    H234241   0.670   2.829  10.831  1.2078  0.0823 -0.0372
 4276TIP3   OH234242   3.740   5.000  13.086  0.4664  0.0442 -0.7014
 4276TIP3    H134243   3.715   5.090  13.066  0.8060  0.1443 -0.6732
 4276TIP3    H234244   3.696   4.948  13.019  2.3532  0.4612 -2.3088
 4277TIP3   OH234245   6.585   4.590   4.298  0.3092 -0.0708 -0.2349
 4277TIP3    H134246   6.551   4.668   4.255  0.8734 -0.4478 -1.4018
 4277TIP3    H234247   6.628   4.622   4.377 -2.2769  0.4735  1.0262
 4278TIP3   OH234248   0.647   3.996   4.951  0.9557  0.2902 -0.7652
 4278TIP3    H134249   0.622   3.907   4.925 -0.3396  0.1298  0.9254
 4278TIP3    H234250   0.706   3.983   5.025 -0.2023  0.8531  0.2730
 4279TIP3   OH234251   6.212   2.408   0.388 -0.7795 -0.6828 -0.4473
 4279TIP3    H134252   6.295   2.456   0.395 -1.5377  0.6370 -0.4346
 4279TIP3    H234253   6.221   2.336   0.451 -1.4061  2.0595  2.8691
 4280TIP3   OH234254   6.505   6.481  17.137  0.1926  0.2320 -0.1267
 4280TIP3    H134255   6.503   6.575  17.153 -1.3508  0.6332 -2.4007
 4280TIP3    H234256   6.456   6.443  17.210  0.5128  1.2097  0.6123
 4281TIP3   OH234257   1.220   1.129   5.541  0.3748 -0.7096  0.3522
 4281TIP3    H134258   1.261   1.146   5.457 -0.2406 -0.9583 -0.0001
 4281TIP3    H234259   1.260   1.192   5.601  0.6830 -0.4161 -0.1653
 4282TIP3   OH234260   3.151   2.205  13.451 -0.0262 -0.1047  0.0438
 4282TIP3    H134261   3.065   2.190  13.412 -0.4539 -0.1941  1.0132
 4282TIP3    H234262   3.142   2.289  13.497  0.3868 -0.1445  0.1983
 4283TIP3   OH234263   2.863   5.616   1.391 -0.5342 -0.2701 -0.1623
 4283TIP3    H134264   2.864   5.604   1.296 -1.3903  0.9433 -0.3251
 4283TIP3    H234265   2.922   5.690   1.406 -2.3897  1.1869  0.0130
 4284TIP3   OH234266   1.644   0.810  13.816  0.4378  0.1949  0.2938
 4284TIP3    H134267   1.733   0.782  13.795 -0.6260 -3.8870  0.6846
 4284TIP3    H234268   1.635   0.792  13.909 -0.9636  0.0901  0.1436
 4285TIP3   OH234269   4.115   0.732  13.324 -0.7758 -0.3814  0.2008
 4285TIP3    H134270   4.174   0.807  13.319 -0.7043 -0.4534 -0.0952
 4285TIP3    H234271   4.173   0.656  13.319 -0.8537 -0.4541  0.4232
 4286TIP3   OH234272   0.342   5.259  12.514 -1.0202  0.3700  0.1613
 4286TIP3    H134273   0.341   5.195  12.443  1.1223 -0.5582  0.9307
 4286TIP3    H234274   0.381   5.212  12.588  1.1849  2.7412  0.5504
 4287TIP3   OH234275   0.430   4.724  15.561 -0.2571 -0.3866  0.0375
 4287TIP3    H134276   0.502   4.777  15.598 -0.1306 -0.0253 -0.7107
 4287TIP3    H234277   0.439   4.735  15.467 -0.8783 -0.9121 -0.0840
 4288TIP3   OH234278   5.813   5.868   4.789 -0.5071 -0.0722  0.0897
 4288TIP3    H134279   5.876   5.849   4.859 -0.5113  0.8449  0.3464
 4288TIP3    H234280   5.730   5.881   4.834 -0.5383  0.3842 -0.0981
 4289TIP3   OH234281   4.949   3.199   2.972  0.2851  0.5108  0.1424
 4289TIP3    H134282   4.898   3.125   3.004  1.3709  0.6045  2.1618
 4289TIP3    H234283   4.975   3.247   3.051  0.3174  2.5686 -1.0799
 4290TIP3   OH234284   3.787   0.989   4.162 -0.0934  0.6663 -0.5727
 4290TIP3    H134285   3.819   1.075   4.135 -0.4237  0.6830 -0.9199
 4290TIP3    H234286   3.859   0.952   4.213  0.8533  0.3413 -2.0870
 4291TIP3   OH234287   5.298   3.634   0.861  0.6719  0.0941  0.2483
 4291TIP3    H134288   5.345   3.717   0.857  1.5737 -0.3756  0.8590
 4291TIP3    H234289   5.356   3.576   0.910  1.6053 -1.9070 -3.0944
 4292TIP3   OH234290   2.241   3.793   3.763 -0.0982  0.0563  0.0907
 4292TIP3    H134291   2.188   3.725   3.721  1.8513 -1.6194  0.2670
 4292TIP3    H234292   2.321   3.798   3.710  0.4515  1.0807  0.9941
 4293TIP3   OH234293   0.577   5.312  14.337  0.0366 -0.1190 -0.3950
 4293TIP3    H134294   0.654   5.349  14.380  0.5658 -1.5766 -0.0355
 4293TIP3    H234295   0.506   5.325  14.400  0.4367 -0.6488  0.1734
 4294TIP3   OH234296   2.416   3.193   5.117  0.0312  0.4020 -0.1467
 4294TIP3    H134297   2.474   3.139   5.170 -0.3230 -0.0642 -0.2297
 4294TIP3    H234298   2.385   3.261   5.177 -1.3017 -0.8177  0.5755
 4295TIP3   OH234299   2.425   5.272  16.453  0.2758  0.6351 -0.0028
 4295TIP3    H134300   2.441   5.184  16.488  2.5998 -0.0975 -2.7082
 4295TIP3    H234301   2.347   5.303  16.499  0.1619 -2.3391  1.9024
 4296TIP3   OH234302   1.851   1.919  13.849 -0.5594 -0.6395 -0.0023
 4296TIP3    H134303   1.938   1.881  13.857  1.1957  3.4232  1.8939
 4296TIP3    H234304   1.864   1.995  13.792 -2.6942  0.4907  0.9644
 4297TIP3   OH234305   5.826   5.113  17.106 -0.2361  0.6941  0.0587
 4297TIP3    H134306   5.878   5.165  17.045  0.4738 -1.1293 -0.9208
 4297TIP3    H234307   5.770   5.059  17.049 -0.5271 -0.0487  1.0504
 4298TIP3   OH234308   1.231   5.059  16.271  0.4108 -0.5318 -0.0257
 4298TIP3    H134309   1.159   5.044  16.209  0.4759  0.5155 -0.3544
 4298TIP3    H234310   1.296   5.108  16.221 -0.8114  2.9849  1.6993
 4299TIP3   OH234311   2.329   5.762   5.508 -0.0468 -0.0102  0.5666
 4299TIP3    H134312   2.274   5.684   5.517 -2.5903  1.5614 -0.4622
 4299TIP3    H234313   2.308   5.796   5.421  1.2967  1.5862  0.8382
 4300TIP3   OH234314   0.750   1.111  16.700 -0.3544  0.3682  0.4195
 4300TIP3    H134315   0.758   1.126  16.794  0.6105  0.6143  0.2994
 4300TIP3    H234316   0.782   1.192  16.660 -2.1144  0.8286 -0.0984
 4301TIP3   OH234317   3.921   2.529  11.590 -0.4279  0.4410 -0.7034
 4301TIP3    H134318   3.837   2.533  11.635  0.5675  1.0280  1.1865
 4301TIP3    H234319   3.911   2.459  11.526 -2.2912  0.3900 -0.3866
 4302TIP3   OH234320   2.930   4.864   3.478 -0.0540 -0.3920 -0.1884
 4302TIP3    H134321   2.858   4.926   3.490 -0.4698 -1.1024  1.1109
 4302TIP3    H234322   2.962   4.881   3.390 -2.1757 -0.4275 -0.9991
 4303TIP3   OH234323   2.428   4.627  16.159  0.7653  0.2634 -0.0271
 4303TIP3    H134324   2.377   4.705  16.140  0.2469 -0.3070 -0.9950
 4303TIP3    H234325   2.462   4.598  16.074  1.1998 -0.4008  0.3566
 4304TIP3   OH234326   2.220   2.267   3.302 -0.3636  0.0676 -0.0523
 4304TIP3    H134327   2.235   2.319   3.222 -1.2276 -0.1459 -0.3498
 4304TIP3    H234328   2.308   2.242   3.330 -0.0725 -0.2097 -1.1747
 4305TIP3   OH234329   3.071   0.424  14.278  0.3943  0.2939 -0.0912
 4305TIP3    H134330   3.000   0.369  14.243  0.6472  2.0371 -3.5885
 4305TIP3    H234331   3.032   0.469  14.353 -1.4748 -0.5520 -0.5241
 4306TIP3   OH234332   3.583   2.203   3.397  0.0711 -0.1702 -0.1106
 4306TIP3    H134333   3.607   2.166   3.482 -0.2870  0.3411  0.2146
 4306TIP3    H234334   3.641   2.159   3.335  1.9238  1.1306  0.6628
 4307TIP3   OH234335   4.608   5.285   4.416 -0.2949  0.0773 -0.4290
 4307TIP3    H134336   4.663   5.295   4.338 -0.3349  0.5440 -0.3967
 4307TIP3    H234337   4.604   5.372   4.453  2.6051 -0.7278  2.0222
 4308TIP3   OH234338   1.139   5.071   0.319 -0.2895 -0.1732  0.7637
 4308TIP3    H134339   1.192   5.000   0.282 -1.3595 -0.0458 -1.0715
 4308TIP3    H234340   1.086   5.028   0.386  0.0161 -0.8727  0.5645
 4309TIP3   OH234341   1.402   6.163   4.228  0.2068 -0.4585 -0.2812
 4309TIP3    H134342   1.412   6.081   4.181 -0.1012  0.1078 -1.3614
 4309TIP3    H234343   1.472   6.219   4.195 -0.7129  0.3341 -0.9535
 4310TIP3   OH234344   2.758   3.530   4.524 -0.2883 -0.2852 -0.0972
 4310TIP3    H134345   2.817   3.527   4.600  2.0252 -0.1626 -1.8414
 4310TIP3    H234346   2.786   3.606   4.474 -2.1241 -0.0649 -0.8474
 4311TIP3   OH234347   2.958   3.909  16.436 -0.3194 -0.7702  0.0552
 4311TIP3    H134348   2.969   3.882  16.527  0.0629  0.5441  0.4113
 4311TIP3    H234349   3.012   3.849  16.385  1.5113  0.0826  0.9449
 4312TIP3   OH234350   1.470   1.241   4.938  0.8217  0.2689 -0.0416
 4312TIP3    H134351   1.464   1.232   4.843  1.3126 -0.1948 -0.0345
 4312TIP3    H234352   1.451   1.153   4.971  2.4305 -0.0138  0.1986
 4313TIP3   OH234353   2.463   3.543   5.333 -0.1676 -0.1456 -0.3999
 4313TIP3    H134354   2.387   3.600   5.349  1.0281  1.0814  1.1196
 4313TIP3    H234355   2.519   3.555   5.410  2.9609  1.2432 -2.7529
 4314TIP3   OH234356   6.312   6.242   3.109  0.1829 -0.1261  0.2383
 4314TIP3    H134357   6.223   6.236   3.143  0.4649  1.0675  1.2515
 4314TIP3    H234358   6.306   6.304   3.037  0.2723  0.3402  0.6271
 4315TIP3   OH234359   3.003   3.766   4.106 -0.4828 -0.3981 -0.0940
 4315TIP3    H134360   3.039   3.855   4.106  0.2736 -0.6827  1.0437
 4315TIP3    H234361   2.984   3.747   4.015  1.7104  0.0000 -0.6660
 4316TIP3   OH234362   4.103   3.978   0.040  0.1797 -0.0447  0.0733
 4316TIP3    H134363   4.128   4.010  -0.047  1.0365 -0.2861  0.2207
 4316TIP3    H234364   4.059   3.895   0.024 -0.7299  0.4881 -0.2083
 4317TIP3   OH234365   0.659   0.330  12.634  0.5681 -0.5127  0.2753
 4317TIP3    H134366   0.576   0.337  12.587  1.2905  1.8776 -0.7224
 4317TIP3    H234367   0.654   0.396  12.703  2.3704  1.0416 -1.0114
 4318TIP3   OH234368   5.981   1.739   0.479 -0.3257  0.1106  0.2110
 4318TIP3    H134369   5.988   1.644   0.485 -0.5528  0.1973  2.3422
 4318TIP3    H234370   5.897   1.760   0.521 -1.5797  1.0587 -2.6215
 4319TIP3   OH234371   4.679   3.012  11.272  0.5051  0.1835 -0.4348
 4319TIP3    H134372   4.638   2.930  11.302  0.2590  1.1953  2.1540
 4319TIP3    H234373   4.614   3.050  11.213 -0.0131 -0.7806 -0.5086
 4320TIP3   OH234374   4.899   4.205  15.842  0.1650 -0.0602 -0.0940
 4320TIP3    H134375   4.843   4.245  15.909  0.9555 -0.9299  1.1038
 4320TIP3    H234376   4.856   4.227  15.759 -0.2554  1.9385  0.6122
 4321TIP3   OH234377   5.162   4.438  10.495 -0.1204 -0.4435 -0.3216
 4321TIP3    H134378   5.114   4.480  10.424 -0.1128 -0.3966 -0.2995
 4321TIP3    H234379   5.104   4.444  10.570  0.2579  0.3380 -0.0895
 4322TIP3   OH234380   4.284   2.622   4.305 -0.0003 -0.4655 -0.1592
 4322TIP3    H134381   4.247   2.546   4.350 -0.8387 -0.1051 -0.2249
 4322TIP3    H234382   4.376   2.623   4.330 -0.0020 -1.4614 -0.0969
 4323TIP3   OH234383   4.154   3.595  14.322 -0.3845 -0.0751  0.0902
 4323TIP3    H134384   4.138   3.684  14.292 -1.2449 -0.3557 -0.2976
 4323TIP3    H234385   4.166   3.544  14.243 -0.2771 -0.3729  0.2973
 4324TIP3   OH234386   1.987   3.056   0.311  0.4656  0.3406  0.0825
 4324TIP3    H134387   2.066   3.010   0.340 -0.2670 -0.8223  0.2528
 4324TIP3    H234388   1.956   3.006   0.235  0.6457  1.5857 -0.8317
 4325TIP3   OH234389   5.648   6.413   3.575  0.6578 -0.1028 -0.3677
 4325TIP3    H134390   5.655   6.442   3.484  0.5071 -1.1158 -0.7137
 4325TIP3    H234391   5.568   6.360   3.578  0.5163  0.1439  0.4161
 4326TIP3   OH234392   2.294   6.524  13.995  0.2043  0.1252  0.6264
 4326TIP3    H134393   2.258   6.436  13.990 -0.2191  0.4034 -2.1195
 4326TIP3    H234394   2.388   6.512  14.003  0.0649 -0.5857  1.2194
 4327TIP3   OH234395   4.592   4.780   3.496  0.3570  0.0403  0.0826
 4327TIP3    H134396   4.638   4.786   3.580 -0.0309 -2.9572  0.5453
 4327TIP3    H234397   4.501   4.799   3.517  0.4807  0.6627  0.0769
 4328TIP3   OH234398   5.831   2.578   5.322 -0.0775  0.5454  0.3455
 4328TIP3    H134399   5.757   2.568   5.381  0.3353 -2.0544  0.5133
 4328TIP3    H234400   5.892   2.635   5.369 -0.4337 -0.2204  1.7741
 4329TIP3   OH234401   1.383   2.995  12.787  0.6182 -0.4429  0.1039
 4329TIP3    H134402   1.400   2.985  12.693  0.7791  1.5906 -0.1047
 4329TIP3    H234403   1.292   2.967  12.798  0.8834 -1.5634 -0.5095
 4330TIP3   OH234404   3.581   4.808   3.931 -0.3450  0.1536  0.1041
 4330TIP3    H134405   3.563   4.760   3.850 -1.2613  0.5341  0.0750
 4330TIP3    H234406   3.676   4.800   3.943 -0.4482 -1.4166 -0.0511
 4331TIP3   OH234407   6.535   0.845   0.619  0.1132 -0.1474 -0.1258
 4331TIP3    H134408   6.482   0.924   0.616  0.9352  0.4979  1.2911
 4331TIP3    H234409   6.622   0.873   0.588  0.2907 -0.5942 -0.0402
 4332TIP3   OH234410   1.012   1.141   3.967  0.0681 -0.0748 -0.4810
 4332TIP3    H134411   1.105   1.160   3.958 -0.0694  0.4223 -0.9234
 4332TIP3    H234412   1.008   1.062   4.021  0.6432  1.6409  2.1867
 4333TIP3   OH234413   4.241   5.478   5.676  0.1599  0.0292  0.0069
 4333TIP3    H134414   4.174   5.530   5.720 -1.2321 -1.5722 -0.1570
 4333TIP3    H234415   4.265   5.411   5.739 -0.8961 -1.4731 -1.1250
 4334TIP3   OH234416   2.562   3.342   3.041 -0.5135  0.0104  0.0228
 4334TIP3    H134417   2.473   3.309   3.054 -0.0710 -1.4350 -0.5762
 4334TIP3    H234418   2.559   3.385   2.956 -0.4508 -0.7251 -0.3564
 4335TIP3   OH234419   1.582   5.048  10.953 -0.0641  0.2339  0.1551
 4335TIP3    H134420   1.500   5.016  10.990 -0.6826 -0.2016 -1.5450
 4335TIP3    H234421   1.637   4.970  10.947 -0.6146 -0.0449 -1.4976
 4336TIP3   OH234422   2.015   4.364   5.599 -0.2833  0.6599 -0.3957
 4336TIP3    H134423   2.023   4.373   5.694 -1.0045  0.0995 -0.2725
 4336TIP3    H234424   2.063   4.438   5.564  0.2883  0.6774  0.4039
 4337TIP3   OH234425   3.030   2.474  13.808  0.3345  0.5726  0.1737
 4337TIP3    H134426   2.960   2.411  13.821 -0.9348  1.2929 -2.7822
 4337TIP3    H234427   3.100   2.423  13.766  0.1604  0.6431 -0.2031
 4338TIP3   OH234428   1.563   5.949  11.452 -0.3007 -0.0526  0.4475
 4338TIP3    H134429   1.527   5.936  11.364 -0.6540  0.7405  0.4755
 4338TIP3    H234430   1.487   5.958  11.509 -0.0792  1.0443  0.5917
 4339TIP3   OH234431   5.294   5.731   4.463  0.1758 -0.5098 -0.2548
 4339TIP3    H134432   5.358   5.739   4.393  1.3440  1.0217  0.9603
 4339TIP3    H234433   5.257   5.819   4.473 -0.0755 -0.7318  0.9268
 4340TIP3   OH234434   2.384   4.653  15.733  0.5539  0.7921  0.1113
 4340TIP3    H134435   2.418   4.631  15.820  0.7008 -0.5907 -0.2778
 4340TIP3    H234436   2.456   4.700  15.691  1.5630 -1.0687 -0.2800
 4341TIP3   OH234437   5.068   4.048  12.389  0.5758 -0.3195  0.2698
 4341TIP3    H134438   5.069   4.123  12.449  1.1091  0.3140 -0.5004
 4341TIP3    H234439   5.002   4.071  12.324  1.4885 -0.0140 -0.5666
 4342TIP3   OH234440   0.626   4.378   4.600  0.5811  0.1601  0.0035
 4342TIP3    H134441   0.556   4.437   4.630  0.4271  0.5049 -0.9924
 4342TIP3    H234442   0.641   4.319   4.673  1.2045  1.8581  1.3015
 4343TIP3   OH234443   1.985   0.028   3.303  0.1129  0.1651 -0.7727
 4343TIP3    H134444   1.906   0.081   3.310 -0.1344  0.0043 -2.1948
 4343TIP3    H234445   2.057   0.091   3.296  0.1184  0.3111  0.5181
 4344TIP3   OH234446   5.043   0.947  11.798  0.0369  0.1943 -0.6707
 4344TIP3    H134447   5.033   0.970  11.706  1.9239 -0.9878 -1.2050
 4344TIP3    H234448   4.954   0.935  11.830 -0.6832  1.6290 -2.0700
 4345TIP3   OH234449   1.609   5.588   0.175 -0.2337  0.3938  0.0536
 4345TIP3    H134450   1.577   5.538   0.250 -0.2654  1.1449  0.5507
 4345TIP3    H234451   1.609   5.526   0.103 -3.0459  0.4373 -0.0280
 4346TIP3   OH234452   4.960   6.535  16.099  0.3920 -0.3894  0.2768
 4346TIP3    H134453   4.876   6.571  16.128 -0.0292 -0.4068 -0.9062
 4346TIP3    H234454   4.938   6.481  16.024  1.5346  0.0931 -0.4199
 4347TIP3   OH234455   1.299   3.997   2.489 -1.0454  0.5388  0.3606
 4347TIP3    H134456   1.210   4.031   2.489 -1.5694 -0.7838 -0.3360
 4347TIP3    H234457   1.289   3.903   2.504  0.1107  0.1141 -1.4136
 4348TIP3   OH234458   1.857   6.166  16.122 -0.0591 -0.6662  0.2292
 4348TIP3    H134459   1.787   6.139  16.063 -2.5032  0.3302  2.5558
 4348TIP3    H234460   1.813   6.218  16.189  2.9404  0.0516  1.7341
 4349TIP3   OH234461   5.157   1.533   2.418  0.1611 -0.1718  0.4872
 4349TIP3    H134462   5.147   1.607   2.358  2.7459  0.6970  1.0548
 4349TIP3    H234463   5.242   1.548   2.460  0.0017 -2.6429  1.7595
 4350TIP3   OH234464   3.833   5.665  13.995 -0.5586 -0.5673 -0.0490
 4350TIP3    H134465   3.860   5.573  13.997  1.1331 -0.1077 -0.9912
 4350TIP3    H234466   3.737   5.662  14.006 -0.8522 -2.5934 -2.6461
 4351TIP3   OH234467   6.670   3.913   3.444 -0.3930  0.0359 -0.5625
 4351TIP3    H134468   6.584   3.906   3.486 -0.7285  1.0274 -1.0656
 4351TIP3    H234469   6.716   3.833   3.470 -1.1498 -0.0871  0.4158
 4352TIP3   OH234470   4.358   4.429   5.597  0.1094  0.6316 -0.0697
 4352TIP3    H134471   4.355   4.394   5.687 -1.5410  1.2756  0.1393
 4352TIP3    H234472   4.346   4.352   5.542 -0.2977  0.4231  0.3028
 4353TIP3   OH234473   0.837   5.955  14.105  0.3243  0.0453  0.4368
 4353TIP3    H134474   0.805   6.025  14.048 -0.6235 -0.7117  0.0197
 4353TIP3    H234475   0.894   5.902  14.049 -1.5798 -1.4107 -0.1845
 4354TIP3   OH234476   5.694   3.941  16.840  0.6165 -0.1438  0.4677
 4354TIP3    H134477   5.739   3.880  16.898  1.5349 -0.0085 -0.0937
 4354TIP3    H234478   5.611   3.959  16.884  1.2925 -0.0476  1.7415
 4355TIP3   OH234479   6.210   3.733  13.280  0.0564  1.1418 -0.0003
 4355TIP3    H134480   6.222   3.804  13.217 -1.1599  0.9084 -0.5239
 4355TIP3    H234481   6.124   3.697  13.258  1.2925 -1.4829 -0.7393
 4356TIP3   OH234482   2.883   0.581   5.634 -0.3958  0.3671  0.3666
 4356TIP3    H134483   2.900   0.509   5.574 -2.0393 -0.5900  1.0335
 4356TIP3    H234484   2.865   0.656   5.577 -0.1186 -0.0823 -0.3160
 4357TIP3   OH234485   2.038   4.475   5.851  0.3776 -0.6800  0.2708
 4357TIP3    H134486   1.946   4.502   5.843  0.1188 -1.3850  0.7976
 4357TIP3    H234487   2.078   4.540   5.908 -0.2633 -1.4458  1.6173
 4358TIP3   OH234488   2.870   2.569  11.480 -0.6317 -0.3384 -0.6308
 4358TIP3    H134489   2.835   2.653  11.508  0.6682  0.2230 -0.6435
 4358TIP3    H234490   2.914   2.587  11.397  0.6902 -0.7726 -0.0437
 4359TIP3   OH234491   2.935   0.243  16.274 -0.4791  0.0118 -0.6098
 4359TIP3    H134492   2.990   0.294  16.213 -1.5781  0.2359 -1.4266
 4359TIP3    H234493   2.998   0.204  16.335  0.4323  2.0769 -0.1597
 4360TIP3   OH234494   3.032   4.809   5.617 -0.0427 -0.3660  0.1393
 4360TIP3    H134495   3.051   4.756   5.539 -1.4637 -1.0249  0.2319
 4360TIP3    H234496   2.957   4.863   5.592 -1.3640 -1.5406  1.4576
 4361TIP3   OH234497   6.216   5.665   4.556  0.5135 -0.3229 -0.1266
 4361TIP3    H134498   6.271   5.674   4.634  1.7236  0.8944 -1.1019
 4361TIP3    H234499   6.134   5.706   4.580  0.6964 -0.4240  0.6911
 4362TIP3   OH234500   6.084   3.722   3.659 -0.9177 -0.1198  0.6545
 4362TIP3    H134501   6.148   3.655   3.633 -0.7337  0.0880  0.5740
 4362TIP3    H234502   6.109   3.747   3.747 -1.9383 -1.3066  1.3047
 4363TIP3   OH234503   0.728   3.390  15.135 -0.5085  1.3254 -0.0130
 4363TIP3    H134504   0.742   3.464  15.193  2.1760  0.5207  0.4354
 4363TIP3    H234505   0.732   3.427  15.047 -2.4119  2.1917  0.2387
 4364TIP3   OH234506   1.012   1.458   4.534  0.2044  0.1318  0.2643
 4364TIP3    H134507   1.020   1.526   4.600 -0.1192  0.4637 -0.0379
 4364TIP3    H234508   1.081   1.477   4.470 -1.7407  1.9321 -1.3876
 4365TIP3   OH234509   2.147   0.481   5.337  0.1101 -0.2609  0.0995
 4365TIP3    H134510   2.202   0.543   5.386 -0.6190  0.8183 -0.4140
 4365TIP3    H234511   2.071   0.467   5.393  0.1080 -0.4123  0.0582
 4366TIP3   OH234512   6.661   0.614  17.048  0.4450 -0.2506  0.0239
 4366TIP3    H134513   6.654   0.679  16.978  0.1857 -0.9734 -0.6351
 4366TIP3    H234514   6.574   0.612  17.088  1.0086  1.2434  1.3632
 4367TIP3   OH234515   3.456   0.181  13.861 -0.8321  0.1479 -0.2237
 4367TIP3    H134516   3.455   0.221  13.948 -1.3853 -0.0503 -0.1353
 4367TIP3    H234517   3.397   0.236  13.809 -1.6821 -0.5986 -0.0750
 4368TIP3   OH234518   2.177   4.941  11.991 -0.1387 -0.2198 -0.4922
 4368TIP3    H134519   2.168   4.978  12.079 -0.3352 -1.0588 -0.1576
 4368TIP3    H234520   2.246   4.993  11.950  0.5760 -0.3960  0.4634
 4369TIP3   OH234521   5.452   2.984  15.292 -0.3142 -0.1638  0.2125
 4369TIP3    H134522   5.383   2.920  15.274  0.0700 -0.4389 -0.3013
 4369TIP3    H234523   5.405   3.066  15.308 -0.7839 -0.4644  0.3719
 4370TIP3   OH234524   1.539   0.117  10.379 -0.3711 -0.1330  0.5269
 4370TIP3    H134525   1.507   0.034  10.343  0.2556 -1.0793  2.0754
 4370TIP3    H234526   1.590   0.091  10.456 -0.5040  1.7147  1.2649
 4371TIP3   OH234527   0.743   6.713   2.720 -0.3309 -0.0961  0.0187
 4371TIP3    H134528   0.722   6.784   2.781  0.6303 -1.0753  1.5032
 4371TIP3    H234529   0.838   6.703   2.727 -0.4542 -1.4903 -0.2314
 4372TIP3   OH234530   1.737   5.654   4.424 -0.1716  0.3463 -0.3119
 4372TIP3    H134531   1.705   5.620   4.340  0.8127 -2.1042  0.2504
 4372TIP3    H234532   1.814   5.707   4.401  0.1438 -0.3836 -0.9768
 4373TIP3   OH234533   4.694   5.142   5.698  0.3941 -0.3479 -0.3493
 4373TIP3    H134534   4.650   5.108   5.620 -1.9502  0.6368  0.4931
 4373TIP3    H234535   4.656   5.093   5.771  2.7787 -1.4603  0.1738
 4374TIP3   OH234536   0.251   0.438  16.262  0.0141  0.6868 -0.2752
 4374TIP3    H134537   0.276   0.461  16.351 -1.4081  0.7557  0.1162
 4374TIP3    H234538   0.199   0.513  16.231 -0.8847 -0.0536 -0.5762
 4375TIP3   OH234539   0.787   2.257   1.643  0.1596 -0.3943 -0.2889
 4375TIP3    H134540   0.767   2.237   1.735  0.6362  0.6033  0.0462
 4375TIP3    H234541   0.862   2.318   1.648 -0.3989  0.3911 -1.3052
 4376TIP3   OH234542   5.755   2.691  15.589 -0.1012  0.5021 -0.1968
 4376TIP3    H134543   5.691   2.680  15.519  1.1122  2.9168 -1.7501
 4376TIP3    H234544   5.717   2.645  15.663 -1.2483 -2.4962 -2.5195
 4377TIP3   OH234545   0.135   5.702  15.803 -0.7728  0.4858 -0.8133
 4377TIP3    H134546   0.044   5.715  15.776 -1.2801 -2.8827 -0.8886
 4377TIP3    H234547   0.176   5.658  15.729  0.7195  1.2147 -0.4307
 4378TIP3   OH234548   0.812   2.536  15.855 -0.0617 -0.6577 -0.2681
 4378TIP3    H134549   0.779   2.452  15.825 -0.6554 -0.4779 -0.1370
 4378TIP3    H234550   0.877   2.561  15.790 -0.1157 -1.0659 -0.4800
 4379TIP3   OH234551   2.070   5.837  15.568 -0.4480 -0.7938  0.3410
 4379TIP3    H134552   1.997   5.810  15.512 -1.1525  0.9892  0.3714
 4379TIP3    H234553   2.148   5.808  15.521 -1.1160 -1.2347 -0.5112
 4380TIP3   OH234554   6.667   1.225  12.255  0.4179 -0.2959 -0.3425
 4380TIP3    H134555   6.627   1.297  12.207  1.9423  0.7330 -0.1018
 4380TIP3    H234556   6.731   1.188  12.194 -0.3547 -1.4706 -0.4694
 4381TIP3   OH234557   3.169   2.230   5.075 -0.1936 -0.1854 -0.0970
 4381TIP3    H134558   3.239   2.236   5.139  0.7148 -1.3576 -0.9602
 4381TIP3    H234559   3.158   2.319   5.042 -0.5641  0.3867  1.5740
 4382TIP3   OH234560   5.118   6.213  16.858 -0.0542  0.5672 -0.4237
 4382TIP3    H134561   5.039   6.259  16.886  0.5156  0.2845  1.7430
 4382TIP3    H234562   5.100   6.121  16.877  0.6527  0.4682 -0.2264
 4383TIP3   OH234563   2.423   1.256  16.072 -0.3956  0.2784  0.2236
 4383TIP3    H134564   2.334   1.239  16.101 -0.7119 -0.4143 -1.0903
 4383TIP3    H234565   2.439   1.189  16.005  0.4166  1.6051 -0.9348
 4384TIP3   OH234566   2.846   2.128  15.238  0.2334  0.9213 -0.4024
 4384TIP3    H134567   2.816   2.152  15.150 -0.8883 -0.9635 -0.5484
 4384TIP3    H234568   2.811   2.040  15.252  2.0217  0.4431  1.1816
 4385TIP3   OH234569   2.072   4.384   6.226  0.9227 -0.6185  0.6326
 4385TIP3    H134570   1.996   4.402   6.170  1.6902  0.3651 -0.0996
 4385TIP3    H234571   2.085   4.465   6.275  1.5552 -0.7578  0.6880
 4386TIP3   OH234572   0.312   5.087  13.156  0.3285  0.4689  0.0495
 4386TIP3    H134573   0.252   5.046  13.094  2.0507 -0.7342 -0.8615
 4386TIP3    H234574   0.281   5.057  13.242 -1.0013  0.7184 -0.3374
 4387TIP3   OH234575   0.003   0.204  14.564 -0.1182 -0.5381  0.3469
 4387TIP3    H134576   0.041   0.224  14.478  0.4926 -1.8332  0.2989
 4387TIP3    H234577   0.078   0.182  14.618 -0.5840 -0.5607  0.9850
 4388TIP3   OH234578   2.648   5.870   2.568  0.0470  0.7256 -0.0575
 4388TIP3    H134579   2.630   5.964   2.568 -1.5306  0.4478 -1.4703
 4388TIP3    H234580   2.568   5.830   2.533  1.5360 -0.9682 -1.6489
 4389TIP3   OH234581   3.818   0.343   2.822 -0.0707 -0.3662  0.0806
 4389TIP3    H134582   3.881   0.346   2.894  1.5647  0.5180 -1.3540
 4389TIP3    H234583   3.816   0.432   2.787 -1.1229 -0.6902 -0.7252
 4390TIP3   OH234584   3.053   3.455   0.346  0.0540 -0.0176 -0.2424
 4390TIP3    H134585   3.048   3.507   0.425 -1.2275  0.0912 -0.3941
 4390TIP3    H234586   3.055   3.364   0.376 -0.3486  0.0267 -0.0889
 4391TIP3   OH234587   3.471   5.932  10.580  0.3934 -0.0384 -0.2288
 4391TIP3    H134588   3.469   6.000  10.513 -0.5879 -0.4836 -0.6585
 4391TIP3    H234589   3.555   5.889  10.568  1.1295  1.2582  0.2126
 4392TIP3   OH234590   5.760   6.016  15.650 -0.1468 -0.5167 -0.2149
 4392TIP3    H134591   5.733   5.987  15.737 -0.1752 -3.0760 -1.0317
 4392TIP3    H234592   5.685   5.997  15.593 -0.4782  1.9595 -0.6909
 4393TIP3   OH234593   2.628   5.651  11.020  0.1022 -0.2171  0.2751
 4393TIP3    H134594   2.602   5.559  11.021  2.3606 -0.8825  1.7318
 4393TIP3    H234595   2.688   5.658  10.946 -0.2026  0.1284  0.0612
 4394TIP3   OH234596   4.015   5.967   2.420  0.4805 -0.9550 -0.1426
 4394TIP3    H134597   4.082   6.010   2.367  0.3475 -0.7267 -0.1232
 4394TIP3    H234598   4.058   5.887   2.452  0.3332 -1.4631 -1.1830
 4395TIP3   OH234599   6.236   1.908   3.594  0.2397  0.2087 -0.3003
 4395TIP3    H134600   6.331   1.915   3.599  0.3804 -2.2525  1.3313
 4395TIP3    H234601   6.216   1.818   3.620 -2.6366  1.1915  1.2080
 4396TIP3   OH234602   1.642   5.845  12.505 -0.3139 -0.3070  0.1464
 4396TIP3    H134603   1.688   5.767  12.535 -0.5879 -0.0324  1.3262
 4396TIP3    H234604   1.669   5.914  12.567  0.9763  0.8688 -1.6600
 4397TIP3   OH234605   5.501   2.495  15.663 -0.1599 -0.0616 -0.4051
 4397TIP3    H134606   5.479   2.422  15.606 -2.4191 -0.0140  0.3230
 4397TIP3    H234607   5.527   2.454  15.746 -1.6557 -0.0574  0.0789
 4398TIP3   OH234608   6.273   6.685   0.012  0.2743 -0.2182 -0.0506
 4398TIP3    H134609   6.183   6.678   0.042 -0.2407 -2.7265 -2.0373
 4398TIP3    H234610   6.322   6.710   0.091 -1.8744 -0.5697  1.4430
 4399TIP3   OH234611   0.453   5.125  12.742 -0.6603 -0.1734 -0.0727
 4399TIP3    H134612   0.402   5.137  12.822 -0.6687  0.9417 -0.2386
 4399TIP3    H234613   0.544   5.122  12.772 -0.6622  0.2581 -0.0089
 4400TIP3   OH234614   2.689   2.980  16.905 -0.4115 -0.4855 -0.0076
 4400TIP3    H134615   2.598   2.997  16.881 -0.0255  1.7491 -0.0069
 4400TIP3    H234616   2.739   3.041  16.851  1.1160 -1.9641 -0.2872
 4401TIP3   OH234617   1.515   3.993  11.067 -0.4311 -0.1380 -0.0964
 4401TIP3    H134618   1.536   3.985  10.974 -0.1610 -0.4666 -0.0097
 4401TIP3    H234619   1.422   3.971  11.073 -0.1387 -1.4088 -0.1135
 4402TIP3   OH234620   5.345   2.044  16.011  0.0102 -0.5556 -0.0929
 4402TIP3    H134621   5.404   1.993  16.065 -0.6699 -2.0271 -0.7208
 4402TIP3    H234622   5.261   2.041  16.058  0.0961  0.4548  0.1437
 4403TIP3   OH234623   5.534   5.168   2.309  0.0886  0.1897  0.3061
 4403TIP3    H134624   5.467   5.132   2.251  0.1583 -0.3130  0.5325
 4403TIP3    H234625   5.544   5.259   2.281  0.3012 -0.1168 -0.6334
 4404TIP3   OH234626   5.521   1.252  13.821  0.5126  0.0040 -0.3479
 4404TIP3    H134627   5.496   1.306  13.896 -0.7642 -0.2251 -0.5952
 4404TIP3    H234628   5.578   1.185  13.858 -0.9311 -0.7206  0.6032
 4405TIP3   OH234629   6.767   3.935  16.329  0.4567 -0.1442  0.3983
 4405TIP3    H134630   6.812   3.903  16.406  0.1510  2.3873  1.6908
 4405TIP3    H234631   6.802   4.024  16.316 -1.3556  0.4209 -0.8363
 4406TIP3   OH234632   6.657   1.878  13.241  0.0929  0.6689 -0.2183
 4406TIP3    H134633   6.682   1.889  13.333 -0.2772 -1.3334  0.1425
 4406TIP3    H234634   6.701   1.797  13.214  0.5207  1.4571 -1.9238
 4407TIP3   OH234635   0.712   6.438  13.975  0.2535  0.3336  0.8635
 4407TIP3    H134636   0.783   6.380  13.947 -0.5688 -0.0864 -0.4442
 4407TIP3    H234637   0.722   6.445  14.070  1.6883 -0.1787  0.7611
 4408TIP3   OH234638   1.805   6.554  13.793  0.7586 -0.0122 -0.0636
 4408TIP3    H134639   1.807   6.468  13.752  2.0544  0.3527 -0.8059
 4408TIP3    H234640   1.735   6.549  13.858 -0.6640 -0.9274 -1.6338
 4409TIP3   OH234641   2.763   6.272   5.830  0.3416 -0.1640  0.0476
 4409TIP3    H134642   2.837   6.227   5.872 -0.6775 -2.1348 -0.1990
 4409TIP3    H234643   2.686   6.226   5.863 -0.6883  0.8075 -0.9753
 4410TIP3   OH234644   1.558   2.649   3.659 -0.3075 -0.4044  0.1251
 4410TIP3    H134645   1.648   2.643   3.691 -0.4053  0.9731  0.7058
 4410TIP3    H234646   1.505   2.658   3.738 -0.5659  2.9210 -0.3298
 4411TIP3   OH234647   0.444   5.860   3.440 -0.3880  0.3509 -0.1590
 4411TIP3    H134648   0.509   5.918   3.479 -1.1283  1.3120 -0.3393
 4411TIP3    H234649   0.416   5.906   3.361 -3.0800  1.1102  1.1975
 4412TIP3   OH234650   0.068   4.518  17.239  0.5602 -0.3137 -0.0469
 4412TIP3    H134651   0.047   4.588  17.177  0.6014 -0.4957 -0.2667
 4412TIP3    H234652   0.152   4.544  17.277 -0.5493  0.9642  1.6164
 4413TIP3   OH234653   0.178   3.087   3.655 -0.1561  0.2568 -0.1957
 4413TIP3    H134654   0.096   3.131   3.677 -0.1260 -0.0847  0.6008
 4413TIP3    H234655   0.223   3.149   3.597 -1.1060  0.3154 -0.8924
 4414TIP3   OH234656   1.124   1.343   6.162 -0.0869  0.4938 -0.7822
 4414TIP3    H134657   1.168   1.325   6.245  2.0263 -1.7664 -2.3266
 4414TIP3    H234658   1.038   1.302   6.172  0.0371  0.4801  0.3818
 4415TIP3   OH234659   2.011   3.953  15.450 -0.1350  0.0009 -0.4665
 4415TIP3    H134660   1.959   3.990  15.521 -1.1279 -2.2097  0.0053
 4415TIP3    H234661   2.081   4.017  15.436 -0.4314  0.9047  1.9069
 4416TIP3   OH234662   3.407   0.216   5.040  0.0345  0.3110  0.1182
 4416TIP3    H134663   3.329   0.270   5.028  2.0014  3.3779  0.7926
 4416TIP3    H234664   3.438   0.236   5.128  1.0409 -1.6315  0.2374
 4417TIP3   OH234665   1.005   6.024   5.006  0.1127 -0.0350  0.2290
 4417TIP3    H134666   0.992   6.101   5.061  0.1190  0.8047 -0.9355
 4417TIP3    H234667   0.933   5.965   5.030 -3.3257  2.6558 -2.8625
 4418TIP3   OH234668   2.784   3.654   2.701 -0.1397 -0.1792 -0.1323
 4418TIP3    H134669   2.839   3.728   2.725 -0.3602  0.6494 -2.0719
 4418TIP3    H234670   2.722   3.646   2.774  1.0576  0.3606  0.9632
 4419TIP3   OH234671   0.450   2.798  16.309 -0.2262  0.0204 -0.3652
 4419TIP3    H134672   0.431   2.819  16.401  0.2081 -0.9210 -0.0484
 4419TIP3    H234673   0.369   2.818  16.263  0.8662  4.7261 -0.5257
 4420TIP3   OH234674   4.959   2.207   0.332 -0.1463 -0.6854  0.0653
 4420TIP3    H134675   4.898   2.261   0.381  0.0083 -0.0689 -0.4149
 4420TIP3    H234676   5.011   2.163   0.398 -0.4731 -0.4800  0.4630
 4421TIP3   OH234677   3.384   5.586   1.189  0.1268  0.0359 -0.3366
 4421TIP3    H134678   3.342   5.501   1.190 -0.6549  0.4178  1.6643
 4421TIP3    H234679   3.330   5.640   1.132  0.3457 -0.6655 -1.2064
 4422TIP3   OH234680   4.660   6.600   5.932 -0.7725  0.0720 -0.0276
 4422TIP3    H134681   4.588   6.663   5.936  0.0400  0.9610  1.2364
 4422TIP3    H234682   4.678   6.579   6.024  1.2412  0.6427 -0.2744
 4423TIP3   OH234683   6.541   3.921  12.863 -0.3411  0.1891  0.1434
 4423TIP3    H134684   6.493   3.844  12.833 -0.6635 -0.0832  1.3161
 4423TIP3    H234685   6.523   3.988  12.797  1.0435 -1.1341 -1.5943
 4424TIP3   OH234686   2.907   4.875  16.282  0.2191 -0.3763  0.4585
 4424TIP3    H134687   2.813   4.869  16.298 -0.0700  1.6359 -0.4329
 4424TIP3    H234688   2.919   4.835  16.196 -0.1644  1.5529 -0.5057
 4425TIP3   OH234689   1.891   2.394   0.986  0.5977  0.2453  0.3865
 4425TIP3    H134690   1.839   2.322   1.021 -1.6012  1.5463 -0.0435
 4425TIP3    H234691   1.868   2.469   1.041  0.4647  1.2951 -1.0600
 4426TIP3   OH234692   0.005   2.016   4.389 -0.0998 -0.7555  0.0649
 4426TIP3    H134693   0.067   2.087   4.372  0.6178 -1.2656  0.5171
 4426TIP3    H234694  -0.059   2.022   4.319 -0.9116  1.2996  0.9536
 4427TIP3   OH234695   3.083   3.151   2.627  0.2819  0.8472 -0.2595
 4427TIP3    H134696   3.160   3.130   2.680  0.2303  2.1964  0.3688
 4427TIP3    H234697   3.030   3.207   2.684 -1.6740 -0.8910 -0.2929
 4428TIP3   OH234698   1.670   2.316  14.756  0.3520  0.3166  0.1341
 4428TIP3    H134699   1.697   2.405  14.733  1.4464 -0.3398 -1.2358
 4428TIP3    H234700   1.576   2.315  14.739  0.0947  1.5539  1.3521
 4429TIP3   OH234701   1.204   5.900   1.347  0.5313 -0.2111 -0.1758
 4429TIP3    H134702   1.179   5.988   1.319  2.1381  0.2606 -0.2257
 4429TIP3    H234703   1.278   5.878   1.290 -0.4937 -2.0182 -0.8415
 4430TIP3   OH234704   3.797   1.307   3.116 -0.5098 -0.0552  0.0104
 4430TIP3    H134705   3.888   1.312   3.145 -0.6050 -1.1846  0.5284
 4430TIP3    H234706   3.753   1.378   3.164 -0.4748 -1.2937  1.9185
 4431TIP3   OH234707   4.500   6.670   1.782 -0.3709  0.1835 -0.3799
 4431TIP3    H134708   4.523   6.752   1.738  0.2903 -0.7824 -1.8533
 4431TIP3    H234709   4.408   6.655   1.760 -0.2218  0.0355 -0.9027
 4432TIP3   OH234710   6.167   1.033   1.887  0.5857  0.5066 -0.0552
 4432TIP3    H134711   6.101   0.968   1.910 -0.5042  1.2712 -1.0084
 4432TIP3    H234712   6.121   1.097   1.833  1.7295  1.8832  0.5570
 4433TIP3   OH234713   1.095   4.339   0.019 -0.0675 -0.0814  0.4498
 4433TIP3    H134714   1.179   4.335  -0.028 -1.5864 -2.0617 -2.3193
 4433TIP3    H234715   1.030   4.338  -0.051 -2.4244 -0.7778  2.6037
 4434TIP3   OH234716   1.984   6.541   0.481  0.4211 -0.1664  0.0465
 4434TIP3    H134717   1.927   6.586   0.419 -0.9028  0.0418  1.3945
 4434TIP3    H234718   1.980   6.449   0.455  0.7150  0.0643 -0.8279
 4435TIP3   OH234719   1.675   0.611   0.790 -0.0581 -0.1278 -0.0556
 4435TIP3    H134720   1.692   0.684   0.732 -0.5232  1.6375  1.9717
 4435TIP3    H234721   1.736   0.623   0.863 -2.7991  0.5319  2.2338
 4436TIP3   OH234722   5.074   4.573  16.067 -0.2739  0.1509  0.1405
 4436TIP3    H134723   4.985   4.587  16.035 -0.3062 -1.4272 -0.5047
 4436TIP3    H234724   5.081   4.478  16.076  1.9987  0.1198 -1.7115
 4437TIP3   OH234725   3.214   3.980  14.046  0.6773 -0.2941 -0.4271
 4437TIP3    H134726   3.182   3.904  14.096  1.7909 -1.4041 -1.3615
 4437TIP3    H234727   3.294   4.006  14.092 -0.6514  1.4836  0.9664
 4438TIP3   OH234728   1.775   1.822   5.124  0.4624 -0.3742  0.2044
 4438TIP3    H134729   1.771   1.783   5.211 -0.1009  0.3446  0.5079
 4438TIP3    H234730   1.691   1.801   5.084 -0.8468  2.5467  1.2699
 4439TIP3   OH234731   1.950   1.474  11.680 -0.8089  0.1376 -0.1015
 4439TIP3    H134732   2.041   1.504  11.680 -0.1186 -1.5978  3.0267
 4439TIP3    H234733   1.898   1.554  11.678  0.8358  1.2429 -0.0141
 4440TIP3   OH234734   2.545   0.906   1.161 -0.1016  0.4132  0.2825
 4440TIP3    H134735   2.543   0.811   1.150 -0.8914  0.4305  0.2152
 4440TIP3    H234736   2.455   0.929   1.184 -0.5703  1.4467 -2.3957
 4441TIP3   OH234737   6.250   4.537   5.424 -0.3714 -0.6905 -0.8471
 4441TIP3    H134738   6.289   4.476   5.361  0.2053 -0.4854 -0.6947
 4441TIP3    H234739   6.279   4.506   5.509  0.0125 -0.1447 -0.7741
 4442TIP3   OH234740   3.563   2.843  12.675  0.1618  0.1962  0.4947
 4442TIP3    H134741   3.585   2.769  12.619 -0.5182  0.5441 -0.2419
 4442TIP3    H234742   3.484   2.816  12.721 -0.2167  0.5431  0.0567
 4443TIP3   OH234743   2.669   0.647  11.907 -0.1286 -0.3868  0.5180
 4443TIP3    H134744   2.693   0.555  11.915  2.6417  0.1747 -0.5570
 4443TIP3    H234745   2.636   0.656  11.818 -0.5293 -0.3640  0.6676
 4444TIP3   OH234746   4.905   1.238  11.782  0.3032  0.3643 -0.2921
 4444TIP3    H134747   4.965   1.196  11.721 -1.1298 -0.3840 -1.2263
 4444TIP3    H234748   4.825   1.185  11.778  0.0033  0.5940  1.8669
 4445TIP3   OH234749   3.422   5.310  14.014 -0.0904 -0.2672 -0.4241
 4445TIP3    H134750   3.430   5.323  13.919  0.7403  1.2242 -0.1807
 4445TIP3    H234751   3.411   5.216  14.025 -0.5639 -0.4131 -2.0288
 4446TIP3   OH234752   3.681   3.157  14.506  0.1142  0.3327 -0.5093
 4446TIP3    H134753   3.677   3.110  14.589  1.5690 -0.1401 -0.7001
 4446TIP3    H234754   3.719   3.242  14.528  2.3373 -0.5078 -0.9779
 4447TIP3   OH234755   6.339   5.688   4.285 -0.6365 -0.4912  0.0547
 4447TIP3    H134756   6.299   5.694   4.371  0.8336 -1.6415  0.8355
 4447TIP3    H234757   6.285   5.745   4.229 -1.6226  0.2105  1.6979
 4448TIP3   OH234758   4.457   5.223   0.728  0.5997  0.4555  0.2109
 4448TIP3    H134759   4.397   5.171   0.674  0.0815  1.5671 -0.2980
 4448TIP3    H234760   4.541   5.218   0.682  1.0907 -1.6640  1.2821
 4449TIP3   OH234761   1.369   4.945   1.791 -0.5453 -0.3539  0.4504
 4449TIP3    H134762   1.456   4.915   1.818 -0.4050 -0.2022  0.1784
 4449TIP3    H234763   1.309   4.878   1.822 -0.2374 -0.9161 -0.1622
 4450TIP3   OH234764   4.644   3.465  13.690  0.3780  0.5024 -0.2834
 4450TIP3    H134765   4.629   3.450  13.597 -1.0254 -0.7390  0.1158
 4450TIP3    H234766   4.722   3.414  13.710  1.6777  2.1383 -1.1264
 4451TIP3   OH234767   5.615   3.799  14.369  0.4194  0.2348  0.3557
 4451TIP3    H134768   5.683   3.820  14.434 -0.3241 -2.5543  2.0893
 4451TIP3    H234769   5.533   3.805  14.418 -0.3404  0.2366 -0.9025
 4452TIP3   OH234770   0.960   5.105  13.723 -0.0987  0.3384 -0.6179
 4452TIP3    H134771   1.003   5.021  13.710 -0.1906 -0.1355  1.9218
 4452TIP3    H234772   0.997   5.139  13.804 -2.5597  1.1470  0.2106
 4453TIP3   OH234773   6.121   1.082   5.465  0.0223 -0.5879  0.1354
 4453TIP3    H134774   6.137   1.174   5.447  0.3137 -0.5742  0.4620
 4453TIP3    H234775   6.099   1.078   5.558  1.4880 -1.0241  0.4823
 4454TIP3   OH234776   0.827   5.750   4.498  0.5576  0.0937 -0.5813
 4454TIP3    H134777   0.756   5.767   4.436  0.6559  0.6110 -0.5535
 4454TIP3    H234778   0.896   5.710   4.445  0.1624 -0.6185 -0.5660
 4455TIP3   OH234779   3.852   6.397   3.511 -0.4320 -0.0814  0.1984
 4455TIP3    H134780   3.859   6.492   3.524 -2.1216  0.2153 -0.9103
 4455TIP3    H234781   3.795   6.387   3.435 -0.1477 -2.0007  0.2037
 4456TIP3   OH234782   1.467   1.663  16.623 -1.0939 -0.1659 -0.5802
 4456TIP3    H134783   1.550   1.617  16.639  0.3549  2.2951 -0.8241
 4456TIP3    H234784   1.477   1.702  16.537 -1.3168  2.6302  0.6075
 4457TIP3   OH234785   2.454   5.280  14.959  0.2246 -0.7305 -0.1570
 4457TIP3    H134786   2.533   5.318  14.997 -0.8148  2.3604 -0.9568
 4457TIP3    H234787   2.414   5.231  15.031  2.2884 -1.4613  0.5394
 4458TIP3   OH234788   1.126   6.609  11.175 -0.7563 -0.3208 -0.3152
 4458TIP3    H134789   1.085   6.564  11.101 -1.7913  0.4935 -0.2471
 4458TIP3    H234790   1.155   6.692  11.139 -4.2818  1.5325  0.9310
 4459TIP3   OH234791   4.137   0.904  12.412 -0.3402 -0.1581 -1.0836
 4459TIP3    H134792   4.212   0.846  12.398 -0.6877 -0.5794 -1.2165
 4459TIP3    H234793   4.115   0.936  12.324  0.9284  1.5459 -0.8128
 4460TIP3   OH234794   0.486   6.030  11.937 -0.1328 -0.2970 -0.2871
 4460TIP3    H134795   0.400   6.072  11.939  0.4860  0.9669 -0.1797
 4460TIP3    H234796   0.470   5.943  11.974 -1.6678 -0.6606 -1.7223
 4461TIP3   OH234797   0.476   6.027   2.024 -0.3300  0.3515  0.0787
 4461TIP3    H134798   0.403   6.068   2.070  0.3673  0.8409  0.7810
 4461TIP3    H234799   0.437   5.989   1.945 -1.5980 -0.8019  1.2408
 4462TIP3   OH234800   4.180   4.014  14.570  0.0270  0.3175 -0.3546
 4462TIP3    H134801   4.109   3.998  14.632  1.1070 -0.3970  0.7162
 4462TIP3    H234802   4.193   4.109  14.572  0.3265  0.2564  0.8264
 4463TIP3   OH234803   0.033   0.433   6.622  0.5484 -0.0737 -0.4062
 4463TIP3    H134804   0.024   0.495   6.549  0.5198  0.5861  0.1501
 4463TIP3    H234805   0.059   0.351   6.581 -0.1646  0.1087 -1.2276
 4464TIP3   OH234806   0.101   2.757   1.480 -0.1530 -0.5780  0.0824
 4464TIP3    H134807   0.073   2.848   1.492  0.3539 -0.2120 -1.3920
 4464TIP3    H234808   0.021   2.706   1.487 -0.7521  0.1767 -1.0819
 4465TIP3   OH234809   2.694   1.506  15.963 -0.3620  0.2452 -0.1640
 4465TIP3    H134810   2.774   1.481  15.916 -0.2070 -0.4937  0.4868
 4465TIP3    H234811   2.628   1.512  15.894  0.4038  1.6049 -0.8134
 4466TIP3   OH234812   5.482   4.766   3.313 -0.0665  0.2087  0.7932
 4466TIP3    H134813   5.412   4.818   3.273  0.4184  1.5331  1.6098
 4466TIP3    H234814   5.438   4.686   3.343 -0.7194 -0.1138 -0.9734
 4467TIP3   OH234815   3.056   3.958   3.531  0.0206  0.1056  0.5172
 4467TIP3    H134816   2.968   3.932   3.506 -0.0299  0.8260 -0.0637
 4467TIP3    H234817   3.070   3.917   3.616 -0.7877 -0.1873  0.5108
 4468TIP3   OH234818   4.055   6.617   4.047  0.6880  0.1158 -0.6564
 4468TIP3    H134819   4.007   6.618   4.130 -0.8927  0.9777 -1.5634
 4468TIP3    H234820   4.019   6.544   3.998  2.6397 -1.3190 -0.0470
 4469TIP3   OH234821   2.663   0.082   3.007  0.5175  0.3609 -0.1387
 4469TIP3    H134822   2.711   0.019   3.061  0.3045 -0.0442 -0.4298
 4469TIP3    H234823   2.704   0.166   3.028  1.1110  0.0674 -0.1032
 4470TIP3   OH234824   5.486   3.789  16.718  0.7645 -0.2182  0.0605
 4470TIP3    H134825   5.571   3.747  16.703  1.8295  2.1006 -0.6450
 4470TIP3    H234826   5.453   3.748  16.798  3.8152  0.7067  1.8915
 4471TIP3   OH234827   3.218   2.190  14.875 -0.1382  0.3330  0.1451
 4471TIP3    H134828   3.287   2.175  14.811 -2.1809 -0.9021 -1.8379
 4471TIP3    H234829   3.225   2.116  14.936 -0.6259 -0.5699 -0.8928
 4472TIP3   OH234830   0.873   2.692   3.270 -0.0134 -0.2186  0.2039
 4472TIP3    H134831   0.874   2.781   3.236  2.5840 -0.1662  0.3285
 4472TIP3    H234832   0.853   2.701   3.363 -3.5502 -0.1031 -0.4848
 4473TIP3   OH234833   2.703   0.087   0.947  0.3397 -0.1082  0.1046
 4473TIP3    H134834   2.775   0.104   1.008 -0.9351 -1.2136  1.9621
 4473TIP3    H234835   2.653   0.017   0.988 -3.8410  3.0142  0.6098
 4474TIP3   OH234836   5.112   1.430   5.188 -0.4818  0.4326  0.4557
 4474TIP3    H134837   5.169   1.426   5.265  0.3855  0.7186 -0.1783
 4474TIP3    H234838   5.063   1.347   5.191 -0.8611  0.6807  1.6256
 4475TIP3   OH234839   2.920   2.901   2.755 -0.2893 -0.0847 -0.4946
 4475TIP3    H134840   2.844   2.902   2.697  1.4181 -0.8123 -2.8508
 4475TIP3    H234841   2.932   2.992   2.781 -2.1987 -0.0289  0.2255
 4476TIP3   OH234842   0.983   0.159   0.719 -0.6201  0.3019 -0.1807
 4476TIP3    H134843   0.949   0.179   0.631  1.3040 -2.3165 -1.5956
 4476TIP3    H234844   0.905   0.132   0.768 -1.6274  1.0851 -1.2921
 4477TIP3   OH234845   6.447   1.903  13.022  0.6268  0.7102  0.5720
 4477TIP3    H134846   6.499   1.902  13.103  0.0093  0.9384  0.9703
 4477TIP3    H234847   6.425   1.811  13.007 -1.2451  0.9154  1.9458
 4478TIP3   OH234848   1.982   3.618   1.512 -0.4635  0.1401  0.2041
 4478TIP3    H134849   2.009   3.603   1.602  0.4182  0.9950  0.0970
 4478TIP3    H234850   1.891   3.646   1.518 -0.0484  1.3887  0.9417
 4479TIP3   OH234851   6.109   3.747   1.278  0.7207 -0.1700  0.0696
 4479TIP3    H134852   6.071   3.722   1.194  1.5434  1.1589 -0.7297
 4479TIP3    H234853   6.038   3.736   1.341  0.1638 -1.4150 -0.7516
 4480TIP3   OH234854   4.484   6.190   5.850  0.2154 -0.5279  0.3265
 4480TIP3    H134855   4.432   6.221   5.776 -1.4042  0.2054  1.7519
 4480TIP3    H234856   4.424   6.134   5.899 -0.2258  2.6734  3.6031
 4481TIP3   OH234857   1.068   2.587  12.653  0.2149 -0.0587  0.2053
 4481TIP3    H134858   1.152   2.542  12.661 -0.7813 -2.0441 -0.1838
 4481TIP3    H234859   1.087   2.664  12.599  1.8021 -0.4128  0.2300
 4482TIP3   OH234860   4.232   0.515   4.958 -0.4869 -0.5758  0.9776
 4482TIP3    H134861   4.187   0.572   4.895 -1.0822 -0.8988  1.1057
 4482TIP3    H234862   4.305   0.479   4.909  1.2793  2.0804  1.5431
 4483TIP3   OH234863   0.854   4.542   0.176  0.0034 -0.1216  0.1901
 4483TIP3    H134864   0.829   4.599   0.249 -2.0847 -0.0797 -0.5454
 4483TIP3    H234865   0.931   4.585   0.139 -1.4080  2.1442 -0.2313
 4484TIP3   OH234866   2.335   6.272   3.709  0.3087  0.3304 -0.4538
 4484TIP3    H134867   2.396   6.346   3.712 -1.6820  1.9589  0.9102
 4484TIP3    H234868   2.252   6.307   3.741 -2.2298 -1.0442 -5.0314
 4485TIP3   OH234869   1.553   3.602  17.011 -1.1317 -0.4309  0.8421
 4485TIP3    H134870   1.469   3.591  16.965 -0.0752  0.9469 -1.5075
 4485TIP3    H234871   1.532   3.656  17.087 -2.4505 -0.4371  0.4984
 4486TIP3   OH234872   6.126   4.746   3.459 -0.1196  0.4751  0.4835
 4486TIP3    H134873   6.138   4.824   3.405 -0.6286  0.3815  0.2249
 4486TIP3    H234874   6.189   4.756   3.530 -0.7387  1.5375  0.9140
 4487TIP3   OH234875   2.833   6.250  15.051  0.4665 -0.1514 -0.0480
 4487TIP3    H134876   2.779   6.172  15.064 -0.6702  0.3792 -1.5050
 4487TIP3    H234877   2.917   6.216  15.021  0.4596 -0.8986  0.7596
 4488TIP3   OH234878   1.788   0.199   5.008 -0.0879 -0.3270  0.1033
 4488TIP3    H134879   1.771   0.107   5.028 -1.6207 -0.3450 -1.1558
 4488TIP3    H234880   1.704   0.243   5.022  0.3720  0.7082 -0.2899
 4489TIP3   OH234881   0.327   4.688  12.171 -0.0332 -0.2349 -0.1892
 4489TIP3    H134882   0.303   4.664  12.260 -0.2188 -0.9391 -0.4211
 4489TIP3    H234883   0.409   4.737  12.180 -0.6427  0.6624  0.4570
 4490TIP3   OH234884   0.540   2.534   2.349  0.3110  0.3077 -0.0615
 4490TIP3    H134885   0.571   2.476   2.419 -1.7498  0.7993  1.3003
 4490TIP3    H234886   0.580   2.619   2.369 -0.9789  0.6701  1.0714
 4491TIP3   OH234887   5.808   6.506  17.029  0.4371  0.3974  0.6299
 4491TIP3    H134888   5.878   6.563  16.996 -0.3801  0.8311 -0.3901
 4491TIP3    H234889   5.781   6.547  17.112  0.5776  0.9101  0.4268
 4492TIP3   OH234890   5.608   3.021  16.919 -0.5391 -0.5500  0.3203
 4492TIP3    H134891   5.545   2.950  16.933 -1.0656  0.1092  1.3765
 4492TIP3    H234892   5.577   3.092  16.975  1.3948 -0.3727  1.2391
 4493TIP3   OH234893   2.719   4.511  16.257  0.1011  0.3062 -0.4444
 4493TIP3    H134894   2.667   4.565  16.198 -0.3746  0.6789  0.3151
 4493TIP3    H234895   2.701   4.421  16.228  0.3794  0.5194 -1.2828
 4494TIP3   OH234896   6.029   5.301   0.119 -0.8515  0.2639 -0.2248
 4494TIP3    H134897   5.955   5.242   0.129 -0.7653  0.0271 -1.0480
 4494TIP3    H234898   6.045   5.306   0.025 -0.5668  1.2308 -0.1330
 4495TIP3   OH234899   2.396   1.361   1.260 -0.0069 -0.0525  0.3669
 4495TIP3    H134900   2.395   1.315   1.177 -0.1495  0.5848  0.0129
 4495TIP3    H234901   2.488   1.361   1.287  0.2085  0.7494 -0.3556
 4496TIP3   OH234902   1.473   2.155  11.815  0.5765  0.9881 -0.4448
 4496TIP3    H134903   1.548   2.214  11.808 -0.1732  1.8168 -1.6334
 4496TIP3    H234904   1.403   2.210  11.849 -0.0385  0.6960 -1.2401
 4497TIP3   OH234905   1.354   4.833  16.678  0.4749 -0.0934  0.2138
 4497TIP3    H134906   1.414   4.903  16.705  0.9215 -0.7159  0.8556
 4497TIP3    H234907   1.410   4.772  16.630  0.0205  0.1585 -0.6379
 4498TIP3   OH234908   2.654   3.506   4.120  0.1223  0.8848 -0.8968
 4498TIP3    H134909   2.635   3.527   4.028 -1.6627  2.4520 -0.2011
 4498TIP3    H234910   2.570   3.479   4.156  0.7128  0.8004  0.4289
 4499TIP3   OH234911   6.094   4.288   3.253 -0.5249  0.1488  0.6488
 4499TIP3    H134912   6.095   4.326   3.341 -2.5579  1.5362  0.1323
 4499TIP3    H234913   6.043   4.351   3.202  1.2494 -0.2861 -1.6920
 4500TIP3   OH234914   5.689   1.085  10.657 -0.6716  0.4703  0.4529
 4500TIP3    H134915   5.746   1.119  10.587 -2.4601  2.3530 -0.1304
 4500TIP3    H234916   5.640   1.014  10.616 -0.3832  0.3517  0.3112
 4501TIP3   OH234917   5.735   3.206  11.027  0.2569 -0.1380 -0.4311
 4501TIP3    H134918   5.697   3.271  10.969 -0.9181 -0.6651 -0.2664
 4501TIP3    H234919   5.668   3.137  11.033  0.0338  0.2566  2.1402
 4502TIP3   OH234920   1.530   6.360   3.940 -0.6376 -0.3025 -0.0060
 4502TIP3    H134921   1.531   6.265   3.933  1.2992 -0.2371 -1.1061
 4502TIP3    H234922   1.489   6.390   3.859 -2.7415 -0.2276  1.0664
 4503TIP3   OH234923   2.127   6.070   4.202  0.1655 -0.3064  0.2878
 4503TIP3    H134924   2.124   6.163   4.182  0.7737  0.1126  2.1523
 4503TIP3    H234925   2.151   6.065   4.294 -0.3021 -2.2971  0.3249
 4504TIP3   OH234926   0.370   3.043  10.958 -0.1831 -0.3214  0.0053
 4504TIP3    H134927   0.358   3.009  10.870  2.0951  0.0544 -0.4854
 4504TIP3    H234928   0.463   3.028  10.977 -0.5170  0.0929  2.1337
 4505TIP3   OH234929   5.051   5.422  15.183 -0.6024 -0.2330  0.7849
 4505TIP3    H134930   5.001   5.390  15.109  0.9315 -0.5092 -0.1498
 4505TIP3    H234931   5.056   5.517  15.170  1.1821 -0.4578 -0.4746
 4506TIP3   OH234932   3.068   2.709  12.473 -0.2905  0.4572 -0.1828
 4506TIP3    H134933   3.110   2.639  12.423 -0.5054 -0.6604  1.1865
 4506TIP3    H234934   2.985   2.671  12.504 -0.0514  1.0431  1.2197
 4507TIP3   OH234935   2.102   2.585  17.176  0.2382 -0.2936  0.0549
 4507TIP3    H134936   2.013   2.549  17.175  0.4197 -0.8661  2.5051
 4507TIP3    H234937   2.148   2.535  17.108 -0.9509 -0.9550 -0.2764
 4508TIP3   OH234938   1.003   2.555  10.947  0.1057 -0.2757  0.5321
 4508TIP3    H134939   0.927   2.575  10.893 -0.3278 -0.5752  1.0250
 4508TIP3    H234940   1.061   2.631  10.937 -0.2789 -0.0255  0.1991
 4509TIP3   OH234941   4.236   5.716  11.749 -0.1623  0.0196 -0.1291
 4509TIP3    H134942   4.180   5.661  11.694 -0.3026 -0.0191  0.0518
 4509TIP3    H234943   4.179   5.787  11.778 -0.1276 -0.0362  0.0800
 4510TIP3   OH234944   3.463   0.850   3.730 -0.9669 -0.5739  0.1193
 4510TIP3    H134945   3.451   0.931   3.780  0.1629  0.7466 -1.6813
 4510TIP3    H234946   3.555   0.850   3.707 -1.5063 -1.0371 -2.1247
 4511TIP3   OH234947   1.053   2.255  15.883  0.3794  0.7181  0.8445
 4511TIP3    H134948   0.968   2.300  15.893 -0.2585 -0.7729  2.2285
 4511TIP3    H234949   1.042   2.203  15.803  0.3763  1.3696  0.4157
 4512TIP3   OH234950   1.097   5.072  14.071  0.6964 -0.4250 -0.0003
 4512TIP3    H134951   1.117   5.152  14.024 -0.6387 -0.6925 -1.0598
 4512TIP3    H234952   1.005   5.053  14.050  1.0340 -2.3179  0.0792
 4513TIP3   OH234953   2.263   3.286  16.095  0.3700 -0.3726  0.4774
 4513TIP3    H134954   2.225   3.267  16.181 -0.7869 -0.9641 -0.1368
 4513TIP3    H234955   2.357   3.294  16.111  0.2522 -1.1735  1.6886
 4514TIP3   OH234956   2.620   4.443  12.285 -0.6744 -0.5776  0.0319
 4514TIP3    H134957   2.610   4.498  12.207 -0.5650  1.3508  1.3557
 4514TIP3    H234958   2.714   4.424  12.288 -0.5833 -0.1370  0.0376
 4515TIP3   OH234959   5.167   6.197  12.471  0.4417  0.0884 -0.3017
 4515TIP3    H134960   5.133   6.285  12.454  0.3766  0.7521  2.9072
 4515TIP3    H234961   5.165   6.154  12.386 -1.2591  2.5911 -1.6059
 4516TIP3   OH234962   2.770   4.825  12.181  0.2911 -0.2863  0.1529
 4516TIP3    H134963   2.856   4.816  12.221  0.9656  2.0021 -0.6746
 4516TIP3    H234964   2.731   4.900  12.227 -0.2215  0.3061 -1.2358
 4517TIP3   OH234965   1.868   3.157   2.239 -0.0474 -0.1789 -0.2007
 4517TIP3    H134966   1.805   3.186   2.305 -1.0518 -1.8101 -0.3854
 4517TIP3    H234967   1.862   3.061   2.242  1.4473 -0.3139 -1.1794
 4518TIP3   OH234968   2.970   0.234   2.506 -0.2632  0.5299  0.8500
 4518TIP3    H134969   3.065   0.240   2.511 -0.3305  1.3360  1.1240
 4518TIP3    H234970   2.950   0.148   2.544  0.3459  0.4129  0.9121
 4519TIP3   OH234971   0.348   4.686  16.780  0.4009  0.1846  0.1176
 4519TIP3    H134972   0.317   4.723  16.862  2.1832  1.7147  0.1343
 4519TIP3    H234973   0.344   4.592  16.792 -0.1790  0.4001  1.6391
 4520TIP3   OH234974   3.299   6.471   6.449 -0.1623  0.2183  0.1771
 4520TIP3    H134975   3.206   6.458   6.467 -0.0483  0.0043  0.6091
 4520TIP3    H234976   3.306   6.564   6.429 -0.7471 -0.0681 -1.5441
 4521TIP3   OH234977   1.490   4.309   3.222 -0.1549  0.6382  0.3986
 4521TIP3    H134978   1.574   4.339   3.255  1.4528 -2.5554 -0.5908
 4521TIP3    H234979   1.456   4.253   3.292 -1.5218  1.9256  0.8056
 4522TIP3   OH234980   2.681   1.574  14.450  0.4075  0.3892 -0.2038
 4522TIP3    H134981   2.649   1.570  14.540  1.4659  0.9406  0.2088
 4522TIP3    H234982   2.633   1.505  14.404 -1.5145  1.3229  0.3436
 4523TIP3   OH234983   0.296   2.377  15.179 -0.5001 -0.0073  0.6274
 4523TIP3    H134984   0.288   2.446  15.246 -1.4150  1.1373 -0.6344
 4523TIP3    H234985   0.390   2.371  15.164 -0.3043 -0.0536  1.7839
 4524TIP3   OH234986   3.844   0.913  13.391 -0.3943 -0.6606 -0.3140
 4524TIP3    H134987   3.874   1.003  13.377 -0.4208 -0.7408 -0.9012
 4524TIP3    H234988   3.916   0.858  13.359  0.2418 -0.8480  1.4069
 4525TIP3   OH234989   0.105   4.452   4.766  0.0298  0.8815  0.5552
 4525TIP3    H134990   0.046   4.445   4.691  0.1327 -1.7906  0.6660
 4525TIP3    H234991   0.185   4.409   4.737  0.1697  0.0850  2.0753
 4526TIP3   OH234992   4.628   4.202  14.442 -0.4533  0.0133 -0.3977
 4526TIP3    H134993   4.651   4.188  14.534 -0.8724  1.7511 -0.0199
 4526TIP3    H234994   4.666   4.127  14.396 -0.4102 -0.9711  1.2142
 4527TIP3   OH234995   3.510   6.285   1.990 -0.1029 -0.6956  0.0889
 4527TIP3    H134996   3.460   6.351   2.039  0.3413 -0.0677 -0.2982
 4527TIP3    H234997   3.555   6.235   2.058 -0.0274 -0.2685  0.3587
 4528TIP3   OH234998   0.466   0.135   0.088 -0.5880 -0.9586 -0.5288
 4528TIP3    H134999   0.472   0.179   0.173  0.0453 -0.3744 -0.8714
 4528TIP3    H235000   0.548   0.086   0.080  0.0208  0.2061 -1.4707
 4529TIP3   OH235001   2.806   1.189   5.361  0.6148 -0.0500 -0.1129
 4529TIP3    H135002   2.889   1.235   5.376  1.7735 -2.3324  0.7477
 4529TIP3    H235003   2.748   1.221   5.429  2.0022 -1.2086  1.6722
 4530TIP3   OH235004   5.961   2.518  14.212  0.7304  0.3175  0.1042
 4530TIP3    H135005   5.896   2.583  14.186  0.2328 -0.0887  0.3535
 4530TIP3    H235006   6.021   2.566  14.269  0.3651  0.5633  0.2836
 4531TIP3   OH235007   0.504   1.906  12.018  0.7108 -0.3015  0.2505
 4531TIP3    H135008   0.526   1.841  11.951 -0.2374 -0.0741 -0.2906
 4531TIP3    H235009   0.563   1.979  12.001  1.1267 -0.6289  0.2663
 4532TIP3   OH235010   5.668   1.051  13.906  0.0389  0.1264  0.6218
 4532TIP3    H135011   5.729   1.015  13.842 -0.5961 -2.8719  1.6538
 4532TIP3    H235012   5.724   1.076  13.980  0.4383  1.0344  0.0322
 4533TIP3   OH235013   3.978   2.703  16.886 -0.2636  0.3021  0.0481
 4533TIP3    H135014   3.916   2.665  16.823 -1.0331 -1.0022  1.5622
 4533TIP3    H235015   3.946   2.793  16.899 -0.3259  0.4586 -1.1096
 4534TIP3   OH235016   2.942   6.422  15.662 -0.8637  0.1687 -0.2753
 4534TIP3    H135017   2.875   6.354  15.671 -1.0776  0.0769 -2.2162
 4534TIP3    H235018   2.897   6.493  15.615  0.3543  0.1727 -1.4509
 4535TIP3   OH235019   0.592   5.835   4.302 -0.2289  0.0543 -0.0669
 4535TIP3    H135020   0.498   5.846   4.286 -0.6378 -0.0982  2.1666
 4535TIP3    H235021   0.611   5.893   4.375  1.6282  0.7835 -1.1041
 4536TIP3   OH235022   4.081   4.951   2.351 -0.1946  0.1366  0.3517
 4536TIP3    H135023   4.140   5.020   2.380  0.6673 -0.8148  0.8739
 4536TIP3    H235024   4.003   4.961   2.406 -0.3351  1.0921 -0.0156
 4537TIP3   OH235025   1.119   0.461   4.002 -0.1724 -0.3333  0.8885
 4537TIP3    H135026   1.141   0.374   3.969  0.3688  0.3674 -0.6507
 4537TIP3    H235027   1.024   0.468   3.990  0.0017 -0.1190 -0.5012
 4538TIP3   OH235028   3.926   4.689  16.752 -0.1613 -0.2405 -0.3965
 4538TIP3    H135029   3.836   4.721  16.742  0.4497  1.5328 -0.3430
 4538TIP3    H235030   3.981   4.763  16.725  1.2919 -0.9633  0.5427
 4539TIP3   OH235031   1.183   6.193   2.134 -0.1586  0.2607  0.5120
 4539TIP3    H135032   1.161   6.147   2.215  1.0346  0.9472  1.2444
 4539TIP3    H235033   1.099   6.220   2.098 -0.7868 -1.2114  0.8194
 4540TIP3   OH235034   3.391   6.188  14.013  0.4429  0.2159  0.0278
 4540TIP3    H135035   3.301   6.185  14.046 -0.0529  1.5832 -1.1272
 4540TIP3    H235036   3.404   6.280  13.989  1.3289 -0.4446 -2.0775
 4541TIP3   OH235037   5.229   1.493  11.450 -0.0016  0.2726  0.5227
 4541TIP3    H135038   5.241   1.456  11.362  0.7781  0.3935  0.5689
 4541TIP3    H235039   5.146   1.458  11.480  0.2765 -0.6957  0.1885
 4542TIP3   OH235040   1.358   3.410   2.823 -1.0250 -0.3154  0.1327
 4542TIP3    H135041   1.353   3.487   2.768 -4.5897 -0.1241  0.5871
 4542TIP3    H235042   1.330   3.338   2.767  0.5936 -1.0234  0.2014
 4543TIP3   OH235043   2.625   4.036   2.990 -0.3880 -0.0016 -0.1717
 4543TIP3    H135044   2.627   4.000   2.902 -0.4347  0.7477 -0.4833
 4543TIP3    H235045   2.538   4.014   3.023 -0.0922 -0.9691 -0.0157
 4544TIP3   OH235046   2.500   3.798   2.211 -0.1975  0.2364 -0.0295
 4544TIP3    H135047   2.533   3.834   2.128 -2.2263  0.8806 -0.5636
 4544TIP3    H235048   2.470   3.710   2.188 -1.0806  0.5436 -0.0524
 4545TIP3   OH235049   5.126   4.959   3.771 -0.0196 -0.7910  0.5657
 4545TIP3    H135050   5.088   4.967   3.859  0.7233  2.1764  0.6738
 4545TIP3    H235051   5.199   5.020   3.771  1.0689 -2.0231 -1.5955
 4546TIP3   OH235052   3.240   1.189   5.097 -0.1249 -0.2853  0.2041
 4546TIP3    H135053   3.263   1.282   5.091 -0.1541 -0.3672 -1.5674
 4546TIP3    H235054   3.315   1.149   5.143 -0.0318  0.5721  0.8161
 4547TIP3   OH235055   1.583   0.817  13.431 -0.4472  0.0741 -0.1833
 4547TIP3    H135056   1.659   0.865  13.464 -0.1523  0.1294 -0.9303
 4547TIP3    H235057   1.583   0.735  13.479 -0.0300  0.1594 -0.0369
 4548TIP3   OH235058   2.305   2.124   0.825 -0.2082 -0.8407 -0.2900
 4548TIP3    H135059   2.286   2.165   0.740  3.2893  1.1498 -0.1935
 4548TIP3    H235060   2.242   2.164   0.885 -1.5550 -0.9621 -1.5741
 4549TIP3   OH235061   0.220   6.655   3.135  0.4950  0.7034  0.1122
 4549TIP3    H135062   0.125   6.646   3.123  0.2960  0.7809  1.5624
 4549TIP3    H235063   0.231   6.742   3.175  1.2764  1.1799 -1.1026
 4550TIP3   OH235064   2.427   4.623   1.053 -0.0271 -0.9826  0.4817
 4550TIP3    H135065   2.369   4.559   1.095  0.9510 -2.0495  0.2350
 4550TIP3    H235066   2.499   4.570   1.018  0.6897  0.2409  0.0965
 4551TIP3   OH235067   3.220   2.101   1.796 -0.3182  0.1282 -0.0724
 4551TIP3    H135068   3.200   2.048   1.873  1.8366 -0.4002  0.1631
 4551TIP3    H235069   3.307   2.071   1.769 -0.8087  0.7224 -2.3605
 4552TIP3   OH235070   0.545   0.557   0.961 -0.0114  0.0044 -0.9571
 4552TIP3    H135071   0.616   0.620   0.948 -2.4083  2.5870 -1.9512
 4552TIP3    H235072   0.589   0.472   0.964  3.3010  1.6913  0.3720
 4553TIP3   OH235073   1.033   4.150   5.097 -0.2942 -0.0870 -0.3100
 4553TIP3    H135074   0.969   4.083   5.123 -0.5250 -0.1563 -1.0304
 4553TIP3    H235075   0.982   4.231   5.090 -0.1584  0.0122 -0.1580
 4554TIP3   OH235076   1.473   2.289   3.164 -0.0153 -0.1730 -0.3058
 4554TIP3    H135077   1.436   2.333   3.241  2.0538  0.5206  0.3060
 4554TIP3    H235078   1.425   2.206   3.160  0.9417 -0.9551  2.7366
 4555TIP3   OH235079   5.590   2.327  15.302 -0.2423  0.1092  0.1353
 4555TIP3    H135080   5.561   2.416  15.281 -1.0066 -0.3484 -0.8437
 4555TIP3    H235081   5.508   2.276  15.305  0.0866 -0.3550  1.7598
 4556TIP3   OH235082   0.405   6.679   3.429 -0.5927 -0.7523  0.4298
 4556TIP3    H135083   0.311   6.660   3.426 -0.7419  0.1632 -0.9673
 4556TIP3    H235084   0.409   6.774   3.442  0.1053 -0.1762 -3.5128
 4557TIP3   OH235085   6.439   6.233   4.423 -0.2325 -0.4557 -0.0435
 4557TIP3    H135086   6.415   6.140   4.423  0.4967 -0.6574  0.8259
 4557TIP3    H235087   6.428   6.261   4.514  0.1844  0.1330 -0.1680
 4558TIP3   OH235088   5.201   6.502   2.930  0.1054 -0.4207  0.1382
 4558TIP3    H135089   5.290   6.500   2.964 -0.5218 -0.9477  1.8071
 4558TIP3    H235090   5.145   6.496   3.008 -1.3947  0.5983 -0.8239
 4559TIP3   OH235091   5.838   6.421   0.160  0.3892  0.1420  1.3838
 4559TIP3    H135092   5.745   6.420   0.182  0.2938  0.4841  0.9978
 4559TIP3    H235093   5.851   6.343   0.106  0.4269 -0.1707  1.8378
 4560TIP3   OH235094   2.847   1.940   1.427 -0.0935  0.3758 -0.5610
 4560TIP3    H135095   2.800   2.013   1.386 -0.9061 -0.8981 -1.9274
 4560TIP3    H235096   2.839   1.868   1.365  1.7989 -0.5246  0.2005
 4561TIP3   OH235097   1.293   2.490  15.860 -0.0274  0.0598 -0.1702
 4561TIP3    H135098   1.284   2.582  15.884  0.4011 -0.2300  1.1139
 4561TIP3    H235099   1.216   2.472  15.806 -0.5710  0.9271  0.3064
 4562TIP3   OH235100   3.105   6.557   3.451  0.2570 -0.3200  0.1339
 4562TIP3    H135101   3.124   6.486   3.512  0.0403 -0.3776  0.1353
 4562TIP3    H235102   3.106   6.636   3.506  2.2766 -0.0984 -0.1775
 4563TIP3   OH235103   1.367   0.416  14.504 -0.0034  0.9427  0.3897
 4563TIP3    H135104   1.304   0.437  14.573 -0.6212  2.7449 -0.6977
 4563TIP3    H235105   1.446   0.464  14.529  0.5484 -0.2748  1.0574
 4564TIP3   OH235106   4.110   0.713   1.847 -0.1831  0.0391  0.0231
 4564TIP3    H135107   4.021   0.679   1.838 -0.0875 -0.4181  0.7144
 4564TIP3    H235108   4.099   0.794   1.897  0.0557 -1.5283  2.7131
 4565TIP3   OH235109   3.371   0.479   1.310 -0.3833 -0.2586  0.9482
 4565TIP3    H135110   3.365   0.383   1.314  1.2981 -0.4568 -0.7754
 4565TIP3    H235111   3.435   0.496   1.242  1.7416  2.0288  3.3899
 4566TIP3   OH235112   5.130   6.559   4.670 -0.0387 -0.1474  0.0199
 4566TIP3    H135113   5.121   6.566   4.575 -1.3825  0.0877  0.1664
 4566TIP3    H235114   5.204   6.499   4.683  0.3915  0.1164 -1.1669
 4567TIP3   OH235115   2.494   4.049   0.505 -0.1280 -0.0051  0.2473
 4567TIP3    H135116   2.579   4.026   0.542 -0.3151 -0.7467  0.2156
 4567TIP3    H235117   2.478   4.138   0.538  1.8240  1.1636 -1.8251
 4568TIP3   OH235118   4.092   0.869   2.460 -0.0164  0.9188  0.1147
 4568TIP3    H135119   4.002   0.838   2.465 -0.3801  1.6797 -1.4060
 4568TIP3    H235120   4.143   0.802   2.505 -1.2200 -0.0162  0.1190
 4569TIP3   OH235121   4.011   4.317  12.743 -0.0474 -0.1825  0.1911
 4569TIP3    H135122   4.056   4.324  12.828 -0.3988  0.7636  0.3032
 4569TIP3    H235123   4.077   4.343  12.679 -0.0394 -0.0816  0.2418
 4570TIP3   OH235124   2.026   5.484   0.696 -0.5449 -0.1323 -0.4044
 4570TIP3    H135125   1.950   5.436   0.662  0.8526 -1.5314 -1.6059
 4570TIP3    H235126   2.080   5.501   0.619  0.9026 -0.1087  0.5925
 4571TIP3   OH235127   0.790   0.693   2.423 -0.2665  0.4432 -0.1746
 4571TIP3    H135128   0.805   0.786   2.443  1.8763  0.2729 -0.8115
 4571TIP3    H235129   0.786   0.691   2.327  0.0771 -0.1777 -0.1729
 4572TIP3   OH235130   1.518   5.060  15.460  0.6452 -0.2271 -0.0591
 4572TIP3    H135131   1.547   5.006  15.387  1.1458 -0.0974  0.0417
 4572TIP3    H235132   1.541   5.149  15.434  0.3362 -0.1236  0.0234
 4573TIP3   OH235133   2.455   4.679   5.131 -0.1364  0.1383  0.3996
 4573TIP3    H135134   2.362   4.668   5.151 -0.5596 -0.4563 -1.7974
 4573TIP3    H235135   2.458   4.748   5.065  0.8777 -0.5474 -0.2930
 4574TIP3   OH235136   4.388   5.896   1.205 -0.2156 -0.2562 -0.6832
 4574TIP3    H135137   4.405   5.817   1.153 -1.0024  0.5880 -2.2461
 4574TIP3    H235138   4.460   5.955   1.184  0.1858 -0.4147  0.2210
 4575TIP3   OH235139   0.942   6.169  15.779 -0.2402 -0.7221  0.3001
 4575TIP3    H135140   0.913   6.097  15.835 -1.4989 -0.3560  0.1291
 4575TIP3    H235141   0.925   6.248  15.829  1.2429 -0.5297  0.5289
 4576TIP3   OH235142   2.611   5.200   2.898 -0.1293  0.0077  0.4330
 4576TIP3    H135143   2.698   5.168   2.921 -0.2167 -1.3004 -1.0106
 4576TIP3    H235144   2.594   5.271   2.960  1.1971 -0.9418  1.8928
 4577TIP3   OH235145   3.476   1.359   2.468 -0.5721  0.1272 -0.0109
 4577TIP3    H135146   3.530   1.330   2.542 -0.0197  1.8039  0.2597
 4577TIP3    H235147   3.524   1.329   2.391 -0.0791  0.1886  0.2687
 4578TIP3   OH235148   6.689   4.002   2.241  0.1178 -0.5822  0.4020
 4578TIP3    H135149   6.635   3.926   2.220  0.0607 -0.4330 -0.0006
 4578TIP3    H235150   6.695   4.051   2.159  2.7774 -1.7682 -0.1607
 4579TIP3   OH235151   2.659   4.528  14.499  0.1031 -0.5884  0.9982
 4579TIP3    H135152   2.620   4.614  14.515 -0.6265 -0.7422  0.0998
 4579TIP3    H235153   2.639   4.478  14.578 -0.4549 -0.2813  1.0539
 4580TIP3   OH235154   0.623   3.700   0.284 -0.0222  0.3549  0.0142
 4580TIP3    H135155   0.691   3.736   0.228 -1.6468  1.5355 -1.2127
 4580TIP3    H235156   0.606   3.769   0.348  0.8817 -0.4749  1.1783
 4581TIP3   OH235157   1.860   2.934  10.821 -0.5376  0.4951  0.1470
 4581TIP3    H135158   1.887   2.988  10.746  0.8080  1.0612  1.0179
 4581TIP3    H235159   1.929   2.947  10.886 -1.2467 -0.6814  1.1599
 4582TIP3   OH235160   1.363   4.912   1.504  0.0033 -0.4546  0.0298
 4582TIP3    H135161   1.270   4.891   1.509 -0.1357 -0.1404 -0.9818
 4582TIP3    H235162   1.392   4.919   1.595 -1.1254  0.1435  0.3505
 4583TIP3   OH235163   2.122   3.761   5.903  0.4531  0.1782  0.6164
 4583TIP3    H135164   2.037   3.788   5.868  0.8842  0.8813  0.0671
 4583TIP3    H235165   2.159   3.842   5.940  1.0548 -0.0281  0.4723
 4584TIP3   OH235166   4.625   0.585   5.299  0.1687  0.0855  0.1564
 4584TIP3    H135167   4.538   0.549   5.316 -1.0054  2.5746 -0.4447
 4584TIP3    H235168   4.630   0.591   5.204  2.1389 -2.6579 -0.0037
 4585TIP3   OH235169   4.374   3.473   5.737  0.1485  0.1499 -0.0989
 4585TIP3    H135170   4.417   3.443   5.817  0.2407 -0.0240 -0.2112
 4585TIP3    H235171   4.378   3.569   5.742  0.2239  0.1386  0.0661
 4586TIP3   OH235172   1.222   3.544  13.462 -0.3825 -0.1998  0.4952
 4586TIP3    H135173   1.293   3.491  13.497 -0.0399  0.1189  0.2970
 4586TIP3    H235174   1.174   3.486  13.403 -0.8552 -0.6828  1.3587
 4587TIP3   OH235175   2.743   4.704   2.637 -0.0049  0.0262 -0.1548
 4587TIP3    H135176   2.733   4.705   2.542 -1.9112 -0.4197  0.0266
 4587TIP3    H235177   2.818   4.646   2.653 -0.4917 -0.9361 -1.3203
 4588TIP3   OH235178   4.190   0.857   2.805 -0.0919  0.1629  0.1599
 4588TIP3    H135179   4.211   0.928   2.743 -0.0682 -0.2039 -0.2566
 4588TIP3    H235180   4.121   0.894   2.860  2.2091  1.6607  2.0892
 4589TIP3   OH235181   0.337   2.992  16.588 -0.3362  0.1786  0.3715
 4589TIP3    H135182   0.421   2.992  16.633 -0.5116  0.4127  0.7003
 4589TIP3    H235183   0.280   3.045  16.643 -0.5364  0.5225 -0.1551
 4590TIP3   OH235184   3.778   3.940   4.310  0.3116 -0.2817  0.1310
 4590TIP3    H135185   3.771   4.002   4.382 -0.2914  0.4853 -0.5864
 4590TIP3    H235186   3.782   3.994   4.231 -0.2931 -1.1480 -0.5055
 4591TIP3   OH235187   0.156   6.627  16.805 -0.0732  0.2148 -0.1849
 4591TIP3    H135188   0.242   6.585  16.800 -0.4213 -0.7390  1.4090
 4591TIP3    H235189   0.096   6.560  16.771 -0.5802 -0.4448  1.9689
 4592TIP3   OH235190   6.702   1.428  16.312 -0.6477 -0.0626 -0.0107
 4592TIP3    H135191   6.740   1.364  16.252 -0.0579 -0.4477  0.7605
 4592TIP3    H235192   6.610   1.403  16.320 -1.1316  0.9768 -2.0199
 4593TIP3   OH235193   0.978   0.198  14.170 -0.0326  0.0961  0.7802
 4593TIP3    H135194   0.998   0.194  14.077 -0.4483 -2.1793  0.7597
 4593TIP3    H235195   1.037   0.266  14.204  0.8674  0.2119 -0.9463
 4594TIP3   OH235196   6.019   4.383   6.006  0.3615 -0.1038  0.4504
 4594TIP3    H135197   6.112   4.364   5.996  0.4652  0.4692  0.3091
 4594TIP3    H235198   5.975   4.306   5.971  0.7605  0.3394 -1.0609
 4595TIP3   OH235199   2.460   6.664   0.058  0.3779 -0.2363  0.1722
 4595TIP3    H135200   2.554   6.649   0.049  0.3316 -0.4515  0.0259
 4595TIP3    H235201   2.426   6.580   0.090  0.1295 -0.4106 -0.5423
 4596TIP3   OH235202   2.663   6.752  11.259  0.1424 -0.5653 -0.5501
 4596TIP3    H135203   2.690   6.818  11.323  0.9018  0.7995 -2.2315
 4596TIP3    H235204   2.575   6.728  11.285  0.8816 -0.9507  1.7313
 4597TIP3   OH235205   0.031   5.577   2.973 -0.7282  0.4550  0.3738
 4597TIP3    H135206   0.004   5.487   2.992  0.5756  0.0090  0.1143
 4597TIP3    H235207   0.019   5.586   2.879  1.4809 -0.2448  0.0057
 4598TIP3   OH235208   2.812   3.914  12.523 -0.1267  0.0036 -0.0728
 4598TIP3    H135209   2.744   3.980  12.506 -0.4600  0.4158  2.6732
 4598TIP3    H235210   2.809   3.857  12.446 -2.9857  0.5286 -0.4376
 4599TIP3   OH235211   5.278   1.519  14.255 -0.2663  0.1239 -0.5197
 4599TIP3    H135212   5.301   1.583  14.322  1.6695 -1.0061 -0.0477
 4599TIP3    H235213   5.229   1.569  14.190 -0.8509  1.5604  0.9752
 4600TIP3   OH235214   2.108   3.364   0.954  0.5651 -0.3562  0.7706
 4600TIP3    H135215   2.192   3.365   0.908  0.1249  0.3222 -0.0269
 4600TIP3    H235216   2.121   3.419   1.031  1.1369 -1.0354  1.1653
 4601TIP3   OH235217   3.029   1.084  14.956 -0.1064  0.1981 -0.3501
 4601TIP3    H135218   3.061   0.997  14.931  0.0132 -0.0960  0.7824
 4601TIP3    H235219   3.009   1.127  14.873 -1.0731 -1.2546 -0.8900
 4602TIP3   OH235220   2.101   3.923  13.843 -0.3482 -0.7312  0.8683
 4602TIP3    H135221   2.058   3.865  13.780 -0.2282  0.2999 -0.1938
 4602TIP3    H235222   2.189   3.886  13.853 -0.4559 -1.0545  0.6270
 4603TIP3   OH235223   0.938   0.593  13.978 -0.0336  0.1232 -0.4875
 4603TIP3    H135224   1.002   0.664  13.985  1.7776 -1.5273  0.1483
 4603TIP3    H235225   0.985   0.515  14.008 -2.2209 -1.2158 -0.4225
 4604TIP3   OH235226   1.666   4.093   5.050 -0.4558  0.6077 -0.8353
 4604TIP3    H135227   1.744   4.115   5.101 -1.7789  3.2674  0.1172
 4604TIP3    H235228   1.697   4.087   4.960  0.8183  1.9233 -0.5010
 4605TIP3   OH235229   3.165   5.443   2.502 -0.9334  0.4334 -0.4497
 4605TIP3    H135230   3.221   5.485   2.436 -0.6194  1.3821  0.4009
 4605TIP3    H235231   3.077   5.449   2.466 -0.6407  0.0173 -1.2502
 4606TIP3   OH235232   3.351   6.457  12.917  0.1870 -0.7867 -0.3562
 4606TIP3    H135233   3.419   6.404  12.875 -0.5567 -2.8787  1.0108
 4606TIP3    H235234   3.400   6.525  12.964  1.3460 -2.0368  0.3066
 4607TIP3   OH235235   4.342   3.406  13.362 -0.2171 -0.5129 -0.0317
 4607TIP3    H135236   4.258   3.399  13.316 -1.8391  0.0757  2.7665
 4607TIP3    H235237   4.356   3.500  13.370 -0.4542 -0.6127  1.5729
 4608TIP3   OH235238   2.892   3.822   3.046  0.3728 -0.1665 -0.4425
 4608TIP3    H135239   2.899   3.797   2.953  0.1706 -0.7289 -0.3105
 4608TIP3    H235240   2.977   3.801   3.083  1.0575  1.7189 -0.8827
 4609TIP3   OH235241   0.180   5.009   1.128 -0.3620 -0.6213  0.2245
 4609TIP3    H135242   0.119   4.949   1.087 -0.4194 -0.3865 -0.0332
 4609TIP3    H235243   0.141   5.095   1.117 -0.1167 -0.4994  0.2955
 4610TIP3   OH235244   4.441   5.886  16.825 -0.4910 -0.2788 -0.0465
 4610TIP3    H135245   4.362   5.885  16.879 -0.1053 -0.4832  0.5183
 4610TIP3    H235246   4.439   5.802  16.778 -0.8713 -0.0614 -0.4245
 4611TIP3   OH235247   6.227   1.726   6.107  0.6017  0.2615  0.0608
 4611TIP3    H135248   6.270   1.795   6.158 -0.9957  0.4361  1.2040
 4611TIP3    H235249   6.235   1.756   6.016  0.1305  1.8555  0.5221
 4612TIP3   OH235250   5.147   6.333  13.672  0.7497 -0.0886 -0.0529
 4612TIP3    H135251   5.222   6.383  13.703  1.0884 -1.3562  1.2502
 4612TIP3    H235252   5.115   6.287  13.750 -0.0459 -1.2319 -1.0317
 4613TIP3   OH235253   2.917   6.597   0.919 -0.0207 -0.1469  0.2319
 4613TIP3    H135254   2.882   6.646   0.845  0.3849  0.4833  0.4499
 4613TIP3    H235255   2.891   6.648   0.996 -3.4109 -2.5915  0.7905
 4614TIP3   OH235256   1.346   0.084  10.676 -0.6931 -0.6141 -1.0112
 4614TIP3    H135257   1.436   0.115  10.685 -0.6957 -0.9639  0.4843
 4614TIP3    H235258   1.318   0.114  10.590 -0.1101  2.0151 -0.3243
 4615TIP3   OH235259   0.671   1.609   5.484 -0.1534  0.2428  0.4976
 4615TIP3    H135260   0.689   1.697   5.452 -1.2055  1.1132  2.1630
 4615TIP3    H235261   0.730   1.552   5.435 -1.1138  1.5706 -2.3325
 4616TIP3   OH235262   0.731   2.587   6.710  0.2325 -0.1311  0.8122
 4616TIP3    H135263   0.698   2.672   6.739  0.8672  0.1821  0.6113
 4616TIP3    H235264   0.824   2.588   6.731  0.7612  0.2050 -1.4662
 4617TIP3   OH235265   4.980   5.426   0.739 -0.3981 -0.1920  0.3247
 4617TIP3    H135266   5.069   5.456   0.720 -0.3054 -0.7832 -0.1753
 4617TIP3    H235267   4.969   5.443   0.833  0.6390 -1.1436  0.6261
 4618TIP3   OH235268   3.532   0.600   4.902 -0.3405  0.1687 -0.2003
 4618TIP3    H135269   3.574   0.559   4.978  0.0020  1.8042  0.5293
 4618TIP3    H235270   3.500   0.684   4.935 -3.0082 -0.4536 -1.1072
 4619TIP3   OH235271   3.835   5.429  11.861 -0.0037 -0.4762  0.1822
 4619TIP3    H135272   3.808   5.441  11.770 -0.3700 -0.4773  0.2902
 4619TIP3    H235273   3.921   5.389  11.855  0.4195  0.4776 -0.1670
 4620TIP3   OH235274   1.794   6.440  13.281  0.2591  0.0056 -0.3030
 4620TIP3    H135275   1.782   6.357  13.327  1.7386  1.6560  3.2917
 4620TIP3    H235276   1.706   6.463  13.250 -0.1136 -2.9912 -1.6714
 4621TIP3   OH235277   0.594   4.500   5.387 -0.1431 -0.3770  0.5232
 4621TIP3    H135278   0.564   4.447   5.460  1.2558  0.0958  1.4654
 4621TIP3    H235279   0.543   4.469   5.312 -1.1271 -1.3081  1.5595
 4622TIP3   OH235280   0.349   4.886   3.178  0.3429  0.1522 -0.5929
 4622TIP3    H135281   0.425   4.874   3.121  0.0288  0.0756 -0.9880
 4622TIP3    H235282   0.288   4.817   3.153 -0.7141  1.4586 -1.6601
 4623TIP3   OH235283   4.205   1.654  11.397  0.2572 -0.1170  0.6294
 4623TIP3    H135284   4.162   1.575  11.362 -0.5363  0.4498  0.3182
 4623TIP3    H235285   4.281   1.667  11.339  1.1194 -1.3735  1.4439
 4624TIP3   OH235286   0.496   5.270  13.404  0.3358  0.3946  0.0221
 4624TIP3    H135287   0.564   5.259  13.338  1.6217  1.8296  1.0940
 4624TIP3    H235288   0.457   5.355  13.384 -0.1193  0.2656  0.3615
 4625TIP3   OH235289   5.458   2.730  12.713  0.1194 -0.4996 -0.3265
 4625TIP3    H135290   5.401   2.656  12.735 -0.7159  0.4625  0.8341
 4625TIP3    H235291   5.478   2.718  12.621 -0.2701 -1.9987 -0.2317
 4626TIP3   OH235292   1.642   1.088   5.450 -0.2156 -0.3233  0.3591
 4626TIP3    H135293   1.618   1.121   5.363  0.1061  0.1119  0.4346
 4626TIP3    H235294   1.735   1.109   5.459 -0.2421 -0.3957  0.8001
 4627TIP3   OH235295   4.481   5.776  14.344 -0.5459 -0.0537  0.7834
 4627TIP3    H135296   4.470   5.868  14.320 -0.4514 -0.2303  0.0435
 4627TIP3    H235297   4.403   5.733  14.308 -0.9037 -0.1638  1.6785
 4628TIP3   OH235298   2.865   0.540  15.521  0.3951  0.1174  0.0326
 4628TIP3    H135299   2.824   0.475  15.578  0.0464  0.9013  0.6885
 4628TIP3    H235300   2.841   0.513  15.433  0.9157 -1.0943  0.2532
 4629TIP3   OH235301   2.673   2.587   5.842 -0.5381 -0.1888 -0.0802
 4629TIP3    H135302   2.707   2.616   5.926 -1.4630  1.4880 -0.2506
 4629TIP3    H235303   2.623   2.508   5.861 -0.1246 -0.2333  0.8223
 4630TIP3   OH235304   6.122   2.281   2.423  0.3077  0.4408  0.1152
 4630TIP3    H135305   6.205   2.329   2.423  0.7035 -0.2264  0.5363
 4630TIP3    H235306   6.128   2.223   2.347  0.5317 -0.1096  0.5468
 4631TIP3   OH235307   4.007   3.438   4.535  0.2293  0.0928 -0.5449
 4631TIP3    H135308   4.017   3.373   4.604  0.7366  0.1053 -0.6028
 4631TIP3    H235309   4.095   3.446   4.497  0.2851  1.1918 -0.1994
 4632TIP3   OH235310   3.453   1.106  15.235  0.2229 -0.0693  0.2237
 4632TIP3    H135311   3.500   1.164  15.295  1.7544 -1.1903  0.1441
 4632TIP3    H235312   3.452   1.153  15.152  1.0082  0.0751  0.2862
 4633TIP3   OH235313   1.160   2.480   3.751 -0.3869 -0.3706 -0.2921
 4633TIP3    H135314   1.079   2.467   3.801  0.2069  0.0056  0.8048
 4633TIP3    H235315   1.189   2.392   3.729 -0.6960 -0.5399 -0.0278
 4634TIP3   OH235316   1.877   0.442  12.425  0.2273  0.4012 -0.5530
 4634TIP3    H135317   1.963   0.400  12.433 -0.2218 -0.3161  0.5291
 4634TIP3    H235318   1.815   0.369  12.417 -0.3790  0.8972 -0.4004
 4635TIP3   OH235319   1.879   4.907  15.415 -0.2871  0.3154  0.0786
 4635TIP3    H135320   1.968   4.876  15.430 -1.1293 -1.9017  0.7490
 4635TIP3    H235321   1.842   4.915  15.503 -1.6067 -1.5452 -0.2692
 4636TIP3   OH235322   1.584   1.271   3.721 -0.6963  0.6301  0.3516
 4636TIP3    H135323   1.598   1.346   3.663  4.2205  0.1842  0.7638
 4636TIP3    H235324   1.592   1.307   3.810 -0.7209  0.0273  0.6039
 4637TIP3   OH235325   2.854   5.079   4.875 -0.6235 -0.2730 -0.1970
 4637TIP3    H135326   2.901   5.078   4.959 -2.3644  0.9209  0.8297
 4637TIP3    H235327   2.905   5.022   4.818 -0.1867 -2.2997  2.1144
 4638TIP3   OH235328   1.804   2.146   4.183  0.3677 -0.0992  0.2463
 4638TIP3    H135329   1.894   2.115   4.194  0.4623  0.2049  0.3217
 4638TIP3    H235330   1.808   2.240   4.202 -0.3410 -0.4435  2.1922
 4639TIP3   OH235331   2.855   4.675  11.705  0.3769  0.3147  0.0172
 4639TIP3    H135332   2.939   4.700  11.667  0.4708  0.2553  0.1900
 4639TIP3    H235333   2.818   4.758  11.737  0.9754  0.1427  1.1705
 4640TIP3   OH235334   1.085   2.201   3.339  0.3024 -0.2277  0.3650
 4640TIP3    H135335   1.078   2.213   3.434 -3.8642 -0.7196  0.2261
 4640TIP3    H235336   1.053   2.283   3.302 -2.3998 -1.6350 -0.5536
 4641TIP3   OH235337   1.673   2.746  16.372 -0.0897  0.2034  0.4184
 4641TIP3    H135338   1.698   2.717  16.284  0.9798  1.8741  0.1506
 4641TIP3    H235339   1.745   2.804  16.399 -1.6285  1.6844  1.3855
 4642TIP3   OH235340   1.754   1.296   2.277  0.2704 -0.4202 -0.1759
 4642TIP3    H135341   1.739   1.292   2.182  0.2665 -0.9793 -0.1542
 4642TIP3    H235342   1.700   1.225   2.312 -1.0007  0.8151  0.4027
 4643TIP3   OH235343   4.503   4.013  12.292 -0.4111  0.0398 -0.1499
 4643TIP3    H135344   4.409   3.999  12.302 -0.3243  0.3207  1.1037
 4643TIP3    H235345   4.515   4.106  12.311  0.4567 -0.5392  2.3032
 4644TIP3   OH235346   3.398   4.374   2.012 -0.4715  0.2805 -0.3878
 4644TIP3    H135347   3.353   4.355   1.930  0.8585 -0.4590 -0.9730
 4644TIP3    H235348   3.398   4.469   2.019 -1.7964  0.2958 -0.5531
 4645TIP3   OH235349   0.909   2.489   3.909  0.0160 -0.1322 -0.7523
 4645TIP3    H135350   0.815   2.471   3.908  0.4717 -2.7186 -0.8157
 4645TIP3    H235351   0.916   2.580   3.940 -2.5287  0.4366 -1.7002
 4646TIP3   OH235352   4.887   0.754   3.525 -0.3089  0.2558  0.3347
 4646TIP3    H135353   4.907   0.836   3.479 -1.3689  0.5396  0.3826
 4646TIP3    H235354   4.860   0.782   3.612 -0.0037 -0.1918  0.5738
 4647TIP3   OH235355   1.256   0.281   3.632  0.1436  0.4223  0.8899
 4647TIP3    H135356   1.241   0.248   3.721 -0.0727 -0.0207  0.6942
 4647TIP3    H235357   1.266   0.202   3.579 -1.3189  0.6542  0.2499
 4648TIP3   OH235358   1.063   5.871   4.306  0.0035 -0.5435 -0.2986
 4648TIP3    H135359   1.156   5.854   4.300 -0.0215 -0.2317 -1.7921
 4648TIP3    H235360   1.023   5.785   4.318  0.4421 -0.7388 -0.2464
 4649TIP3   OH235361   0.320   5.797   5.660 -0.3100  0.6298 -0.2349
 4649TIP3    H135362   0.385   5.731   5.683 -0.3111  0.7702  0.1826
 4649TIP3    H235363   0.369   5.866   5.616 -0.1605  0.7771  0.1608
 4650TIP3   OH235364   0.460   4.567   3.434 -0.4812 -0.2338 -0.4059
 4650TIP3    H135365   0.481   4.474   3.427 -0.8954 -0.4034  0.6035
 4650TIP3    H235366   0.543   4.612   3.413 -0.5542 -0.7978 -1.9429
 4651TIP3   OH235367   0.791   4.172   0.336 -0.5085 -0.2590  0.1104
 4651TIP3    H135368   0.730   4.112   0.292  0.5934 -1.5593  0.3228
 4651TIP3    H235369   0.872   4.166   0.286  0.3518 -0.7750  1.5225
 4652TIP3   OH235370   6.572   4.856  13.319 -0.3587  0.3424 -0.2906
 4652TIP3    H135371   6.562   4.942  13.359 -0.0045 -0.0273  0.6176
 4652TIP3    H235372   6.541   4.867  13.229 -0.6337  1.3298 -0.0801
 4653TIP3   OH235373   0.520   0.206  16.279 -0.2445  0.5006  0.2587
 4653TIP3    H135374   0.430   0.185  16.301  0.7106 -2.4601  1.6395
 4653TIP3    H235375   0.560   0.234  16.361  0.2571  1.2334 -0.2256
 4654TIP3   OH235376   4.721   1.915   3.330  0.3912  0.3402 -0.0869
 4654TIP3    H135377   4.735   2.009   3.320 -1.0730  0.3904 -1.8257
 4654TIP3    H235378   4.722   1.881   3.241 -0.9790 -1.0084  0.3993
 4655TIP3   OH235379   3.612   0.783   1.865  0.6032  0.3549 -0.1402
 4655TIP3    H135380   3.539   0.750   1.814  1.9554 -0.7833 -1.3632
 4655TIP3    H235381   3.634   0.867   1.824  0.4690  0.3392 -0.2439
 4656TIP3   OH235382   2.583   3.569  11.456  1.1102  0.9186  0.1347
 4656TIP3    H135383   2.603   3.640  11.518  2.1762  0.2863  0.5216
 4656TIP3    H235384   2.506   3.526  11.493  0.4021  1.9257 -0.1474
 4657TIP3   OH235385   6.429   0.624  16.175 -0.0703  0.2705  0.0581
 4657TIP3    H135386   6.375   0.693  16.212 -0.9150  0.0779 -0.8152
 4657TIP3    H235387   6.512   0.630  16.223  0.4032  2.8347 -1.0200
 4658TIP3   OH235388   1.160   4.732  16.832 -0.1763  0.3484 -0.2425
 4658TIP3    H135389   1.230   4.768  16.777  0.0096  0.4959  0.0904
 4658TIP3    H235390   1.199   4.654  16.872  0.8226  2.1359  2.3517
 4659TIP3   OH235391   4.430   4.348  12.765 -0.4540 -0.5482  0.1742
 4659TIP3    H135392   4.476   4.402  12.701 -2.0503 -1.0214 -1.4010
 4659TIP3    H235393   4.477   4.265  12.764  3.3700  1.3333  4.1646
 4660TIP3   OH235394   2.117   6.271  15.287  0.5501  0.3516 -0.0862
 4660TIP3    H135395   2.126   6.280  15.382 -0.6318  1.1247 -0.0417
 4660TIP3    H235396   2.042   6.213  15.275 -0.4491  1.7212 -0.5582
 4661TIP3   OH235397   2.221   5.960   1.697 -0.1401 -0.7973 -0.0155
 4661TIP3    H135398   2.142   5.976   1.749  1.6648  0.1295  2.5824
 4661TIP3    H235399   2.255   6.048   1.678  1.7529 -1.2007  1.3507
 4662TIP3   OH235400   2.382   4.963  14.843  0.7359  0.2889  0.1624
 4662TIP3    H135401   2.329   5.024  14.792 -0.1598 -0.3122  0.3699
 4662TIP3    H235402   2.460   5.013  14.866  0.8129  0.7992 -1.1649
 4663TIP3   OH235403   2.276   6.698  17.069 -0.1220 -0.3353 -0.1405
 4663TIP3    H135404   2.339   6.702  17.140 -0.6081 -1.0813  0.3425
 4663TIP3    H235405   2.224   6.620  17.088  0.2114 -0.9562 -1.7048
 4664TIP3   OH235406   3.160   2.212   2.702  0.1986  0.2875 -0.0098
 4664TIP3    H135407   3.170   2.296   2.658 -1.0553 -0.1554 -1.1578
 4664TIP3    H235408   3.122   2.154   2.636 -0.3380 -0.7818  1.2101
 4665TIP3   OH235409   1.312   1.242   2.711 -0.3569 -0.3584 -0.1420
 4665TIP3    H135410   1.380   1.176   2.728  0.8540  0.2612 -2.3119
 4665TIP3    H235411   1.325   1.265   2.619 -0.5232  3.1596  0.6653
 4666TIP3   OH235412   2.543   0.928   2.049 -0.0866  0.1338  0.3923
 4666TIP3    H135413   2.507   0.861   1.990  0.4834 -0.8589  1.1547
 4666TIP3    H235414   2.635   0.936   2.023  0.3256 -0.7531  1.5374
 4667TIP3   OH235415   0.500   5.157  10.355  0.3916 -0.1161 -0.3857
 4667TIP3    H135416   0.573   5.105  10.389 -0.6225 -0.1063  1.9232
 4667TIP3    H235417   0.421   5.112  10.386 -0.5310  1.4151 -0.4216
 4668TIP3   OH235418   5.018   5.247   3.590 -0.1936 -0.1473 -0.1008
 4668TIP3    H135419   5.113   5.255   3.585 -0.0906 -0.6783  0.9323
 4668TIP3    H235420   4.988   5.269   3.502  0.8015  1.1318 -0.1451
 4669TIP3   OH235421   5.686   4.505  16.845  0.3351 -0.1888  0.2055
 4669TIP3    H135422   5.650   4.462  16.922  0.2907  0.5559  0.6060
 4669TIP3    H235423   5.719   4.434  16.790  0.6200 -0.6992  1.0367
 4670TIP3   OH235424   6.301   2.234  15.726  0.6958 -0.0371 -0.3968
 4670TIP3    H135425   6.310   2.321  15.764  1.9196 -0.6204  0.7019
 4670TIP3    H235426   6.229   2.194  15.774  0.8286 -0.0037 -0.1667
 4671TIP3   OH235427   0.229   3.275   0.926  0.0450  0.2259 -0.1843
 4671TIP3    H135428   0.216   3.360   0.884 -1.2315  0.4847  0.7098
 4671TIP3    H235429   0.141   3.236   0.929  0.5798 -1.0189 -0.3581
 4672TIP3   OH235430   0.499   0.958  12.277 -0.1141  0.2886 -0.6041
 4672TIP3    H135431   0.406   0.977  12.288 -0.0737  1.0894 -1.5849
 4672TIP3    H235432   0.516   0.975  12.184  0.7468 -0.9878 -0.6965
 4673TIP3   OH235433   3.368   6.747   5.483 -0.6525 -0.4454  0.2607
 4673TIP3    H135434   3.425   6.815   5.446 -1.4197 -0.1715 -0.4093
 4673TIP3    H235435   3.407   6.729   5.569 -1.1044  1.6698  0.9463
 4674TIP3   OH235436   0.544   5.245  12.018 -0.7584 -0.2055  0.1694
 4674TIP3    H135437   0.603   5.318  11.996 -0.7105 -0.4755 -0.6492
 4674TIP3    H235438   0.479   5.283  12.076 -0.9118  0.5772 -0.4945
 4675TIP3   OH235439   0.862   1.789  12.354 -0.3161  0.3423 -0.6516
 4675TIP3    H135440   0.845   1.852  12.424 -2.0111  0.0999 -0.8173
 4675TIP3    H235441   0.796   1.721  12.366  1.2579 -1.2371 -0.6982
 4676TIP3   OH235442   0.071   4.030   0.997 -0.2061 -0.0480  0.7184
 4676TIP3    H135443   0.037   3.954   0.950 -0.4412  0.0665  0.7041
 4676TIP3    H235444   0.164   4.011   1.009 -0.4346 -0.7236  1.4584
 4677TIP3   OH235445   3.884   0.522  11.752 -0.8174  0.6625 -0.4091
 4677TIP3    H135446   3.895   0.491  11.841 -1.9267  1.7468  0.1383
 4677TIP3    H235447   3.944   0.596  11.745  0.5516 -0.5056 -1.1419
 4678TIP3   OH235448   3.951   3.742  16.966  0.4047  0.1956 -0.2659
 4678TIP3    H135449   3.968   3.649  16.982  1.4726  0.3839 -0.3172
 4678TIP3    H235450   3.881   3.742  16.900  0.6867 -0.5689 -0.5731
 4679TIP3   OH235451   2.780   0.872  16.124 -0.4626  0.0013 -0.0654
 4679TIP3    H135452   2.851   0.927  16.091 -1.4020  0.9217 -0.5782
 4679TIP3    H235453   2.712   0.934  16.152 -0.9876 -0.8595  0.5966
 4680TIP3   OH235454   3.670   2.162  16.578 -0.5064 -0.5911 -0.2641
 4680TIP3    H135455   3.598   2.099  16.591 -1.2823  0.4671  0.6176
 4680TIP3    H235456   3.676   2.171  16.483 -2.0757 -0.0941 -0.3288
 4681TIP3   OH235457   4.560   2.137   2.030 -0.8040  0.2372  0.1463
 4681TIP3    H135458   4.486   2.087   2.065 -0.3376 -0.5023  0.0741
 4681TIP3    H235459   4.608   2.075   1.977 -0.1607  0.7438  0.1323
 4682TIP3   OH235460   4.685   6.049  16.854 -0.2015  0.3654  0.2675
 4682TIP3    H135461   4.616   6.100  16.811 -0.4849 -0.8140 -0.6762
 4682TIP3    H235462   4.672   5.959  16.824  0.3058 -0.2816  1.9257
 4683TIP3   OH235463   2.055   5.004   2.559  0.3756  0.2776  0.1391
 4683TIP3    H135464   2.136   5.048   2.533  0.7954 -0.4643  0.1789
 4683TIP3    H235465   2.034   4.947   2.484 -0.2472  0.6608  0.0206
 4684TIP3   OH235466   4.866   5.047  12.678  0.1807  0.5766 -0.0022
 4684TIP3    H135467   4.779   5.073  12.710 -0.5249 -1.4295 -0.2099
 4684TIP3    H235468   4.911   5.014  12.756  0.3615  0.6062 -0.0954
 4685TIP3   OH235469   1.533   4.128  11.324  0.3005  0.2626  0.1376
 4685TIP3    H135470   1.509   4.081  11.244  1.7562  2.0880 -1.4049
 4685TIP3    H235471   1.487   4.211  11.318  1.6428  1.0427  0.4282
 4686TIP3   OH235472   3.401   1.615   5.693  0.5473 -0.1870 -0.3306
 4686TIP3    H135473   3.381   1.598   5.785 -0.6886  0.4592 -0.4784
 4686TIP3    H235474   3.486   1.659   5.695 -0.6004  2.0261  0.6745
 4687TIP3   OH235475   3.293   6.787   4.910 -0.3258 -0.3809 -0.0394
 4687TIP3    H135476   3.219   6.846   4.908  0.5373  0.7039 -0.6259
 4687TIP3    H235477   3.360   6.833   4.960  0.7009 -0.4255 -1.3470
 4688TIP3   OH235478   5.136   0.241   4.104  0.4777 -0.0477  0.3368
 4688TIP3    H135479   5.228   0.265   4.103  0.3562  0.3428 -1.4221
 4688TIP3    H235480   5.131   0.162   4.051 -0.1257 -0.4050  0.9075
 4689TIP3   OH235481   2.685   5.859   1.404 -0.5277  0.1918  0.1056
 4689TIP3    H135482   2.712   5.770   1.381  0.8705  0.8831 -0.9569
 4689TIP3    H235483   2.767   5.905   1.420 -1.2493  1.3544  0.4835
 4690TIP3   OH235484   5.875   1.217  15.108  0.5422  0.3016 -0.3589
 4690TIP3    H135485   5.808   1.153  15.085 -0.6071  1.6702 -0.9357
 4690TIP3    H235486   5.825   1.293  15.139  1.9014  0.6350  1.0318
 4691TIP3   OH235487   6.393   0.597   4.090  0.3164 -0.1843  0.0143
 4691TIP3    H135488   6.332   0.666   4.114  1.3488  0.8351 -0.2700
 4691TIP3    H235489   6.446   0.583   4.169  0.9254  0.2221 -0.3186
 4692TIP3   OH235490   5.782   5.239   3.666  0.2910  0.1635  0.2706
 4692TIP3    H135491   5.855   5.292   3.634  0.5149  0.3958  1.1616
 4692TIP3    H235492   5.794   5.154   3.624 -0.0490  0.8002 -1.1377
 4693TIP3   OH235493   1.113   3.920  17.237 -1.3033  0.0531 -0.2594
 4693TIP3    H135494   1.120   3.829  17.208  1.7258  0.2670 -0.3223
 4693TIP3    H235495   1.051   3.960  17.176 -1.3795 -1.5595 -1.2563
 4694TIP3   OH235496   0.830   4.867  16.259 -0.5456  0.6037 -0.4591
 4694TIP3    H135497   0.799   4.926  16.190  1.2362  0.5179 -1.3642
 4694TIP3    H235498   0.837   4.924  16.336 -1.4637  0.9581 -0.6321
 4695TIP3   OH235499   0.472   2.190   0.976 -0.0402  0.5035 -0.1069
 4695TIP3    H135500   0.509   2.278   0.986 -0.0859  0.7641 -1.9584
 4695TIP3    H235501   0.548   2.134   0.962 -0.0523  0.3447  0.4628
 4696TIP3   OH235502   4.309   1.083  13.898  0.1390  0.3240 -0.0180
 4696TIP3    H135503   4.395   1.052  13.928  0.5569  0.5887 -0.9256
 4696TIP3    H235504   4.319   1.178  13.893 -0.2588  0.3674  0.0086
 4697TIP3   OH235505   4.882   6.274  12.870  1.3787 -0.5266  0.6598
 4697TIP3    H135506   4.825   6.351  12.865  1.3698 -0.6467 -1.3101
 4697TIP3    H235507   4.876   6.247  12.962 -1.0523 -0.0299  0.6985
 4698TIP3   OH235508   4.946   4.750  15.529  0.3603  0.2533  0.6448
 4698TIP3    H135509   5.035   4.767  15.561 -0.4032  1.4325  2.1427
 4698TIP3    H235510   4.926   4.824  15.472  0.6449 -0.4581 -0.4193
 4699TIP3   OH235511   4.765   2.010  15.011  0.4064  0.2717 -0.4431
 4699TIP3    H135512   4.857   1.983  15.019  0.4672  0.4117 -0.6686
 4699TIP3    H235513   4.752   2.073  15.083  0.5943  0.5449 -0.6451
 4700TIP3   OH235514   2.072   0.940   2.477  0.3289 -0.1526 -0.6635
 4700TIP3    H135515   1.995   0.922   2.532 -0.2839  2.9635 -0.4113
 4700TIP3    H235516   2.141   0.964   2.538  1.1975 -1.7727 -0.9714
 4701TIP3   OH235517   5.718   1.636  11.273 -0.6755 -0.1482  0.0159
 4701TIP3    H135518   5.701   1.639  11.179 -0.5500 -0.4142 -0.0139
 4701TIP3    H235519   5.771   1.715  11.290 -1.0490  0.1223 -0.0641
 4702TIP3   OH235520   6.005   3.228  12.000 -0.3364  0.0097 -0.1384
 4702TIP3    H135521   6.019   3.312  12.043  0.5728 -0.5818  0.7538
 4702TIP3    H235522   6.094   3.192  11.987 -0.7137 -0.8395 -0.4342
 4703TIP3   OH235523   3.421   0.007  13.638 -0.3393  0.2884  0.1837
 4703TIP3    H135524   3.330   0.033  13.621 -0.6919 -0.3788  0.9967
 4703TIP3    H235525   3.445   0.053  13.718 -0.5105 -0.7852  0.8681
 4704TIP3   OH235526   4.436   0.940   1.656  0.0370 -0.0027  0.3509
 4704TIP3    H135527   4.436   0.964   1.749 -2.9010 -0.3531  0.4879
 4704TIP3    H235528   4.483   0.856   1.653 -0.5269 -0.3830  1.6466
 4705TIP3   OH235529   5.241   1.570  16.056  0.0875 -0.4029  0.0651
 4705TIP3    H135530   5.223   1.662  16.038  1.3620 -0.2200 -0.3309
 4705TIP3    H235531   5.208   1.556  16.145  0.0411  0.4893  0.1948
 4706TIP3   OH235532   5.779   1.366  12.665  0.0563  0.1123 -0.1180
 4706TIP3    H135533   5.795   1.274  12.684  0.3147  0.2253  0.2007
 4706TIP3    H235534   5.743   1.402  12.746  1.5369  0.6829  0.2925
 4707TIP3   OH235535   6.101   2.040   0.292 -1.1926  0.1216 -0.3242
 4707TIP3    H135536   6.167   2.090   0.243 -0.8770 -0.1486 -0.1809
 4707TIP3    H235537   6.039   2.010   0.225 -0.5223 -0.6141 -0.6207
 4708TIP3   OH235538   5.427   0.901  12.840  0.1909 -0.4222  0.5652
 4708TIP3    H135539   5.411   0.870  12.751  1.6844  0.6091 -0.0860
 4708TIP3    H235540   5.485   0.976  12.829 -0.0948  0.0826  2.3767
 4709TIP3   OH235541   6.143   2.061   4.214  0.2954  0.4099  0.3608
 4709TIP3    H135542   6.133   1.973   4.177 -0.4743 -0.0934  1.7284
 4709TIP3    H235543   6.238   2.075   4.215  0.3559  0.3961 -1.6460
 4710TIP3   OH235544   0.248   5.995  17.148  0.0933 -0.1231  0.3148
 4710TIP3    H135545   0.232   5.975  17.055 -0.7941  0.0565  0.4178
 4710TIP3    H235546   0.178   5.948  17.194 -0.7160  1.4314  0.7274
 4711TIP3   OH235547   4.030   6.199  12.194  0.7371  0.3615 -0.3248
 4711TIP3    H135548   4.001   6.135  12.130 -1.4863  0.7576  0.2181
 4711TIP3    H235549   4.052   6.148  12.272  0.6820  0.1117 -0.4748
 4712TIP3   OH235550   5.202   5.106   5.122  0.2146 -0.2659  0.3586
 4712TIP3    H135551   5.109   5.124   5.135 -0.1028  1.0344 -3.0612
 4712TIP3    H235552   5.247   5.187   5.149 -0.0029  0.4878 -1.4553
 4713TIP3   OH235553   1.859   2.398   4.254 -0.1008  0.4391  0.0278
 4713TIP3    H135554   1.954   2.388   4.254 -0.0113  1.2234  1.0486
 4713TIP3    H235555   1.843   2.470   4.192 -0.0388  0.2090 -0.2554
 4714TIP3   OH235556   0.025   1.977   5.310 -0.2805 -0.2989 -0.2020
 4714TIP3    H135557   0.073   1.919   5.369  0.2413 -0.6455 -0.9704
 4714TIP3    H235558  -0.067   1.959   5.330 -0.1312 -1.8883 -0.9065
 4715TIP3   OH235559   5.201   1.409  11.800  0.0786 -0.4531  0.0116
 4715TIP3    H135560   5.151   1.373  11.874  2.0949  0.0333  1.6641
 4715TIP3    H235561   5.157   1.490  11.778 -1.7809 -1.6453 -0.6907
 4716TIP3   OH235562   0.587   4.447  13.999  0.0592 -0.3514 -0.1398
 4716TIP3    H135563   0.664   4.391  14.005  0.3600 -0.0268 -0.8898
 4716TIP3    H235564   0.526   4.397  13.944  0.6080  0.3679 -1.4096
 4717TIP3   OH235565   6.704   4.225  12.934  0.0597 -0.4585  0.1008
 4717TIP3    H135566   6.637   4.159  12.918  0.0626 -0.3604 -0.3380
 4717TIP3    H235567   6.700   4.282  12.857  1.3246 -1.0414 -0.4191
 4718TIP3   OH235568   4.258   6.362   3.972  0.7131 -0.2737 -0.3395
 4718TIP3    H135569   4.215   6.279   3.950 -1.7609  0.6651  0.7969
 4718TIP3    H235570   4.287   6.351   4.062 -1.5922  0.8399  0.5781
 4719TIP3   OH235571   1.996   5.603   0.032 -0.2205 -0.8652  0.9689
 4719TIP3    H135572   1.959   5.529  -0.015 -0.1632  1.3296 -2.6585
 4719TIP3    H235573   2.091   5.588   0.028 -0.1240  0.1912 -1.1891
 4720TIP3   OH235574   0.807   0.358   1.893 -0.3850 -0.0514 -0.3664
 4720TIP3    H135575   0.843   0.436   1.851  1.9312 -0.3532  1.0228
 4720TIP3    H235576   0.712   0.367   1.881 -0.0834  2.3203 -1.3355
 4721TIP3   OH235577   3.906   5.543  15.793 -0.6493 -0.4165  0.2416
 4721TIP3    H135578   3.977   5.592  15.752  0.1435 -1.5715  0.2047
 4721TIP3    H235579   3.864   5.606  15.851 -0.3743  0.6126 -0.6733
 4722TIP3   OH235580   2.693   2.813  12.533  0.0187 -0.6781  0.0289
 4722TIP3    H135581   2.738   2.729  12.538 -0.5273 -0.9111  1.1916
 4722TIP3    H235582   2.726   2.862  12.608  1.1999  0.5839 -1.2995
 4723TIP3   OH235583   1.801   3.670   0.169  0.3894  0.4589 -0.0587
 4723TIP3    H135584   1.776   3.578   0.160  1.3302  0.0874  1.0691
 4723TIP3    H235585   1.718   3.717   0.170 -0.1251 -0.4418  0.1484
 4724TIP3   OH235586   3.115   4.992  14.568 -0.1689  0.0568 -0.1265
 4724TIP3    H135587   3.162   4.939  14.632  0.7353  0.2527 -0.6210
 4724TIP3    H235588   3.183   5.040  14.521 -0.9161  0.9927 -0.2767
 4725TIP3   OH235589   5.500   0.810  12.277  0.3240 -0.4147 -0.1530
 4725TIP3    H135590   5.585   0.844  12.304  0.3680 -1.5081  1.0992
 4725TIP3    H235591   5.507   0.715  12.288 -1.8431 -0.3269  2.2241
 4726TIP3   OH235592   5.803   3.297   4.236  0.6404 -0.4172 -0.5828
 4726TIP3    H135593   5.738   3.338   4.180  1.8760  0.7126 -1.2341
 4726TIP3    H235594   5.760   3.289   4.321 -0.5578 -0.2771 -1.1693
 4727TIP3   OH235595   2.296   4.184  14.455  0.4108 -0.0807 -0.0052
 4727TIP3    H135596   2.271   4.121  14.387  1.3658 -0.7886  0.2866
 4727TIP3    H235597   2.319   4.264  14.406 -0.8351  0.0614 -0.3708
 4728TIP3   OH235598   3.833   6.338  12.294 -0.0332  0.5969  0.4807
 4728TIP3    H135599   3.807   6.293  12.374 -1.1623 -0.0648 -0.2288
 4728TIP3    H235600   3.900   6.282  12.256 -1.2540 -0.3921 -0.2682
 4729TIP3   OH235601   4.064   0.835  15.059  0.6145 -0.0060  0.6817
 4729TIP3    H135602   4.005   0.816  15.132 -1.4379 -1.6344 -1.3206
 4729TIP3    H235603   4.114   0.754  15.047 -0.4869 -0.4413 -0.9955
 4730TIP3   OH235604   3.864   3.286   0.651  0.1874 -0.3173  0.5875
 4730TIP3    H135605   3.829   3.339   0.579 -0.6776  0.5132  1.6082
 4730TIP3    H235606   3.949   3.255   0.619  0.0275  0.4479 -0.5948
 4731TIP3   OH235607   2.943   6.766   2.569 -0.3710  0.1614  0.3020
 4731TIP3    H135608   2.943   6.790   2.662  0.3259 -1.1620  0.6518
 4731TIP3    H235609   3.035   6.749   2.549 -0.4462  0.9955 -0.7845
 4732TIP3   OH235610   2.687   3.716  11.043 -0.6523  0.3532 -0.0740
 4732TIP3    H135611   2.616   3.736  11.103  0.0034  0.7844  0.5766
 4732TIP3    H235612   2.734   3.643  11.084  0.9324  1.8937  0.9189
 4733TIP3   OH235613   4.152   3.483   3.790 -0.3280 -0.3989  0.0471
 4733TIP3    H135614   4.104   3.453   3.868 -3.8106  0.8687 -1.5255
 4733TIP3    H235615   4.183   3.570   3.813 -0.6311 -0.3579  0.3054
 4734TIP3   OH235616   6.203   0.020  13.194 -0.7701 -0.3389 -0.5156
 4734TIP3    H135617   6.262  -0.032  13.249  1.0416 -0.1585 -2.2175
 4734TIP3    H235618   6.130  -0.039  13.176 -0.1241 -1.3078 -0.0805
 4735TIP3   OH235619   3.017   3.206  13.735 -0.4527  0.1049  0.1170
 4735TIP3    H135620   3.052   3.131  13.688 -0.2235  0.6251 -0.5487
 4735TIP3    H235621   2.924   3.186  13.746 -0.5728  0.1266 -0.8357
 4736TIP3   OH235622   3.426   0.699  11.523  0.0926 -0.6259  0.6916
 4736TIP3    H135623   3.405   0.755  11.599  1.1496 -0.1687  0.6562
 4736TIP3    H235624   3.515   0.726  11.498  0.0849 -1.4002 -0.1591
 4737TIP3   OH235625   1.744   2.683  11.406 -0.1801  0.5557 -0.1156
 4737TIP3    H135626   1.770   2.676  11.314  1.3761  1.4517  0.2389
 4737TIP3    H235627   1.656   2.720  11.403 -0.5819 -0.4522 -1.2746
 4738TIP3   OH235628   4.833   2.619   4.172 -0.2682  0.1917 -0.1658
 4738TIP3    H135629   4.855   2.686   4.107 -1.6548  1.5466  0.7359
 4738TIP3    H235630   4.886   2.543   4.147  0.8895  1.4286 -1.5491
 4739TIP3   OH235631   1.806   4.883  14.023 -0.0277 -0.1692  0.1324
 4739TIP3    H135632   1.794   4.978  14.018 -1.7343 -0.4026 -0.3747
 4739TIP3    H235633   1.719   4.848  14.039  0.8546 -1.5563  2.1339
 4740TIP3   OH235634   0.009   1.553  13.435 -0.0788  0.1056  0.0259
 4740TIP3    H135635   0.073   1.542  13.506  0.4971 -2.4249 -0.8190
 4740TIP3    H235636   0.056   1.600  13.367  0.9179 -1.7114 -0.5754
 4741TIP3   OH235637   0.687   3.102  15.502 -1.1637  0.5459 -0.3594
 4741TIP3    H135638   0.596   3.071  15.512 -0.2194 -1.4230  2.9396
 4741TIP3    H235639   0.720   3.055  15.426 -2.6280  0.6215 -1.0644
 4742TIP3   OH235640   3.403   4.646  15.224 -0.1547 -0.0439  0.0569
 4742TIP3    H135641   3.313   4.626  15.246 -0.1405  1.5505  1.6608
 4742TIP3    H235642   3.444   4.560  15.209 -1.5220 -0.8540  0.8862
 4743TIP3   OH235643   4.473   1.027   0.396 -0.4946  0.1055 -0.1831
 4743TIP3    H135644   4.409   1.063   0.457 -1.6880 -0.1683 -1.2543
 4743TIP3    H235645   4.485   1.095   0.330  2.6829  1.4404  1.6299
 4744TIP3   OH235646   0.674   0.554  11.906 -0.2600 -0.4917  0.1577
 4744TIP3    H135647   0.655   0.613  11.833 -0.5876 -0.6016  0.1528
 4744TIP3    H235648   0.675   0.610  11.983  3.2946  0.1785 -0.2933
 4745TIP3   OH235649   6.032   5.496   1.975 -0.1570  0.4234 -0.2784
 4745TIP3    H135650   6.071   5.448   1.903  0.3003 -0.9806  0.8756
 4745TIP3    H235651   6.103   5.552   2.008  0.5020 -1.0751  0.9092
 4746TIP3   OH235652   6.435   0.935  14.289 -0.4680  0.0253 -0.3580
 4746TIP3    H135653   6.341   0.915  14.280 -0.6164  0.6812 -0.2512
 4746TIP3    H235654   6.438   1.029  14.306  0.1326 -0.2431  1.0749
 4747TIP3   OH235655   4.743   3.433   3.969  0.3921  0.1959 -0.0681
 4747TIP3    H135656   4.780   3.507   3.922 -0.6871  1.6516  1.3193
 4747TIP3    H235657   4.655   3.423   3.933 -0.0843  0.6948  0.9444
 4748TIP3   OH235658   1.272   0.715   0.539 -0.7716 -0.2442  0.8903
 4748TIP3    H135659   1.257   0.667   0.621 -0.7399 -0.1935  0.9262
 4748TIP3    H235660   1.238   0.803   0.557 -0.2407 -0.0673  1.0454
 4749TIP3   OH235661   1.340   1.427   2.925 -0.3443  0.0606 -0.1940
 4749TIP3    H135662   1.301   1.356   2.873 -0.2899  0.2876 -0.5508
 4749TIP3    H235663   1.422   1.448   2.880  0.2196 -0.4541  0.5938
 4750TIP3   OH235664   3.144   1.333  10.892 -0.5856 -0.0313  0.1113
 4750TIP3    H135665   3.212   1.267  10.884 -1.7649 -1.1509 -0.9392
 4750TIP3    H235666   3.184   1.413  10.858  0.1278 -0.7296 -0.7250
 4751TIP3   OH235667   1.612   5.069   4.105 -0.1532 -0.0932  0.4244
 4751TIP3    H135668   1.538   5.108   4.151  0.9218 -0.4660  2.5276
 4751TIP3    H235669   1.678   5.139   4.103  0.0407 -0.2848 -0.0121
 4752TIP3   OH235670   6.252   2.208  16.072 -0.5425 -0.1618 -0.4963
 4752TIP3    H135671   6.214   2.130  16.113  0.8256 -1.4277 -1.6349
 4752TIP3    H235672   6.284   2.260  16.146 -1.5009 -0.6350  0.2685
 4753TIP3   OH235673   2.238   5.134  12.707 -0.4600  0.1081 -0.4623
 4753TIP3    H135674   2.332   5.139  12.722 -0.1854 -2.5151 -0.9635
 4753TIP3    H235675   2.218   5.209  12.652  1.5922 -0.0932 -1.5174
 4754TIP3   OH235676   3.744   1.566  10.639  0.7739  0.1637  0.0253
 4754TIP3    H135677   3.655   1.562  10.674  1.0695  1.0781  0.9163
 4754TIP3    H235678   3.752   1.488  10.584  0.0257 -0.8960  1.3723
 4755TIP3   OH235679   1.075   2.829   2.329 -0.1370  0.4144  0.1857
 4755TIP3    H135680   1.036   2.881   2.259 -0.1187 -0.2694 -0.3438
 4755TIP3    H235681   1.168   2.850   2.325 -0.3384  1.4692  0.9510
 4756TIP3   OH235682   2.046   6.700  15.933 -0.0050 -0.3185 -0.3942
 4756TIP3    H135683   2.041   6.765  15.863 -0.0004 -2.2617 -2.2533
 4756TIP3    H235684   1.956   6.690  15.964  0.0641  0.8770  0.2183
 4757TIP3   OH235685   1.875   4.219  14.493  0.1268  0.4689 -0.1194
 4757TIP3    H135686   1.805   4.263  14.541  0.7296  1.1512  0.1400
 4757TIP3    H235687   1.840   4.133  14.472 -0.0587  0.0805  1.7521
 4758TIP3   OH235688   0.172   3.873   0.762  0.0628 -0.2407 -0.2279
 4758TIP3    H135689   0.253   3.833   0.730 -0.3954 -1.0162 -0.4379
 4758TIP3    H235690   0.148   3.935   0.693  0.3101 -0.2314 -0.3101
 4759TIP3   OH235691   5.842   5.316   2.227  0.4825  0.2775  0.1871
 4759TIP3    H135692   5.852   5.232   2.271  1.4201 -0.1390 -0.7788
 4759TIP3    H235693   5.772   5.302   2.163  1.2345 -0.0520 -0.5847
 4760TIP3   OH235694   3.989   3.885   6.247  0.0173 -0.2062 -0.2595
 4760TIP3    H135695   3.943   3.818   6.297  1.8097 -0.6904  0.7867
 4760TIP3    H235696   3.935   3.963   6.255 -1.7536 -1.3202 -0.9264
 4761TIP3   OH235697   1.306   5.505  15.549  0.3237  0.2516 -0.4418
 4761TIP3    H135698   1.350   5.576  15.597  0.0123 -0.0634  0.3086
 4761TIP3    H235699   1.214   5.515  15.571  0.4041 -1.0799  0.5782
 4762TIP3   OH235700   1.708   4.650  11.268  0.2108  0.1770 -0.0382
 4762TIP3    H135701   1.639   4.650  11.202 -3.0902  1.6932  3.2326
 4762TIP3    H235702   1.709   4.560  11.303 -1.7533  0.6998  1.4487
 4763TIP3   OH235703   2.979   3.679  11.075 -0.3578  0.0107  0.2045
 4763TIP3    H135704   2.903   3.725  11.111 -1.1229  1.9974 -3.6250
 4763TIP3    H235705   2.942   3.609  11.022  0.4219  0.8663 -1.5270
 4764TIP3   OH235706   4.548   1.040   4.094  0.1447 -0.2255 -0.6585
 4764TIP3    H135707   4.581   0.965   4.044  3.8665 -0.3785  1.8490
 4764TIP3    H235708   4.458   1.014   4.118 -0.3094 -1.8065 -3.7732
 4765TIP3   OH235709   1.879   2.723   1.637 -0.1034 -0.1049 -0.5446
 4765TIP3    H135710   1.854   2.659   1.702  1.0283 -1.1247 -1.0990
 4765TIP3    H235711   1.799   2.738   1.586 -0.8524  0.3191  0.7221
 4766TIP3   OH235712   2.273   0.032  13.098 -0.5089 -0.5908 -0.1267
 4766TIP3    H135713   2.278   0.127  13.094 -2.3064 -0.4174  1.0927
 4766TIP3    H235714   2.251   0.005  13.009  0.4405  0.0959 -0.5764
 4767TIP3   OH235715   0.548   5.454   0.978  0.1676  0.6102  0.3064
 4767TIP3    H135716   0.540   5.381   1.039 -0.8581 -0.3805 -0.9957
 4767TIP3    H235717   0.540   5.415   0.891  0.2517  2.1767 -0.4366
 4768TIP3   OH235718   5.541   4.425  14.188  0.4181  0.4971  0.0430
 4768TIP3    H135719   5.596   4.459  14.259  0.8460  0.5220 -0.2963
 4768TIP3    H235720   5.456   4.467  14.201  0.8014  1.3185 -0.0831
 4769TIP3   OH235721   3.534   0.415  12.607 -0.2076 -0.0614  0.0132
 4769TIP3    H135722   3.468   0.374  12.663 -1.3285  1.8933  0.2025
 4769TIP3    H235723   3.512   0.509  12.611  0.7099  0.2732 -2.3715
 4770TIP3   OH235724   5.210   6.354  14.491  1.1235  0.0085  0.0950
 4770TIP3    H135725   5.255   6.439  14.489  1.9059 -0.4362 -1.7002
 4770TIP3    H235726   5.280   6.290  14.496  0.5034 -0.5290  2.2468
 4771TIP3   OH235727   0.678   5.733  11.964 -0.1629 -0.0076 -0.1493
 4771TIP3    H135728   0.727   5.807  12.000  1.9239 -1.2308 -0.3883
 4771TIP3    H235729   0.660   5.758  11.874  0.8265  0.1030 -0.3284
 4772TIP3   OH235730   0.786   4.208  11.661 -0.2642 -0.4342 -0.0310
 4772TIP3    H135731   0.731   4.283  11.684  0.9775  1.1968 -2.1997
 4772TIP3    H235732   0.735   4.159  11.598  0.9067  1.3773 -2.4628
 4773TIP3   OH235733   0.721   0.514   2.600  0.0037  0.0262  0.1287
 4773TIP3    H135734   0.733   0.592   2.546  2.7968 -0.8720 -0.6511
 4773TIP3    H235735   0.768   0.534   2.681 -3.6597  1.1306  2.0649
 4774TIP3   OH235736   3.570   4.084   1.744 -0.0462 -0.2447 -0.3704
 4774TIP3    H135737   3.617   4.028   1.806 -0.2206  0.0102 -0.0021
 4774TIP3    H235738   3.574   4.172   1.783 -1.0362 -0.2643 -0.2080
 4775TIP3   OH235739   2.613   4.461   0.951 -0.5578 -0.0115 -0.1839
 4775TIP3    H135740   2.656   4.376   0.948 -0.5290 -0.0289  0.5953
 4775TIP3    H235741   2.673   4.521   0.906  0.4416  0.0359  1.2046
 4776TIP3   OH235742   6.120   1.968   1.474  0.1507 -0.0598  0.0839
 4776TIP3    H135743   6.152   2.055   1.449 -1.8870  1.1812  1.5830
 4776TIP3    H235744   6.069   1.938   1.399 -0.1430  0.5852  0.0234
 4777TIP3   OH235745   2.370   2.260  12.932 -0.7026  0.3279 -0.7134
 4777TIP3    H135746   2.446   2.226  12.884 -0.6927 -2.5466  1.2218
 4777TIP3    H235747   2.401   2.343  12.969  1.0787 -0.1715 -1.0156
 4778TIP3   OH235748   3.767   2.094  14.236 -0.3542 -0.5356 -0.2392
 4778TIP3    H135749   3.841   2.142  14.273 -0.5218  0.3001 -0.9539
 4778TIP3    H235750   3.756   2.132  14.148 -0.7953 -1.5649 -0.6295
 4779TIP3   OH235751   6.287   5.832  15.055  0.6897 -0.7532  0.0328
 4779TIP3    H135752   6.286   5.776  15.132 -0.5274 -0.4495  0.2547
 4779TIP3    H235753   6.251   5.778  14.985  0.9018 -0.7220 -0.1023
 4780TIP3   OH235754   0.398   0.808  16.957  0.6101 -0.1031  0.2101
 4780TIP3    H135755   0.447   0.801  17.039  1.6602  0.1879 -0.3821
 4780TIP3    H235756   0.364   0.719  16.943 -0.8001  0.1869  1.6939
 4781TIP3   OH235757   4.634   3.303  10.848  0.4478  0.6444 -0.1814
 4781TIP3    H135758   4.566   3.356  10.805 -0.1816 -0.5648 -0.7151
 4781TIP3    H235759   4.687   3.270  10.776  1.7614  1.7736  0.2539
 4782TIP3   OH235760   3.315   1.744  14.955  0.9942 -0.4470 -0.0839
 4782TIP3    H135761   3.282   1.773  14.870 -1.9645 -1.2816  0.7288
 4782TIP3    H235762   3.267   1.798  15.018  0.9611 -1.9126  1.1533
 4783TIP3   OH235763   3.052   0.987   4.416  0.4683 -0.1152  0.0561
 4783TIP3    H135764   3.098   1.026   4.342 -1.1526  0.3833 -0.7239
 4783TIP3    H235765   3.044   0.894   4.393  1.8259 -0.3835  0.6047
 4784TIP3   OH235766   2.614   2.371   3.293 -0.3794  0.5126 -0.7025
 4784TIP3    H135767   2.550   2.303   3.275 -0.2782  0.8606 -2.4531
 4784TIP3    H235768   2.656   2.344   3.374 -2.0749 -0.2070 -0.0444
 4785TIP3   OH235769   5.462   4.590  15.967  0.1131 -0.4810  0.1439
 4785TIP3    H135770   5.404   4.548  15.903  1.6016 -0.6873 -1.1216
 4785TIP3    H235771   5.464   4.531  16.041 -0.9296 -0.6974 -0.0050
 4786TIP3   OH235772   0.124   2.481   2.468  0.2177 -0.0344 -0.2676
 4786TIP3    H135773   0.122   2.436   2.383 -0.8016 -1.0603  0.2797
 4786TIP3    H235774   0.181   2.427   2.522 -0.6280 -0.4110  0.2527
 4787TIP3   OH235775   0.739   1.921   0.318 -0.4547 -0.0553  0.0880
 4787TIP3    H135776   0.740   2.008   0.358 -0.5890  0.1313 -0.3059
 4787TIP3    H235777   0.787   1.865   0.379  0.8206  0.5910 -0.2979
 4788TIP3   OH235778   5.099   3.470   5.539 -0.7059 -0.2604 -0.0759
 4788TIP3    H135779   5.189   3.440   5.555 -0.7206 -0.4497 -0.3502
 4788TIP3    H235780   5.047   3.390   5.537 -0.8498 -0.1658 -0.1256
 4789TIP3   OH235781   2.562   5.396  15.486 -0.4799  0.0129 -0.0204
 4789TIP3    H135782   2.597   5.482  15.509 -1.4154  0.1923  0.7210
 4789TIP3    H235783   2.484   5.415  15.434  0.5664 -0.3925 -1.8056
 4790TIP3   OH235784   4.767   0.408   1.882 -0.2596  0.3833 -0.0399
 4790TIP3    H135785   4.794   0.395   1.791  0.9187  0.8247  0.2365
 4790TIP3    H235786   4.750   0.502   1.889 -1.9447  0.1077 -0.2190
 4791TIP3   OH235787   1.400   1.608   2.144 -0.1272 -0.9607 -0.4507
 4791TIP3    H135788   1.314   1.591   2.183 -0.0246  0.5283  0.4738
 4791TIP3    H235789   1.459   1.618   2.219  0.4173  0.1751 -1.0106
 4792TIP3   OH235790   3.640   6.495  13.035 -0.2984 -0.7309  0.3641
 4792TIP3    H135791   3.702   6.474  12.966 -1.7363 -2.0979 -0.5533
 4792TIP3    H235792   3.669   6.579  13.069 -0.1673  0.4881 -2.6145
 4793TIP3   OH235793   0.934   4.639   0.638 -0.4442  0.5490  0.1324
 4793TIP3    H135794   0.931   4.546   0.616  2.3569  0.5681 -0.4242
 4793TIP3    H235795   0.943   4.641   0.733  1.6418  0.1726 -0.0311
 4794TIP3   OH235796   0.679   2.715   4.803  0.1373  0.1515  0.5437
 4794TIP3    H135797   0.770   2.724   4.775  0.2130  0.1715  0.7927
 4794TIP3    H235798   0.684   2.701   4.897  0.1086 -3.5203  0.0778
 4795TIP3   OH235799   5.335   1.985  17.100  0.3628 -0.2957  0.1055
 4795TIP3    H135800   5.244   1.965  17.076  0.6649 -0.1329 -1.2272
 4795TIP3    H235801   5.328   2.065  17.152 -0.5314 -1.9609  2.6118
 4796TIP3   OH235802   3.247   4.826  12.404  0.0734 -0.2702  0.4150
 4796TIP3    H135803   3.307   4.753  12.388 -0.5358 -1.0925  1.7235
 4796TIP3    H235804   3.217   4.852  12.318 -0.6120 -2.3705 -0.0261
 4797TIP3   OH235805   3.973   4.572   6.033  0.3175  0.2703 -0.4489
 4797TIP3    H135806   3.946   4.529   5.952  2.1454 -0.5772 -0.6169
 4797TIP3    H235807   3.938   4.516   6.102 -1.3846  1.0807 -0.6337
 4798TIP3   OH235808   5.956   1.316   2.349  0.2262  0.0777  0.0555
 4798TIP3    H135809   5.969   1.383   2.283  0.0022  0.9395  0.8811
 4798TIP3    H235810   6.002   1.239   2.315 -1.1858  0.0290 -1.8194
 4799TIP3   OH235811   5.729   3.422  14.401 -0.5779  0.2579 -0.1159
 4799TIP3    H135812   5.808   3.473  14.417 -0.2581 -0.2791  0.0142
 4799TIP3    H235813   5.755   3.356  14.337 -0.9754  0.2059 -0.2294
 4800TIP3   OH235814   0.284   6.634   2.539 -0.1768  0.1944 -0.0190
 4800TIP3    H135815   0.359   6.658   2.483 -1.2009  1.4761 -0.8680
 4800TIP3    H235816   0.321   6.628   2.627  0.7810  1.5628 -0.3135
 4801TIP3   OH235817   3.492   6.180  16.658  0.5704  0.2637 -0.4412
 4801TIP3    H135818   3.466   6.229  16.580  1.4875  0.1312 -0.8346
 4801TIP3    H235819   3.516   6.247  16.722 -0.4197  0.3789 -0.1836
 4802TIP3   OH235820   6.769   2.859  15.829  0.1301 -0.4998 -0.2720
 4802TIP3    H135821   6.690   2.904  15.799  0.9160  1.0914 -0.0196
 4802TIP3    H235822   6.813   2.832  15.748 -0.5172 -1.1131 -0.4174
 4803TIP3   OH235823   5.143   3.357   1.213  0.4959  0.2191 -0.5909
 4803TIP3    H135824   5.223   3.305   1.223  0.1175 -0.4630 -1.0874
 4803TIP3    H235825   5.169   3.446   1.238  1.2395 -0.1312 -0.0932
 4804TIP3   OH235826   0.319   4.757  11.640 -0.5200  0.4503  0.1293
 4804TIP3    H135827   0.344   4.689  11.703 -0.3695 -0.4455 -0.8825
 4804TIP3    H235828   0.244   4.719  11.593  0.5008  0.3641 -1.4500
 4805TIP3   OH235829   2.722   0.156   3.349  0.1030  0.5247 -0.2760
 4805TIP3    H135830   2.719   0.207   3.430  0.3625  0.0108  0.0610
 4805TIP3    H235831   2.631   0.136   3.330  0.1639 -0.8606  0.8550
 4806TIP3   OH235832   4.672   3.839  10.958  0.1135  0.6191 -0.2341
 4806TIP3    H135833   4.666   3.883  10.873 -1.2218  1.4867  0.2905
 4806TIP3    H235834   4.697   3.749  10.937 -1.5704  0.4620 -1.6733
 4807TIP3   OH235835   6.463   1.594   2.056  0.1003  0.1481  0.6234
 4807TIP3    H135836   6.516   1.629   2.127  2.0009 -1.0488 -0.1419
 4807TIP3    H235837   6.451   1.668   1.996 -4.3306  2.1084  3.6309
 4808TIP3   OH235838   1.983   2.327   1.820 -0.4302 -0.0387  0.2807
 4808TIP3    H135839   2.058   2.381   1.795  0.6113 -0.8686  1.6172
 4808TIP3    H235840   1.921   2.339   1.747  1.0166  0.5533 -0.8915
 4809TIP3   OH235841   3.584   3.131   0.482  0.1171 -0.3662 -0.5530
 4809TIP3    H135842   3.508   3.184   0.504 -0.1354 -0.9195 -0.0991
 4809TIP3    H235843   3.620   3.173   0.403 -0.8456 -0.3040 -0.9671
 4810TIP3   OH235844   5.213   2.447  14.044 -0.5464  0.7196  0.2103
 4810TIP3    H135845   5.213   2.355  14.018 -1.5472  1.0732 -1.0650
 4810TIP3    H235846   5.306   2.467  14.060 -0.3325 -0.5358  0.6668
 4811TIP3   OH235847   1.104   4.674   0.381  0.4007  0.0292 -0.2289
 4811TIP3    H135848   1.084   4.580   0.377  1.2389 -0.1073 -1.6460
 4811TIP3    H235849   1.078   4.700   0.469 -1.3796 -1.1732 -0.3783
 4812TIP3   OH235850   6.636   3.462  14.523  0.4732 -0.0239 -0.1681
 4812TIP3    H135851   6.553   3.444  14.478  0.6092 -2.4501  0.4932
 4812TIP3    H235852   6.697   3.397  14.488  1.8138  1.0086  0.1876
 4813TIP3   OH235853   2.287   3.832  16.270  0.3125 -0.2890 -0.6133
 4813TIP3    H135854   2.316   3.923  16.279  0.9267 -0.3896 -1.5887
 4813TIP3    H235855   2.367   3.780  16.277 -0.1352 -0.8147  0.7692
 4814TIP3   OH235856   5.313   3.110  15.579 -0.0167  0.1205  0.0386
 4814TIP3    H135857   5.289   3.017  15.578 -0.8006  0.2405  2.9051
 4814TIP3    H235858   5.345   3.126  15.668  2.5576  2.0316 -1.1636
 4815TIP3   OH235859   4.085   5.875   3.035  0.3036 -0.1477 -0.1118
 4815TIP3    H135860   4.010   5.933   3.028 -0.5797 -1.3203 -0.5731
 4815TIP3    H235861   4.141   5.898   2.960  0.6707  1.0831  0.5320
 4816TIP3   OH235862   5.079   2.000   5.396 -0.2338 -0.2932  0.3070
 4816TIP3    H135863   5.022   2.078   5.393  2.1844  1.5049 -1.0317
 4816TIP3    H235864   5.039   1.940   5.333  0.5754  1.8924 -2.4130
 4817TIP3   OH235865   6.771   0.566  11.997 -0.1080 -0.0608  0.2796
 4817TIP3    H135866   6.730   0.484  12.024  0.5018  0.2090  2.1473
 4817TIP3    H235867   6.733   0.632  12.057 -2.0418  1.3857 -2.4279
 4818TIP3   OH235868   4.536   2.972  14.879 -0.1366  0.3549 -0.3067
 4818TIP3    H135869   4.557   2.882  14.855 -1.3377  0.3378 -1.3351
 4818TIP3    H235870   4.601   3.025  14.832  1.5555 -0.0408  1.5266
 4819TIP3   OH235871   3.590   6.507  16.168  0.1649  0.0563 -0.1097
 4819TIP3    H135872   3.666   6.559  16.194  0.7919 -0.6080 -0.5541
 4819TIP3    H235873   3.517   6.543  16.217  0.6779  1.0482 -0.0659
 4820TIP3   OH235874   1.396   1.208   6.325  0.3588 -0.1086  0.9381
 4820TIP3    H135875   1.350   1.292   6.332  0.7920  0.0631  1.7105
 4820TIP3    H235876   1.369   1.159   6.402  3.5239  0.9984  2.8230
 4821TIP3   OH235877   1.260   5.443  11.442 -0.0110 -0.1010 -0.3788
 4821TIP3    H135878   1.199   5.427  11.514  0.3892 -1.1736 -0.2681
 4821TIP3    H235879   1.292   5.532  11.457  0.6228 -0.5838  1.1835
 4822TIP3   OH235880   2.564   4.166  14.547 -0.5673  0.2165  0.4435
 4822TIP3    H135881   2.487   4.193  14.496 -0.2534  1.4247  0.6107
 4822TIP3    H235882   2.528   4.110  14.616 -1.2963  0.7579  0.5075
 4823TIP3   OH235883   3.211   3.965   2.842  0.1191  0.0868  0.3044
 4823TIP3    H135884   3.265   3.941   2.917  0.0643  0.8380  0.5900
 4823TIP3    H235885   3.250   4.046   2.809  0.7533 -0.7561 -1.0964
 4824TIP3   OH235886   3.026   6.346   3.047 -0.1663 -0.2880  0.0840
 4824TIP3    H135887   3.057   6.425   3.002  0.0366 -0.4230 -0.0136
 4824TIP3    H235888   2.998   6.377   3.133 -1.3337  0.1053 -0.4227
 4825TIP3   OH235889   0.975   1.522  16.241 -0.2254 -0.1034  0.0601
 4825TIP3    H135890   0.953   1.502  16.332  1.0784 -2.7377 -0.1395
 4825TIP3    H235891   1.054   1.574  16.246 -0.4125  0.1457  0.4482
 4826TIP3   OH235892   1.117   6.344  13.537 -0.3227  0.2366  0.0019
 4826TIP3    H135893   1.201   6.383  13.563 -0.0177  0.6855 -1.5920
 4826TIP3    H235894   1.133   6.250  13.542  0.3856  0.3130 -0.5493
 4827TIP3   OH235895   0.295   5.434   4.773  0.2326 -0.1069  0.3589
 4827TIP3    H135896   0.285   5.418   4.867 -1.4154 -1.0332  0.0335
 4827TIP3    H235897   0.347   5.514   4.768  1.3810 -0.7245  2.0536
 4828TIP3   OH235898   3.882   2.380   6.218 -0.3973 -0.1241 -0.3674
 4828TIP3    H135899   3.841   2.302   6.183  1.4460 -0.8708 -0.9337
 4828TIP3    H235900   3.967   2.350   6.252  0.1445  1.5277 -0.2001
 4829TIP3   OH235901   6.558   3.370   0.606  0.3986  0.0679 -0.1978
 4829TIP3    H135902   6.507   3.337   0.532 -0.6069 -1.3712  1.1147
 4829TIP3    H235903   6.593   3.453   0.575  1.3269 -1.2647 -2.8678
 4830TIP3   OH235904   6.038   2.291  14.532  0.1006  0.2059 -0.4852
 4830TIP3    H135905   6.000   2.345  14.462  1.9215 -1.3116 -2.7071
 4830TIP3    H235906   6.125   2.328  14.546  1.3338 -1.9661 -1.9618
 4831TIP3   OH235907   2.398   6.574   4.223 -0.3749 -0.0453 -0.0182
 4831TIP3    H135908   2.411   6.597   4.131  0.7295  0.1437  0.1681
 4831TIP3    H235909   2.389   6.659   4.268  0.6253 -0.0660  0.2460
 4832TIP3   OH235910   0.465   2.315   0.554  0.5203  0.3396  0.2583
 4832TIP3    H135911   0.402   2.357   0.494  1.2891  1.1900  0.0378
 4832TIP3    H235912   0.448   2.356   0.638  0.4426  0.2042  0.3091
 4833TIP3   OH235913   0.820   1.335  12.098 -0.0381 -1.0842 -0.0611
 4833TIP3    H135914   0.736   1.321  12.055  0.6493  0.0982 -1.8096
 4833TIP3    H235915   0.814   1.283  12.179 -2.0637 -1.7778 -0.6272
 4834TIP3   OH235916   3.384   3.725   6.320  0.6257 -0.2351  0.2167
 4834TIP3    H135917   3.333   3.646   6.306  1.3702 -0.9055  1.1645
 4834TIP3    H235918   3.373   3.744   6.413  1.7282 -0.1417  0.3399
 4835TIP3   OH235919   0.189   3.937  11.030  0.3868 -0.2074  0.0044
 4835TIP3    H135920   0.257   3.915  11.093 -0.3900 -2.4788  0.0760
 4835TIP3    H235921   0.181   3.860  10.974 -0.6274  0.8546 -1.3448
 4836TIP3   OH235922   2.454   3.157   1.372 -0.3339 -0.5400 -0.4426
 4836TIP3    H135923   2.361   3.133   1.379 -1.3706  2.6649 -2.0703
 4836TIP3    H235924   2.464   3.188   1.282  1.5832  1.9497  0.5526
 4837TIP3   OH235925   1.878   5.185   5.789 -0.3169  0.1000  0.2542
 4837TIP3    H135926   1.817   5.144   5.727 -0.9291 -0.5220  1.2584
 4837TIP3    H235927   1.964   5.153   5.762 -0.6595 -0.8041  0.2067
 4838TIP3   OH235928   1.377   3.133  16.232  0.6850 -0.1816 -0.1290
 4838TIP3    H135929   1.294   3.085  16.236  0.2640  0.6747  1.8336
 4838TIP3    H235930   1.388   3.152  16.139  0.4388 -3.2902 -0.8645
 4839TIP3   OH235931   2.635   5.223  10.415  0.3540 -0.2563  0.2012
 4839TIP3    H135932   2.584   5.180  10.346  0.1964  0.5040 -0.1689
 4839TIP3    H235933   2.570   5.268  10.469  0.4953 -0.6709  0.7195
 4840TIP3   OH235934   4.577   5.463   2.087  0.1201  0.3909  1.1108
 4840TIP3    H135935   4.616   5.448   2.001 -0.6557  1.6696  0.5212
 4840TIP3    H235936   4.485   5.482   2.068  0.0991  1.3716  2.1558
 4841TIP3   OH235937   5.914   3.305  14.192  0.4207  0.0086 -0.1408
 4841TIP3    H135938   5.978   3.262  14.248  0.1763 -0.9749 -0.6205
 4841TIP3    H235939   5.894   3.242  14.124  1.3648  1.5215 -1.8440
 4842TIP3   OH235940   1.609   4.812  12.400  0.1080  0.5300 -0.1563
 4842TIP3    H135941   1.701   4.806  12.374 -1.0279  0.8869 -4.5980
 4842TIP3    H235942   1.587   4.905  12.388 -0.4481  0.7679  2.4480
 4843TIP3   OH235943   2.789   2.042   0.397 -0.0982  0.1450  0.4502
 4843TIP3    H135944   2.802   1.961   0.446  4.1180  0.8960  0.7872
 4843TIP3    H235945   2.819   2.021   0.308  2.6384  1.7115  0.9470
 4844TIP3   OH235946   2.436   1.974  15.560  0.0841 -0.0587 -0.3496
 4844TIP3    H135947   2.515   2.005  15.515  1.0688  0.3298  1.6088
 4844TIP3    H235948   2.369   2.039  15.536  0.8403  0.6936 -0.4627
 4845TIP3   OH235949   3.349   1.238   1.975 -0.4631  0.3448  0.5293
 4845TIP3    H135950   3.298   1.310   2.012 -0.8487 -0.2881  1.2502
 4845TIP3    H235951   3.314   1.160   2.017  0.1627 -0.2384 -0.0152
 4846TIP3   OH235952   4.735   5.434  12.730 -0.3514  0.7667 -0.5574
 4846TIP3    H135953   4.821   5.406  12.702 -0.9556 -1.4669 -0.2547
 4846TIP3    H235954   4.678   5.416  12.656 -1.3262 -1.8933  0.7905
 4847TIP3   OH235955   6.216   4.661   4.713 -0.2861 -0.1231 -0.4994
 4847TIP3    H135956   6.273   4.623   4.647  0.5900 -0.2646  0.3310
 4847TIP3    H235957   6.213   4.596   4.784 -0.1399  0.6073  0.1866
 4848TIP3   OH235958   1.277   3.630  12.155 -0.0190 -0.0452 -0.3911
 4848TIP3    H135959   1.316   3.718  12.147 -0.6994  0.2446 -0.5502
 4848TIP3    H235960   1.332   3.586  12.220  2.0434 -0.4756 -2.3577
 4849TIP3   OH235961   6.104   1.834   5.385 -0.1003 -0.2867  0.6014
 4849TIP3    H135962   6.147   1.901   5.439  0.4398 -0.8231  0.8415
 4849TIP3    H235963   6.126   1.858   5.295  1.1015 -0.8172  0.7398
 4850TIP3   OH235964   6.706   4.455  13.452 -0.3125  0.1548 -0.1202
 4850TIP3    H135965   6.702   4.460  13.356 -0.0185 -2.7519 -0.3334
 4850TIP3    H235966   6.651   4.380  13.474 -0.0838  0.5684  1.9755
 4851TIP3   OH235967   0.083   4.387  10.473 -0.3458  0.3239 -0.1234
 4851TIP3    H135968   0.104   4.309  10.524 -1.1599 -1.6212 -2.6562
 4851TIP3    H235969   0.002   4.420  10.511 -1.4437 -1.6467 -0.6911
 4852TIP3   OH235970   2.525   5.472  13.142 -0.0711 -0.6578 -0.3839
 4852TIP3    H135971   2.545   5.533  13.071 -0.3227 -0.0041  0.0992
 4852TIP3    H235972   2.465   5.408  13.103  2.3961 -2.2511 -1.6567
 4853TIP3   OH235973   5.271   5.609  16.355 -0.5302  0.3413 -0.0720
 4853TIP3    H135974   5.356   5.595  16.397  1.0670  2.0917 -2.5719
 4853TIP3    H235975   5.261   5.704  16.353 -2.0424  0.1808 -0.8035
 4854TIP3   OH235976   0.355   0.854  16.641 -0.1526  0.2307  0.0369
 4854TIP3    H135977   0.278   0.906  16.664 -0.0873 -0.4736  1.9817
 4854TIP3    H235978   0.422   0.918  16.618 -0.9454  0.8902 -0.4377
 4855TIP3   OH235979   4.348   3.909  14.977 -0.0013  0.6663 -0.1313
 4855TIP3    H135980   4.253   3.924  14.971 -0.4087 -1.4184  0.5482
 4855TIP3    H235981   4.377   3.904  14.886 -0.7134  0.3510 -0.3481
 4856TIP3   OH235982   6.008   5.410  12.844  0.2508  0.1965  0.1786
 4856TIP3    H135983   5.974   5.325  12.870  1.5175 -0.1419  0.7625
 4856TIP3    H235984   6.030   5.401  12.752 -2.2353  0.7504 -0.5119
 4857TIP3   OH235985   3.905   3.048  15.271  0.4231 -0.3844  0.2028
 4857TIP3    H135986   3.826   3.012  15.232  1.2724 -0.2150 -1.7086
 4857TIP3    H235987   3.902   3.141  15.252  0.1868 -0.0621  1.7287
 4858TIP3   OH235988   0.509   4.754  11.194 -0.0651 -0.2703  0.5240
 4858TIP3    H135989   0.553   4.802  11.264  0.5137  0.5926 -0.4234
 4858TIP3    H235990   0.546   4.789  11.114  0.1966 -2.1293 -0.2061
 4859TIP3   OH235991   5.734   0.737  11.684  0.9182  0.4500  0.5216
 4859TIP3    H135992   5.748   0.783  11.602  0.8713  1.0741  0.8619
 4859TIP3    H235993   5.672   0.791  11.732 -0.7017 -1.0044  0.0924
 4860TIP3   OH235994   1.389   6.259   2.462 -0.5792 -0.0045  0.3244
 4860TIP3    H135995   1.404   6.191   2.528 -0.3092  0.1368  0.4083
 4860TIP3    H235996   1.452   6.327   2.483 -1.1070  0.4452  0.4690
 4861TIP3   OH235997   6.367   5.850   0.399  0.2393 -0.1351  0.1902
 4861TIP3    H135998   6.356   5.944   0.390  0.2787 -0.0514  0.9538
 4861TIP3    H235999   6.291   5.812   0.355 -1.1549  0.3339  2.1039
 4862TIP3   OH236000   6.189   3.285  10.865  0.5044  0.1944 -0.1632
 4862TIP3    H136001   6.271   3.298  10.912 -0.5459  0.5489  1.6412
 4862TIP3    H236002   6.184   3.359  10.804  2.2494 -0.6921 -1.4075
 4863TIP3   OH236003   1.555   0.674   4.103 -0.4553 -0.3263  0.1179
 4863TIP3    H136004   1.467   0.676   4.066 -0.8891  0.7544  1.1803
 4863TIP3    H236005   1.542   0.689   4.197  0.9617  1.1903  0.0870
 4864TIP3   OH236006   2.115   0.924  16.454 -0.7466 -0.2405  0.2660
 4864TIP3    H136007   2.064   0.943  16.533 -1.7676 -0.8301 -0.2385
 4864TIP3    H236008   2.164   0.845  16.476 -0.2101  0.2043  0.6793
 4865TIP3   OH236009   0.122   4.708   1.274 -0.2757 -0.4705 -0.0687
 4865TIP3    H136010   0.189   4.643   1.253 -0.1323 -0.1072 -0.7591
 4865TIP3    H236011   0.121   4.711   1.370 -0.7525 -1.9660 -0.0025
 4866TIP3   OH236012   5.431   2.954   5.687 -0.0060  0.5115  0.3682
 4866TIP3    H136013   5.414   2.909   5.604 -0.3237  0.9886  0.1729
 4866TIP3    H236014   5.344   2.966   5.726  0.1298  0.4153  0.7113
 4867TIP3   OH236015   6.352   5.396   6.317  0.0736 -0.1782  0.3254
 4867TIP3    H136016   6.334   5.335   6.389 -1.0635  0.0271  0.2338
 4867TIP3    H236017   6.324   5.481   6.350 -0.7700 -0.1341 -0.4687
 4868TIP3   OH236018   5.198   1.208  15.187  0.0325 -0.0635 -0.5374
 4868TIP3    H136019   5.108   1.214  15.154  0.2578 -0.1667 -1.1765
 4868TIP3    H236020   5.247   1.271  15.134  0.2418  0.3528  0.1458
 4869TIP3   OH236021   5.562   1.957  13.609 -0.0131 -0.1430  0.4508
 4869TIP3    H136022   5.499   1.974  13.539  0.4817  2.2310  0.5276
 4869TIP3    H236023   5.517   1.984  13.689  0.4821 -0.0288  0.6941
 4870TIP3   OH236024   4.073   5.729   5.581  0.2306 -0.3243 -0.3447
 4870TIP3    H136025   4.090   5.798   5.644  1.9826 -0.7147 -0.3608
 4870TIP3    H236026   4.150   5.730   5.524 -0.7173 -0.8637 -1.6534
 4871TIP3   OH236027   1.788   0.888  14.738  0.4924 -0.1620  0.1972
 4871TIP3    H136028   1.816   0.943  14.812  2.4845  0.4152 -0.9429
 4871TIP3    H236029   1.868   0.842  14.711  0.2186  0.9051 -2.6349
 4872TIP3   OH236030   6.714   2.608  14.830 -0.2847  0.3331  0.1612
 4872TIP3    H136031   6.699   2.700  14.809  2.2402  1.1596  1.7832
 4872TIP3    H236032   6.693   2.561  14.749 -0.8028  2.4028 -0.9220
 4873TIP3   OH236033   0.484   1.683  13.354  0.1291  0.3469 -0.4672
 4873TIP3    H136034   0.435   1.610  13.390  1.0806 -0.1589 -0.1645
 4873TIP3    H236035   0.576   1.657  13.363  0.4171  0.4851 -2.6213
 4874TIP3   OH236036   1.629   3.355  12.850 -0.0682 -0.5072  0.0736
 4874TIP3    H136037   1.562   3.358  12.782  0.3478  0.5288 -0.3117
 4874TIP3    H236038   1.638   3.263  12.872 -1.0383 -0.7274 -0.4514
 4875TIP3   OH236039   6.102   3.768   1.942  0.0634 -0.7830  0.1615
 4875TIP3    H136040   6.097   3.701   2.010  0.6684 -0.8957  0.0960
 4875TIP3    H236041   6.014   3.772   1.906  0.3289 -2.5131 -0.7492
 4876TIP3   OH236042   3.473   1.755   4.669 -0.3294 -0.0197 -0.2345
 4876TIP3    H136043   3.420   1.832   4.688  0.8663  0.5227  0.9985
 4876TIP3    H236044   3.424   1.682   4.707 -0.1055  0.4991  1.0539
 4877TIP3   OH236045   0.484   2.594   1.899 -0.7857 -0.3624  0.2202
 4877TIP3    H136046   0.550   2.641   1.951 -1.1166  0.7975 -0.3856
 4877TIP3    H236047   0.528   2.575   1.816 -0.7049 -0.9806  0.4053
 4878TIP3   OH236048   5.083   1.437  13.182  0.8860  0.5174 -0.1483
 4878TIP3    H136049   5.000   1.420  13.226  0.2899  0.7264 -1.1825
 4878TIP3    H236050   5.107   1.353  13.143  0.0403  0.9970 -1.7216
 4879TIP3   OH236051   1.148   5.152   3.450 -0.0180 -0.3613 -0.4836
 4879TIP3    H136052   1.138   5.080   3.513 -0.9462  1.2390  1.2316
 4879TIP3    H236053   1.230   5.195   3.477 -0.7744  0.7393  0.0756
 4880TIP3   OH236054   1.047   5.366   3.777 -0.6066  0.1155  0.0623
 4880TIP3    H136055   1.010   5.395   3.860  2.8894  2.0312  1.0259
 4880TIP3    H236056   1.023   5.434   3.714  1.2392  1.3576  0.6849
 4881TIP3   OH236057   4.490   4.334  14.672  0.4089  0.9435  0.2735
 4881TIP3    H136058   4.423   4.310  14.736  1.6160 -3.4036  0.0443
 4881TIP3    H236059   4.561   4.372  14.724  0.8475 -1.3698  1.4118
 4882TIP3   OH236060   0.270   2.577   1.563 -0.2966 -0.2973 -0.0832
 4882TIP3    H136061   0.315   2.657   1.537  1.1055 -0.9771  0.1782
 4882TIP3    H236062   0.179   2.590   1.537 -0.3254  1.8406  1.0251
 4883TIP3   OH236063   1.023   3.550   1.475  0.1380  0.3161 -0.1936
 4883TIP3    H136064   1.029   3.630   1.526  0.8253  0.5725 -0.6737
 4883TIP3    H236065   0.930   3.529   1.474 -0.0819  1.2876 -0.3424
 4884TIP3   OH236066   6.156   3.429   0.252  0.2021  0.2023  0.6180
 4884TIP3    H136067   6.096   3.360   0.282  0.7482 -0.7310 -0.3728
 4884TIP3    H236068   6.143   3.501   0.314  0.0794 -1.0333  2.0761
 4885TIP3   OH236069   1.930   3.664  11.518  0.4086  0.0236  0.2397
 4885TIP3    H136070   1.883   3.583  11.495  0.3879 -0.0263  0.4605
 4885TIP3    H236071   1.913   3.723  11.444  1.1498 -0.4770 -0.3315
 4886TIP3   OH236072   2.355   1.870  11.465 -0.2213  0.4480 -0.5178
 4886TIP3    H136073   2.304   1.896  11.388  0.2213  2.5007 -0.1480
 4886TIP3    H236074   2.432   1.928  11.463  1.2364 -1.4229 -0.1096
 4887TIP3   OH236075   0.260   2.654   2.286  0.1164  0.0950  0.4369
 4887TIP3    H136076   0.180   2.603   2.298  0.0854 -0.0518 -0.3990
 4887TIP3    H236077   0.331   2.591   2.295  0.1095  0.0716  0.3273
 4888TIP3   OH236078   3.771   6.349   6.286 -0.1641 -0.2629  0.0222
 4888TIP3    H136079   3.699   6.409   6.306  1.8500  1.2949  3.0189
 4888TIP3    H236080   3.844   6.406   6.262  1.5119 -1.5039  2.0082
 4889TIP3   OH236081   1.267   3.493   3.828 -0.2148 -0.2797 -0.5974
 4889TIP3    H136082   1.258   3.588   3.828  2.4136  0.0482  2.0020
 4889TIP3    H236083   1.192   3.461   3.877 -1.3996  0.3881 -1.9546
 4890TIP3   OH236084   5.195   5.475   4.366 -0.6338  0.7137 -0.5419
 4890TIP3    H136085   5.249   5.553   4.366  0.0147  0.2769  0.5522
 4890TIP3    H236086   5.251   5.406   4.401 -2.5626  0.7605  2.8640
 4891TIP3   OH236087   0.413   1.063  16.020  0.1903  0.0355  0.3865
 4891TIP3    H136088   0.343   1.105  15.970 -0.1258  1.2794  1.8263
 4891TIP3    H236089   0.486   1.055  15.958 -0.5101  0.6841 -0.5309
 4892TIP3   OH236090   1.913   3.475   3.944  0.4797 -0.1561  0.5030
 4892TIP3    H136091   1.940   3.386   3.968  0.7477 -0.0691  0.5225
 4892TIP3    H236092   1.911   3.523   4.027 -1.7229 -0.6880  0.7880
 4893TIP3   OH236093   1.189   1.756  15.317 -0.8477  0.0127  0.3112
 4893TIP3    H136094   1.268   1.703  15.304 -0.2495  0.9583  0.0375
 4893TIP3    H236095   1.221   1.834  15.363 -1.6565  0.2983  0.3813
 4894TIP3   OH236096   1.209   5.406   1.240  0.2074  0.1399 -0.3249
 4894TIP3    H136097   1.213   5.491   1.285 -0.3295  0.7270 -1.3679
 4894TIP3    H236098   1.123   5.371   1.262  0.6677 -0.4335  0.6125
 4895TIP3   OH236099   2.503   2.933  11.937  0.2838 -0.4393  0.2468
 4895TIP3    H136100   2.493   2.923  12.032  2.4349  0.9792  0.6698
 4895TIP3    H236101   2.596   2.915  11.921  0.0988  0.0496 -1.4875
 4896TIP3   OH236102   5.040   0.435   3.234  0.2704  0.0119 -0.3018
 4896TIP3    H136103   5.077   0.441   3.322 -1.6648  0.2104  0.5363
 4896TIP3    H236104   4.954   0.476   3.241 -0.0880 -0.3325 -2.1912
 4897TIP3   OH236105   2.459   2.987  14.772 -0.4455 -0.2772  0.3593
 4897TIP3    H136106   2.458   3.004  14.677 -2.7870 -2.4240 -0.0555
 4897TIP3    H236107   2.367   2.979  14.796  0.1890 -2.4870  2.2886
 4898TIP3   OH236108   6.759   1.025  12.409  0.0442 -0.1924  0.3378
 4898TIP3    H136109   6.689   0.967  12.379  3.3237 -2.4359 -3.5087
 4898TIP3    H236110   6.737   1.111  12.373 -0.8500 -0.8243 -0.6392
 4899TIP3   OH236111   1.824   3.713  17.032  0.0431  0.1457 -0.5143
 4899TIP3    H136112   1.872   3.711  16.949 -0.1833  0.8508 -0.6585
 4899TIP3    H236113   1.738   3.676  17.011  0.3998 -0.8094 -0.3258
 4900TIP3   OH236114   0.757   6.234   3.764 -0.2197  0.0057 -0.1367
 4900TIP3    H136115   0.783   6.322   3.792 -0.1613 -0.3348  0.9077
 4900TIP3    H236116   0.704   6.248   3.686 -0.6954  1.0099  0.3557
 4901TIP3   OH236117   2.497   2.479   3.035  0.0632 -0.3880 -0.3449
 4901TIP3    H136118   2.469   2.570   3.032 -0.7013 -0.6353 -0.9097
 4901TIP3    H236119   2.564   2.476   3.104 -1.0175  0.2989  0.7475
 4902TIP3   OH236120   6.206   5.859   2.584 -0.2943 -0.2354 -0.6291
 4902TIP3    H136121   6.185   5.952   2.577  1.7048  0.3421  0.5032
 4902TIP3    H236122   6.248   5.838   2.501  1.1272  0.4241 -0.1027
 4903TIP3   OH236123   3.811   4.036  12.650  0.4565 -0.2328 -0.4689
 4903TIP3    H136124   3.888   3.983  12.669  0.6170 -0.1044 -0.7662
 4903TIP3    H236125   3.761   3.984  12.587  0.6443 -0.0031 -0.8075
 4904TIP3   OH236126   0.126   1.965   5.727 -0.2013  0.0728 -0.1570
 4904TIP3    H136127   0.032   1.985   5.721 -0.1083  0.1273 -1.8321
 4904TIP3    H236128   0.135   1.879   5.686  0.4162 -0.1524  0.4425
 4905TIP3   OH236129   5.415   0.258  12.805 -0.5361  0.3941  0.1680
 4905TIP3    H136130   5.452   0.170  12.817 -2.7769 -0.4821  1.0400
 4905TIP3    H236131   5.472   0.316  12.856  0.2325 -0.7499  0.6319
 4906TIP3   OH236132   1.605   1.947  11.951  0.0425 -0.2001  0.7278
 4906TIP3    H136133   1.547   1.875  11.976 -0.3976  0.3068  1.1951
 4906TIP3    H236134   1.559   1.992  11.881  0.8822 -1.1009 -0.4141
 4907TIP3   OH236135   0.287   5.030  14.564  0.0858  0.1489  0.1104
 4907TIP3    H136136   0.326   5.034  14.477  0.8138  1.7002  0.4819
 4907TIP3    H236137   0.196   5.005  14.549 -0.2125  1.9078 -1.2411
 4908TIP3   OH236138   6.009   5.245   5.844  0.0392 -0.3449 -0.2919
 4908TIP3    H136139   5.959   5.315   5.802 -2.3440 -1.6243  0.3278
 4908TIP3    H236140   6.069   5.291   5.903 -2.5697  1.1582  1.2663
 4909TIP3   OH236141   5.749   4.446  11.827 -0.2229 -0.2661  0.5899
 4909TIP3    H136142   5.802   4.494  11.762  2.0720 -0.8693  1.9669
 4909TIP3    H236143   5.712   4.373  11.778  0.8953 -0.3121 -0.2133
 4910TIP3   OH236144   5.990   3.524  14.393 -0.0423 -0.2942 -0.0711
 4910TIP3    H136145   6.043   3.452  14.427 -0.6896 -0.7400 -0.0138
 4910TIP3    H236146   6.000   3.518  14.298  1.3134  0.6124 -0.0068
 4911TIP3   OH236147   1.039   6.488  10.961 -0.3046  0.0651  0.1046
 4911TIP3    H136148   1.073   6.399  10.971 -0.8010 -0.3354 -1.5155
 4911TIP3    H236149   0.990   6.486  10.878 -1.1502  1.5889  0.5355
 4912TIP3   OH236150   5.260   1.400   0.655 -0.0005 -0.5993 -0.1369
 4912TIP3    H136151   5.289   1.309   0.663 -2.8236 -1.3362  2.7328
 4912TIP3    H236152   5.171   1.394   0.621 -0.0140  1.1596 -0.4602
 4913TIP3   OH236153   0.314   2.052   2.877  0.1772 -0.5150 -0.1904
 4913TIP3    H136154   0.257   1.980   2.851  0.2927 -1.0883  1.1097
 4913TIP3    H236155   0.357   2.021   2.957 -0.1042  1.1599  0.6375
 4914TIP3   OH236156   1.491   5.975   2.555  0.2711 -0.3003 -0.1268
 4914TIP3    H136157   1.555   5.970   2.484 -0.5768 -2.4481 -0.7817
 4914TIP3    H236158   1.420   5.917   2.527 -0.5547 -0.3479  2.0018
 4915TIP3   OH236159   5.544   2.492   5.761 -0.6124 -0.6075 -0.0277
 4915TIP3    H136160   5.510   2.552   5.827 -0.5678 -0.5531 -0.0524
 4915TIP3    H236161   5.604   2.435   5.809  1.6231  1.2504 -0.4992
 4916TIP3   OH236162   5.057   0.950   0.297 -0.2180  0.0772 -0.5225
 4916TIP3    H136163   5.114   0.916   0.366 -0.2397  0.3677 -0.3588
 4916TIP3    H236164   5.012   0.873   0.262 -0.8967  0.0512  0.4120
 4917TIP3   OH236165   2.984   5.044   6.034  0.2558 -0.0121 -0.0035
 4917TIP3    H136166   2.934   5.065   6.113  0.0245  1.0838 -0.4354
 4917TIP3    H236167   3.075   5.060   6.059  0.4826 -2.4581  0.9284
 4918TIP3   OH236168   3.144   6.578  11.249  0.0549 -0.7973  0.7035
 4918TIP3    H136169   3.148   6.672  11.230 -0.7321 -1.0699 -0.9513
 4918TIP3    H236170   3.138   6.573  11.344  2.8355  0.7263  1.0144
 4919TIP3   OH236171   0.456   1.973  10.324  0.4746  0.6594 -0.8439
 4919TIP3    H136172   0.490   1.972  10.413  1.2395  1.2806 -1.1170
 4919TIP3    H236173   0.481   2.059  10.290 -3.1901  2.0080 -0.3792
 4920TIP3   OH236174   6.048   5.762   1.726 -0.3626 -0.1367 -0.0731
 4920TIP3    H136175   5.966   5.808   1.736 -0.6233 -0.7449  0.6197
 4920TIP3    H236176   6.036   5.679   1.773  0.1611 -0.8270 -1.1126
 4921TIP3   OH236177   0.207   5.795   0.408 -0.0157  0.4306 -0.1677
 4921TIP3    H136178   0.134   5.746   0.446  1.0668  0.7928  2.4955
 4921TIP3    H236179   0.285   5.748   0.439  1.0732  4.0007  2.8516
 4922TIP3   OH236180   3.090   3.367   5.119  0.0909 -0.1786  0.8126
 4922TIP3    H136181   3.015   3.406   5.164 -0.5887  0.3962 -0.8041
 4922TIP3    H236182   3.052   3.305   5.057  0.9587  0.0809  0.0144
 4923TIP3   OH236183   6.744   2.028   4.762  0.0197 -0.1882 -0.1147
 4923TIP3    H136184   6.754   2.031   4.857 -0.5075 -1.0345 -0.0240
 4923TIP3    H236185   6.754   1.935   4.740  3.1195  0.3485 -1.2354
 4924TIP3   OH236186   4.487   0.537   0.340  0.4563 -0.2243  0.2412
 4924TIP3    H136187   4.459   0.503   0.425 -1.8036  1.4009  0.1783
 4924TIP3    H236188   4.560   0.596   0.361  0.3264 -0.3184  0.9734
 4925TIP3   OH236189   1.659   5.925   2.339  0.2327 -0.1147  0.1750
 4925TIP3    H136190   1.629   5.937   2.249 -2.3284 -1.5301  0.7818
 4925TIP3    H236191   1.690   5.834   2.342 -1.2437 -0.6100  1.0980
 4926TIP3   OH236192   1.943   2.951   0.957 -0.1410  0.2261 -0.0034
 4926TIP3    H136193   1.944   2.950   0.861 -1.5920 -1.5242 -0.0307
 4926TIP3    H236194   1.852   2.932   0.980  0.1731  0.7048  1.7405
 4927TIP3   OH236195   3.739   1.202  14.662  0.2340  0.0231  0.0007
 4927TIP3    H136196   3.660   1.187  14.715 -0.8125  0.9414 -1.2449
 4927TIP3    H236197   3.809   1.160  14.711 -1.1865 -1.6253  0.6842
 4928TIP3   OH236198   1.792   0.108  15.504  0.5365 -0.2221  0.4865
 4928TIP3    H136199   1.754   0.194  15.522  0.6408  0.0347 -0.5098
 4928TIP3    H236200   1.859   0.124  15.438 -0.8296 -1.3582 -1.2272
 4929TIP3   OH236201   3.269   0.548  14.138 -0.4866 -0.4943 -0.0708
 4929TIP3    H136202   3.225   0.619  14.090  0.2050 -0.0829 -0.1021
 4929TIP3    H236203   3.212   0.532  14.214 -0.3642  0.4711  0.2330
 4930TIP3   OH236204   0.722   2.099  14.278 -0.2536 -0.1459  0.2572
 4930TIP3    H136205   0.705   2.186  14.314 -2.3869 -1.1198  1.7195
 4930TIP3    H236206   0.786   2.060  14.337  2.3038  1.1122 -1.5529
 4931TIP3   OH236207   1.977   5.335   3.819 -0.1309  0.2690  0.1412
 4931TIP3    H136208   1.950   5.396   3.750  1.4711  1.6451  0.7043
 4931TIP3    H236209   1.968   5.384   3.900 -0.3861 -0.7900  0.7637
 4932TIP3   OH236210   4.748   0.474  16.724 -0.0467  0.3329  0.4101
 4932TIP3    H136211   4.773   0.508  16.637 -1.2262 -0.9259 -0.4389
 4932TIP3    H236212   4.684   0.538  16.757  2.1234  2.0691  1.3917
 4933TIP3   OH236213   4.556   0.481  13.012 -0.7733  0.9728 -0.2154
 4933TIP3    H136214   4.599   0.510  13.092  0.5883  1.8021 -1.2097
 4933TIP3    H236215   4.509   0.558  12.980  0.4500  1.2860 -1.3224
 4934TIP3   OH236216   1.519   4.106  16.616 -0.5394  0.0533  0.1997
 4934TIP3    H136217   1.450   4.135  16.556 -1.5204  0.6672  1.5883
 4934TIP3    H236218   1.535   4.182  16.672  0.0889 -0.6313  0.9667
 4935TIP3   OH236219   6.181   0.682   5.408 -0.1486 -0.0528 -0.1161
 4935TIP3    H136220   6.270   0.680   5.442 -0.1826  1.7997  0.1803
 4935TIP3    H236221   6.130   0.632   5.471  0.4468  0.1417  0.5292
 4936TIP3   OH236222   2.610   3.668  14.320  0.3130  0.0455  0.6408
 4936TIP3    H136223   2.691   3.683  14.369  0.6208  0.6028 -0.0305
 4936TIP3    H236224   2.639   3.652  14.230 -0.3152  0.0690  0.4324
 4937TIP3   OH236225   4.215   6.600   1.467 -0.3370 -0.1305 -0.3197
 4937TIP3    H136226   4.188   6.589   1.376  0.6241  0.9428 -0.7426
 4937TIP3    H236227   4.260   6.519   1.489 -0.9120 -0.5468 -0.6827
 4938TIP3   OH236228   1.014   1.418  15.397 -0.1416 -0.0014  0.2087
 4938TIP3    H136229   0.933   1.394  15.352 -1.3394  0.4930  2.0517
 4938TIP3    H236230   1.047   1.335  15.432 -0.4387 -0.0382  0.4022
 4939TIP3   OH236231   5.493   4.222   4.595 -0.0503  0.6066 -0.4095
 4939TIP3    H136232   5.401   4.216   4.571 -0.0623  1.4514 -0.6171
 4939TIP3    H236233   5.519   4.310   4.566  1.0999 -0.0162 -1.3391
 4940TIP3   OH236234   0.479   2.416   2.092  0.3919  0.8011  0.2990
 4940TIP3    H136235   0.498   2.466   2.172  1.7872  0.1095  0.4224
 4940TIP3    H236236   0.475   2.482   2.023  3.1689  1.0342  0.2997
 4941TIP3   OH236237   0.787   2.428  13.183  0.0987  0.5049  0.3468
 4941TIP3    H136238   0.766   2.365  13.253  2.4353 -0.0794  0.5816
 4941TIP3    H236239   0.881   2.417  13.169 -0.1675  1.2526 -2.2951
 4942TIP3   OH236240   1.480   3.821  14.643  0.4902  0.1201 -0.0403
 4942TIP3    H136241   1.554   3.762  14.635  0.5621  0.3870 -1.4967
 4942TIP3    H236242   1.429   3.787  14.716  1.4321 -0.7465  0.2060
 4943TIP3   OH236243   6.717   1.027  11.804  0.2393 -0.1171 -0.4630
 4943TIP3    H136244   6.682   1.039  11.716 -1.2284  0.6701  0.2043
 4943TIP3    H236245   6.758   0.941  11.803 -2.8662 -1.6470 -0.9305
 4944TIP3   OH236246   4.584   4.521  12.079  0.1386 -0.3275  0.0045
 4944TIP3    H136247   4.510   4.496  12.024 -1.7895  1.3029  1.8027
 4944TIP3    H236248   4.584   4.617  12.076  0.5766 -0.2465  2.0733
 4945TIP3   OH236249   1.750   1.364   5.661 -0.0049 -0.0895  0.2474
 4945TIP3    H136250   1.779   1.411   5.739  0.1907 -0.2295  0.2585
 4945TIP3    H236251   1.792   1.278   5.668  1.0674  0.3543 -0.6834
 4946TIP3   OH236252   4.909   4.857   3.606  0.5070 -0.3957 -0.2499
 4946TIP3    H136253   4.858   4.931   3.573  1.3915 -0.7427 -2.4663
 4946TIP3    H236254   4.994   4.895   3.627  0.3846 -0.4396  0.3180
 4947TIP3   OH236255   5.716   3.624   4.137 -0.3672 -0.2716 -0.1388
 4947TIP3    H136256   5.744   3.593   4.051 -0.4481  2.2355 -1.1294
 4947TIP3    H236257   5.765   3.706   4.150 -1.9000  0.4629  1.2620
 4948TIP3   OH236258   0.387   6.476  16.863 -0.2345 -0.0884 -0.4707
 4948TIP3    H136259   0.351   6.420  16.794  0.7743 -0.0322 -1.0498
 4948TIP3    H236260   0.472   6.504  16.829 -0.2179  0.8395  0.3228
 4949TIP3   OH236261   5.311   1.029   2.129  0.0032 -0.0422  0.2504
 4949TIP3    H136262   5.327   1.113   2.085  0.3973  0.4948  1.3918
 4949TIP3    H236263   5.250   0.983   2.071 -1.0649  1.4682  0.1394
 4950TIP3   OH236264   6.216   1.231  14.808 -0.5786  0.7703 -1.0480
 4950TIP3    H136265   6.228   1.155  14.750  1.5228 -0.3704  0.8036
 4950TIP3    H236266   6.299   1.279  14.802  0.0561  0.0858  1.7276
 4951TIP3   OH236267   5.981   3.761  10.748 -0.7504  0.4539 -0.4349
 4951TIP3    H136268   5.897   3.802  10.771 -0.0408  1.7943 -0.1521
 4951TIP3    H236269   6.027   3.829  10.698  0.8657  0.3726  0.9072
 4952TIP3   OH236270   6.369   0.915   2.536 -0.2813 -0.4771 -0.1280
 4952TIP3    H136271   6.341   0.825   2.554 -1.8536 -0.4448 -2.2411
 4952TIP3    H236272   6.442   0.905   2.474 -1.1540 -0.3028 -1.2127
 4953TIP3   OH236273   1.753   4.284   0.411 -0.1149 -0.1640 -0.0437
 4953TIP3    H136274   1.674   4.315   0.456  0.4658  2.7539 -0.9776
 4953TIP3    H236275   1.822   4.289   0.477  0.1159  1.2411 -0.3763
 4954TIP3   OH236276   3.261   3.341  17.194 -0.1453 -0.3019 -0.5805
 4954TIP3    H136277   3.207   3.314  17.119 -2.9365  0.7067  1.0071
 4954TIP3    H236278   3.219   3.300  17.270  0.2303  1.9787  0.9158
 4955TIP3   OH236279   2.821   3.286  13.469 -0.3673 -0.3393  0.2217
 4955TIP3    H136280   2.899   3.269  13.416 -0.6691  0.3155 -0.4318
 4955TIP3    H236281   2.849   3.354  13.531 -0.6115  0.4014 -0.4708
 4956TIP3   OH236282   1.895   2.624   5.928  0.3008  0.0413  0.1803
 4956TIP3    H136283   1.808   2.585   5.940  0.0319  0.2085 -1.1886
 4956TIP3    H236284   1.923   2.647   6.017  0.3856 -3.0575  1.0229
 4957TIP3   OH236285   4.525   3.226   4.229 -0.0935 -0.4194  0.1883
 4957TIP3    H136286   4.491   3.283   4.159 -0.7668 -1.2163 -0.1474
 4957TIP3    H236287   4.508   3.137   4.197 -0.5653 -0.7869  1.4495
 4958TIP3   OH236288   4.277   5.299   4.991 -0.1591  0.1935  0.1523
 4958TIP3    H136289   4.248   5.261   4.908 -1.5131  1.6175 -0.0629
 4958TIP3    H236290   4.257   5.392   4.982 -0.6373  0.3090  2.2183
 4959TIP3   OH236291   2.286   3.636   0.252  0.2306 -0.4103 -0.1148
 4959TIP3    H136292   2.272   3.731   0.253  0.3211 -0.3964 -0.1537
 4959TIP3    H236293   2.379   3.625   0.231 -0.0253 -0.5275 -1.2470
 4960TIP3   OH236294   6.343   5.611  11.785 -0.8230  0.1087 -0.0101
 4960TIP3    H136295   6.269   5.557  11.758 -0.3384  0.5498 -2.3451
 4960TIP3    H236296   6.317   5.647  11.869 -2.6231 -0.9509 -0.0853
 4961TIP3   OH236297   0.383   0.819   2.352  0.1748 -0.1277  0.9484
 4961TIP3    H136298   0.331   0.744   2.323 -0.5298  0.3656  0.9252
 4961TIP3    H236299   0.388   0.810   2.447  0.1425 -0.2393  0.9391
 4962TIP3   OH236300   0.956   3.963   0.439 -0.7365 -0.2735  0.9242
 4962TIP3    H136301   0.970   3.934   0.349 -0.2179 -1.8156  1.4941
 4962TIP3    H236302   0.906   4.044   0.430  0.2707  0.1755 -0.7875
 4963TIP3   OH236303   4.225   0.458  12.952  0.0394 -0.2499  0.1483
 4963TIP3    H136304   4.205   0.404  13.029 -1.1235 -1.4406 -0.9592
 4963TIP3    H236305   4.236   0.394  12.881 -0.9617  0.9673 -1.1049
 4964TIP3   OH236306   1.303   6.341   5.798  0.4069 -0.2934  0.1702
 4964TIP3    H136307   1.244   6.285   5.847  0.6849 -1.8107 -1.1934
 4964TIP3    H236308   1.279   6.430   5.823 -1.5992 -0.9376  0.5768
 4965TIP3   OH236309   3.892   3.363   0.385 -0.1686 -0.4817  0.2386
 4965TIP3    H136310   3.817   3.364   0.326 -0.6341  3.3179  0.7880
 4965TIP3    H236311   3.960   3.413   0.338  1.0160 -1.3398  1.0035
 4966TIP3   OH236312   3.242   3.085   3.423 -0.1470  0.1619  0.4043
 4966TIP3    H136313   3.310   3.149   3.401 -0.0670  0.1098  0.5016
 4966TIP3    H236314   3.289   3.015   3.467 -0.5180  0.9132  2.0193
 4967TIP3   OH236315   5.976   5.124   4.622 -0.2919  0.1813  0.3940
 4967TIP3    H136316   6.017   5.187   4.563  0.6953 -0.7400  0.0893
 4967TIP3    H236317   6.030   5.045   4.616 -2.2029 -1.1383 -0.1678
 4968TIP3   OH236318   2.649   6.461  15.044 -0.2969 -0.6007  0.1938
 4968TIP3    H136319   2.671   6.535  14.988  0.1552 -1.8237 -1.2838
 4968TIP3    H236320   2.720   6.398  15.029 -0.4020 -1.1355  1.8125
 4969TIP3   OH236321   6.403   3.601  11.583 -0.4541  0.4969  0.2234
 4969TIP3    H136322   6.462   3.581  11.655 -1.5968 -2.2586  0.4328
 4969TIP3    H236323   6.327   3.642  11.625 -0.2398  0.7746  0.3430
 4970TIP3   OH236324   6.026   0.127  16.926 -0.4606  0.0606  0.1319
 4970TIP3    H136325   6.036   0.034  16.949 -0.6720  0.2994  1.2226
 4970TIP3    H236326   6.115   0.154  16.902 -0.7990 -0.9967 -2.4857
 4971TIP3   OH236327   2.481   3.213  16.977 -0.6073  0.0605  0.7550
 4971TIP3    H136328   2.499   3.192  16.885 -2.6533 -1.0188  0.5819
 4971TIP3    H236329   2.485   3.129  17.022 -0.5822  0.4514  1.4904
 4972TIP3   OH236330   0.528   5.635  14.583  0.0511 -0.3197 -0.0158
 4972TIP3    H136331   0.494   5.639  14.673 -1.5980 -0.1080 -0.6303
 4972TIP3    H236332   0.543   5.541  14.568  3.0595 -0.1401  1.4349
 4973TIP3   OH236333   3.100   0.361  16.098  0.1676  0.6366  0.1341
 4973TIP3    H136334   3.156   0.284  16.113 -2.0373 -1.2606 -1.1181
 4973TIP3    H236335   3.151   0.415  16.037  2.5251  1.0922  2.3970
 4974TIP3   OH236336   6.700   6.034  15.882 -0.4001  0.5574  0.1271
 4974TIP3    H136337   6.794   6.055  15.876 -0.5641  1.2841  0.0917
 4974TIP3    H236338   6.658   6.118  15.898 -0.9612  0.0992  1.1076
 4975TIP3   OH236339   3.088   3.859  15.177 -0.1924 -0.5086  0.5837
 4975TIP3    H136340   3.033   3.922  15.131  0.8202  0.5233  0.7672
 4975TIP3    H236341   3.061   3.866  15.269 -0.0475 -0.2941  0.6109
 4976TIP3   OH236342   6.479   5.003   2.215 -0.3886  0.2315 -0.1048
 4976TIP3    H136343   6.405   4.942   2.209  0.4985 -0.9040  0.3758
 4976TIP3    H236344   6.512   4.991   2.304  0.4618  0.6501 -0.3637
 4977TIP3   OH236345   2.215   3.123  15.387 -0.6415 -0.5610 -0.1100
 4977TIP3    H136346   2.144   3.083  15.438 -1.2747 -1.1111 -1.3970
 4977TIP3    H236347   2.295   3.082  15.419 -1.0700 -1.1352  0.2228
 4978TIP3   OH236348   4.666   0.263  11.486  0.2827  0.3001 -0.0913
 4978TIP3    H136349   4.734   0.283  11.550 -0.0883  0.1429  0.3536
 4978TIP3    H236350   4.645   0.348  11.446  0.0904  0.4927  0.4180
 4979TIP3   OH236351   3.270   2.487  11.365 -0.1508  0.4668  0.3677
 4979TIP3    H136352   3.210   2.555  11.334  0.5143  0.2953 -1.3633
 4979TIP3    H236353   3.306   2.449  11.285 -1.0606 -2.4254  1.2657
 4980TIP3   OH236354   5.968   3.831  10.464  0.2836  0.0812  0.6578
 4980TIP3    H136355   5.966   3.848  10.370 -2.2009 -0.5432  0.5404
 4980TIP3    H236356   5.993   3.739  10.471 -0.6294 -0.1918  0.5137
 4981TIP3   OH236357   3.445   2.311  14.250  0.1912  0.8407 -0.0710
 4981TIP3    H136358   3.442   2.273  14.163  0.3699 -0.0487  0.3033
 4981TIP3    H236359   3.355   2.335  14.270  0.0833  0.6522 -0.3318
 4982TIP3   OH236360   0.937   4.777  13.190  0.4130 -0.0892 -0.0684
 4982TIP3    H136361   1.022   4.739  13.213  1.1069  1.9446  0.7811
 4982TIP3    H236362   0.943   4.792  13.096  1.2123  0.5871  0.0855
 4983TIP3   OH236363   1.782   0.706  13.170 -0.2742  0.2904  0.3260
 4983TIP3    H136364   1.686   0.701  13.168 -0.4127  2.4461  0.5040
 4983TIP3    H236365   1.805   0.686  13.260 -0.4250 -2.0724 -0.1450
 4984TIP3   OH236366   5.370   6.241  16.159  0.5040  0.1714 -0.0794
 4984TIP3    H136367   5.286   6.270  16.195 -0.4142 -1.2476 -1.0244
 4984TIP3    H236368   5.422   6.217  16.236 -1.3671 -2.6269  0.3968
 4985TIP3   OH236369   1.516   0.911  12.772  0.2832  0.1500  0.1492
 4985TIP3    H136370   1.539   0.917  12.680 -1.7145  1.0862 -0.3160
 4985TIP3    H236371   1.600   0.918  12.818  1.5483 -2.6318 -1.6180
 4986TIP3   OH236372   6.494   2.298  13.757 -0.4003 -0.2747 -0.0858
 4986TIP3    H136373   6.564   2.255  13.707 -0.7995 -0.8104 -0.1851
 4986TIP3    H236374   6.538   2.327  13.837 -0.4719 -2.4681  0.8129
 4987TIP3   OH236375   0.209   3.809   3.115 -0.2993  0.6938 -0.1935
 4987TIP3    H136376   0.162   3.870   3.171 -1.1357 -2.0383  2.2246
 4987TIP3    H236377   0.156   3.729   3.115  0.8280 -0.1457 -3.1120
 4988TIP3   OH236378   2.791   2.724  16.690  0.5420 -0.1273  0.1935
 4988TIP3    H136379   2.730   2.709  16.763 -0.3134  0.7000 -0.3448
 4988TIP3    H236380   2.775   2.650  16.631 -0.9758  0.8411 -0.6309
 4989TIP3   OH236381   3.770   1.181  15.296  0.1011 -0.0213  0.7204
 4989TIP3    H136382   3.713   1.225  15.359 -1.6041  0.5616 -1.1929
 4989TIP3    H236383   3.738   1.209  15.210  0.8794 -2.6581 -0.4808
 4990TIP3   OH236384   4.453   5.028   2.180  0.3055  0.2000  0.4630
 4990TIP3    H136385   4.410   5.102   2.136 -1.5775 -1.1075  0.0421
 4990TIP3    H236386   4.477   5.063   2.266  3.1572  2.5045 -1.1616
 4991TIP3   OH236387   1.987   2.100   3.762  0.3931  0.1046  0.2008
 4991TIP3    H136388   2.020   2.149   3.836  1.0918  0.1464 -0.1381
 4991TIP3    H236389   2.038   2.130   3.687  0.1938 -0.4609 -0.1755
 4992TIP3   OH236390   4.177   6.544   2.636  0.4139 -0.8764  0.4754
 4992TIP3    H136391   4.264   6.571   2.605 -0.6906 -0.0240 -1.9892
 4992TIP3    H236392   4.182   6.448   2.638  1.2390 -0.8597 -0.1775
 4993TIP3   OH236393   3.762   1.169  10.830  0.3281  0.1170  0.0986
 4993TIP3    H136394   3.839   1.147  10.881  0.2505 -0.3675  0.0047
 4993TIP3    H236395   3.689   1.130  10.878  0.0525  1.2399  0.6075
 4994TIP3   OH236396   6.762   4.053  15.093 -0.1736  0.2201  0.1344
 4994TIP3    H136397   6.839   4.110  15.096 -0.3675  0.6622 -1.9505
 4994TIP3    H236398   6.746   4.040  14.999 -1.8810 -0.8973  0.5499
 4995TIP3   OH236399   4.495   2.679  14.754  0.2063 -0.3415  0.0549
 4995TIP3    H136400   4.544   2.677  14.672 -0.4450 -0.4583 -0.3388
 4995TIP3    H236401   4.549   2.628  14.815  1.2672  0.7444  0.0409
 4996TIP3   OH236402   3.530   5.735   2.332  0.1858 -0.4578 -0.0442
 4996TIP3    H136403   3.611   5.784   2.322 -0.9083  1.5004  0.4081
 4996TIP3    H236404   3.507   5.745   2.425 -1.0163 -0.2382 -0.3528
 4997TIP3   OH236405   2.348   4.924  13.429 -0.0628  0.4734  0.5378
 4997TIP3    H136406   2.368   4.894  13.340 -1.7158 -1.6149  0.8242
 4997TIP3    H236407   2.434   4.933  13.471  0.6423 -0.5182 -0.6425
 4998TIP3   OH236408   1.845   2.018   5.753 -0.1010 -0.1988 -0.3269
 4998TIP3    H136409   1.820   2.102   5.714  1.4224  0.7173  0.6429
 4998TIP3    H236410   1.873   1.964   5.678 -1.3374  0.0407 -0.9795
 4999TIP3   OH236411   3.938   2.542   5.793 -0.0809 -0.1037  0.5675
 4999TIP3    H136412   3.884   2.563   5.717 -0.6345 -1.2791  0.6170
 4999TIP3    H236413   3.875   2.532   5.865  0.4944  1.5767  1.3056
 5000TIP3   OH236414   0.012   0.260  13.052 -0.4081  0.1672  0.2090
 5000TIP3    H136415   0.026   0.173  13.090  2.2534  0.2428 -0.5319
 5000TIP3    H236416  -0.056   0.247  12.986 -2.1694 -0.7456  2.1216
 5001TIP3   OH236417   3.204   5.243   5.000 -0.1822 -0.3571 -0.6968
 5001TIP3    H136418   3.280   5.209   4.953 -0.0052 -0.6057 -0.2321
 5001TIP3    H236419   3.157   5.295   4.935  1.1669  1.0231 -0.6020
 5002TIP3   OH236420   3.317   1.010   2.109 -0.4101 -0.0549 -0.2887
 5002TIP3    H136421   3.276   0.927   2.086 -0.8230  0.0526  0.0559
 5002TIP3    H236422   3.410   0.997   2.091 -0.0182 -1.5995  2.5559
 5003TIP3   OH236423   2.153   0.757  12.892 -0.5941  0.3259  0.0624
 5003TIP3    H136424   2.140   0.836  12.943  0.5371  0.9368 -0.5758
 5003TIP3    H236425   2.078   0.754  12.832 -0.5636  0.9909 -0.0080
 5004TIP3   OH236426   2.836   1.328   3.560  0.5557 -0.5198  0.4460
 5004TIP3    H136427   2.822   1.234   3.569  1.6903 -0.6516  0.8633
 5004TIP3    H236428   2.877   1.355   3.642 -0.3017  0.4532  0.5700
 5005TIP3   OH236429   0.026   4.829   2.701  0.8040  0.1185 -0.2311
 5005TIP3    H136430   0.063   4.915   2.681  1.6526 -0.6571 -2.1524
 5005TIP3    H236431   0.041   4.777   2.621 -0.2496 -1.6216  0.6624
 5006TIP3   OH236432   0.850   6.716   3.348  0.0172 -0.0506 -0.1665
 5006TIP3    H136433   0.798   6.776   3.294 -2.0629 -1.7464 -0.1011
 5006TIP3    H236434   0.803   6.713   3.431  0.7135 -0.9590  0.1958
 5007TIP3   OH236435   3.576   0.148   4.523  0.2982  0.1099  0.2926
 5007TIP3    H136436   3.575   0.179   4.614 -0.4086  0.2427  0.2456
 5007TIP3    H236437   3.537   0.061   4.527 -2.0256  1.0613 -0.1941
 5008TIP3   OH236438   1.274   2.824  13.739 -0.0665  0.4262  0.4978
 5008TIP3    H136439   1.289   2.917  13.723 -1.9761  0.8268  0.8817
 5008TIP3    H236440   1.186   2.808  13.705  0.3017 -1.2805  0.3095
 5009TIP3   OH236441   1.738   0.104  11.377 -0.3354 -0.5705 -0.3558
 5009TIP3    H136442   1.658   0.155  11.363  0.8873  1.4125 -0.2170
 5009TIP3    H236443   1.806   0.151  11.328  1.0214 -1.5178  0.5756
 5010TIP3   OH236444   4.413   4.552  15.751  0.3065 -0.0081  0.5783
 5010TIP3    H136445   4.329   4.511  15.729  0.7090 -1.6021  1.8798
 5010TIP3    H236446   4.403   4.579  15.842  0.7271  1.0637  0.3049
 5011TIP3   OH236447   0.942   4.095   3.911  0.4767 -0.2206 -0.0997
 5011TIP3    H136448   0.985   4.103   3.825  1.9249 -0.2832  0.6008
 5011TIP3    H236449   0.898   4.010   3.908 -2.6494  1.3766 -2.1495
 5012TIP3   OH236450   3.951   3.677  14.136 -0.1863  0.2759 -0.1322
 5012TIP3    H136451   3.925   3.594  14.176 -2.6185  0.7496 -0.6368
 5012TIP3    H236452   3.934   3.665  14.043  0.9365  0.8143 -0.4174
 5013TIP3   OH236453   2.534   1.857   0.111 -0.5624 -0.2009  0.3442
 5013TIP3    H136454   2.529   1.861   0.015 -0.2939  0.3774  0.3532
 5013TIP3    H236455   2.497   1.940   0.140 -0.8252 -0.4600  0.7515
 5014TIP3   OH236456   6.487   1.641  17.228 -0.9774  0.2918 -0.4311
 5014TIP3    H136457   6.501   1.584  17.303  1.6560  0.3568 -0.8540
 5014TIP3    H236458   6.462   1.726  17.266  0.1475  0.2683  0.3594
 5015TIP3   OH236459   1.701   6.120   5.320 -0.1687  0.0032 -0.3780
 5015TIP3    H136460   1.672   6.183   5.386  1.2094 -0.6642  0.8753
 5015TIP3    H236461   1.777   6.162   5.279  0.5765 -0.7200  0.2624
 5016TIP3   OH236462   4.424   4.149  17.138 -0.1512  0.0230  0.6114
 5016TIP3    H136463   4.386   4.153  17.226 -0.9467  0.4073  0.2489
 5016TIP3    H236464   4.383   4.073  17.098  0.3718 -0.2789  0.6417
 5017TIP3   OH236465   3.698   2.805   1.377  0.2581 -0.1587 -0.5575
 5017TIP3    H136466   3.628   2.818   1.313 -0.2763 -1.3620 -0.2256
 5017TIP3    H236467   3.693   2.712   1.401  1.7016 -0.1690 -0.2171
 5018TIP3   OH236468   3.327   0.850   1.170 -0.4883  0.1438  0.2602
 5018TIP3    H136469   3.277   0.812   1.097  1.0762  0.7997 -1.1797
 5018TIP3    H236470   3.293   0.939   1.178  0.1791  0.4762 -0.4934
 5019TIP3   OH236471   4.248   4.257  15.600  0.3017  0.1217  0.4031
 5019TIP3    H136472   4.318   4.205  15.560 -1.1485 -1.4098 -0.2204
 5019TIP3    H236473   4.170   4.235  15.549 -0.8375  1.0026  1.7326
 5020TIP3   OH236474   4.972   3.457  13.054  0.4621  0.2981  0.2601
 5020TIP3    H136475   5.017   3.509  12.988  1.3527  0.2951  0.8681
 5020TIP3    H236476   4.980   3.366  13.023  0.0689  0.3855 -0.1034
 5021TIP3   OH236477   0.302   6.562   5.825  0.5336 -0.3531 -0.1924
 5021TIP3    H136478   0.330   6.572   5.734 -1.1671  0.1769 -0.6668
 5021TIP3    H236479   0.214   6.600   5.828  0.8770  0.3375  1.8484
 5022TIP3   OH236480   6.340   5.736   2.793 -0.1660 -0.1366  0.1017
 5022TIP3    H136481   6.278   5.782   2.736 -0.8977 -0.3575  0.7086
 5022TIP3    H236482   6.391   5.806   2.834  1.9098 -0.0409 -2.5097
 5023TIP3   OH236483   4.695   0.497   2.606 -0.4611  0.1746 -0.4716
 5023TIP3    H136484   4.766   0.497   2.670  1.4445 -0.1467 -2.5254
 5023TIP3    H236485   4.683   0.405   2.584 -2.8688  0.0368  1.2703
 5024TIP3   OH236486   3.010   0.298   1.949  0.5722 -0.5980  0.1504
 5024TIP3    H136487   3.065   0.344   2.012  1.8971 -1.9131 -0.0264
 5024TIP3    H236488   3.037   0.207   1.955  0.4003 -0.8148 -1.9754
 5025TIP3   OH236489   2.676   0.972   4.541  0.2567 -0.1230 -0.1418
 5025TIP3    H136490   2.592   1.007   4.574 -1.0147 -1.8209 -1.4920
 5025TIP3    H236491   2.714   1.045   4.493 -0.3047  0.7674  0.7250
 5026TIP3   OH236492   0.091   1.108   0.696  0.7390 -0.3557 -0.2096
 5026TIP3    H136493   0.110   1.199   0.674  1.2357 -0.3431  0.2357
 5026TIP3    H236494   0.090   1.107   0.792  0.8193 -0.8309 -0.2132
 5027TIP3   OH236495   5.402   0.217  15.152  0.4497 -0.5428 -0.1068
 5027TIP3    H136496   5.333   0.163  15.190  0.2564  0.8485  1.5948
 5027TIP3    H236497   5.360   0.262  15.079 -0.3189 -0.1163  0.5834
 5028TIP3   OH236498   5.215   5.071   4.569 -0.3770 -0.7709 -0.3463
 5028TIP3    H136499   5.134   5.122   4.559 -0.2593 -0.8289 -1.6334
 5028TIP3    H236500   5.271   5.125   4.624 -1.0738 -0.4667  0.0678
 5029TIP3   OH236501   4.615   4.050  13.114 -0.4515 -0.4477  1.1896
 5029TIP3    H136502   4.621   3.983  13.046 -0.3321  0.9176 -0.1884
 5029TIP3    H236503   4.535   4.098  13.093  0.4967  1.0744  0.9702
 5030TIP3   OH236504   3.816   0.845  13.080  0.0723 -0.0197 -0.3106
 5030TIP3    H136505   3.802   0.873  13.171 -0.0146 -1.7040  0.2132
 5030TIP3    H236506   3.911   0.829  13.075 -0.0863 -1.0332 -0.1792
 5031TIP3   OH236507   4.149   2.251   6.034 -0.3894  0.4958 -0.2871
 5031TIP3    H136508   4.109   2.324   5.987 -0.7039  0.3832 -0.1924
 5031TIP3    H236509   4.128   2.268   6.126 -0.8317  0.0556 -0.3077
 5032TIP3   OH236510   5.294   1.504  10.998 -0.3210 -0.3420 -0.3798
 5032TIP3    H136511   5.259   1.451  11.070 -0.1279 -0.6035 -0.4784
 5032TIP3    H236512   5.389   1.503  11.011 -0.3845  0.9466  0.2946
 5033TIP3   OH236513   2.522   4.479  11.500  0.2975 -0.5451  0.6467
 5033TIP3    H136514   2.463   4.416  11.457 -1.2672  0.9043  0.5920
 5033TIP3    H236515   2.522   4.555  11.441  1.7984 -0.3087  0.9365
 5034TIP3   OH236516   6.560   3.513   0.092 -0.1849  0.0993 -0.3865
 5034TIP3    H136517   6.626   3.550   0.151  1.1002  0.5852 -2.0673
 5034TIP3    H236518   6.489   3.577   0.091 -1.3263 -1.0468  2.4753
 5035TIP3   OH236519   3.993   3.662   4.704  0.1606  0.5311 -0.0478
 5035TIP3    H136520   3.906   3.670   4.743 -0.1311 -0.2727 -0.5267
 5035TIP3    H236521   3.982   3.599   4.632  1.7038 -1.6877  1.5861
 5036TIP3   OH236522   1.095   0.035   4.833 -0.1718 -0.6762  0.4011
 5036TIP3    H136523   1.023   0.071   4.884  0.0216 -0.1103  0.2750
 5036TIP3    H236524   1.160   0.010   4.898  0.4229  0.8051  0.3905
 5037TIP3   OH236525   1.587   2.023   2.659  0.6206  0.3772 -0.4440
 5037TIP3    H136526   1.521   2.082   2.696  0.5522  0.0899 -0.1005
 5037TIP3    H236527   1.652   2.081   2.619 -0.4466  0.6329 -1.8404
 5038TIP3   OH236528   4.837   4.306  16.929  0.3182 -0.3159  0.5090
 5038TIP3    H136529   4.792   4.280  17.010  1.1061  1.5436  1.5981
 5038TIP3    H236530   4.767   4.328  16.868 -0.2881 -1.6043  0.7319
 5039TIP3   OH236531   4.337   0.284   6.113 -0.2153  0.1375  0.2937
 5039TIP3    H136532   4.270   0.234   6.159 -0.7094  0.7080  0.2101
 5039TIP3    H236533   4.413   0.283   6.171  0.4600 -2.3788 -0.5731
 5040TIP3   OH236534   3.538   0.068  10.665  0.3414 -0.3086 -0.1045
 5040TIP3    H136535   3.473   0.113  10.611 -2.4490 -2.4770  1.3840
 5040TIP3    H236536   3.548  -0.018  10.624  1.0574 -0.5772  0.6328
 5041TIP3   OH236537   1.339   2.359   6.054  0.2783 -0.1381  0.5613
 5041TIP3    H136538   1.270   2.354   5.988 -0.7342  0.6930  1.5467
 5041TIP3    H236539   1.391   2.279   6.040 -0.6612 -0.5930 -0.4173
 5042TIP3   OH236540   0.405   5.738  17.148  0.4090  0.4616 -0.3186
 5042TIP3    H136541   0.340   5.804  17.169 -0.6727 -0.5007 -0.6100
 5042TIP3    H236542   0.484   5.788  17.126 -0.8290  1.6775 -2.0668
 5043TIP3   OH236543   4.940   2.254   0.903 -0.1567 -0.0107  0.2462
 5043TIP3    H136544   4.865   2.245   0.961 -0.3600 -1.7632 -0.2684
 5043TIP3    H236545   5.014   2.218   0.953  0.8542  3.8544  1.6780
 5044TIP3   OH236546   2.165   0.184   3.153  0.5975 -0.4859  0.3586
 5044TIP3    H136547   2.226   0.110   3.152  1.2547  0.0320  1.3003
 5044TIP3    H236548   2.202   0.246   3.090 -0.1679 -1.1184 -0.7272
 5045TIP3   OH236549   4.552   1.507  14.796  0.1590  0.2835  0.0782
 5045TIP3    H136550   4.483   1.469  14.850 -1.0797  2.3478  0.0001
 5045TIP3    H236551   4.603   1.561  14.856 -0.4067  1.5064 -0.5235
 5046TIP3   OH236552   5.602   0.597  14.266 -0.0109  0.7602 -0.0714
 5046TIP3    H136553   5.511   0.589  14.295 -0.1653 -0.2732 -0.7967
 5046TIP3    H236554   5.614   0.522  14.207  1.1777  1.1460 -0.3161
 5047TIP3   OH236555   0.835   0.103   5.413 -0.4932 -0.2250 -0.0565
 5047TIP3    H136556   0.872   0.189   5.394 -1.3438  0.1436 -0.0681
 5047TIP3    H236557   0.906   0.041   5.392  0.3800  0.5037  0.6723
 5048TIP3   OH236558   6.158   1.954  14.546  0.4765 -0.1992 -0.1367
 5048TIP3    H136559   6.207   1.906  14.480  1.9008  1.5736 -0.4319
 5048TIP3    H236560   6.107   2.018  14.497  0.2746  0.0314  0.3644
 5049TIP3   OH236561   4.318   0.148   2.943 -0.7898  0.2643  0.3064
 5049TIP3    H136562   4.400   0.117   2.904 -0.9693 -0.2474  0.3333
 5049TIP3    H236563   4.327   0.243   2.944 -1.6399  0.4459 -2.8996
 5050TIP3   OH236564   0.855   5.060  13.234  0.1677  0.1828  0.3330
 5050TIP3    H136565   0.886   4.969  13.239 -1.1927 -0.3597 -0.7893
 5050TIP3    H236566   0.856   5.090  13.325  3.8326  0.1728  0.3867
 5051TIP3   OH236567   2.882   5.321   0.631 -0.6898  0.2231 -0.0622
 5051TIP3    H136568   2.975   5.303   0.647 -1.1393 -1.8822  0.2422
 5051TIP3    H236569   2.842   5.235   0.618 -1.6191  1.3609 -5.9629
 5052TIP3   OH236570   0.982   2.436  12.124  0.7998  0.0852  0.0188
 5052TIP3    H136571   0.965   2.510  12.067  1.3637  0.2292  0.0384
 5052TIP3    H236572   0.910   2.374  12.106  1.1432  0.0006 -1.0559
 5053TIP3   OH236573   0.997   1.606  13.619  0.1010  0.5407  1.2152
 5053TIP3    H136574   0.946   1.590  13.698  0.5263  0.8763  1.5569
 5053TIP3    H236575   0.969   1.692  13.588  0.0989  0.5077  1.1219
 5054TIP3   OH236576   2.978   4.224   3.620 -0.1958 -0.2678  0.2419
 5054TIP3    H136577   3.023   4.152   3.575 -0.4169 -1.7042  2.2768
 5054TIP3    H236578   3.048   4.285   3.644 -0.2185  1.3994 -3.4278
 5055TIP3   OH236579   0.175   1.224   5.502  0.3176  0.7016  0.1896
 5055TIP3    H136580   0.221   1.144   5.475 -0.8182  0.1365 -0.1027
 5055TIP3    H236581   0.125   1.250   5.425 -0.1547  1.0932  0.6250
 5056TIP3   OH236582   5.479   1.167   0.424  0.1822 -0.4792  0.0602
 5056TIP3    H136583   5.472   1.241   0.365 -0.8334  0.9637  1.9464
 5056TIP3    H236584   5.432   1.096   0.380 -0.0120  0.3831 -1.1365
 5057TIP3   OH236585   3.421   6.709   1.153 -0.8764  0.6023  0.4643
 5057TIP3    H136586   3.336   6.752   1.165 -0.9225  0.7543 -0.3265
 5057TIP3    H236587   3.482   6.781   1.136 -0.3746  0.5764  2.1306
 5058TIP3   OH236588   6.702   2.643  15.633  0.4828  0.1509  0.1460
 5058TIP3    H136589   6.703   2.567  15.692 -0.7237 -0.0122 -0.0276
 5058TIP3    H236590   6.617   2.684  15.648  0.0374 -0.0461 -1.6623
 5059TIP3   OH236591   1.840   5.633  14.721 -0.7257 -0.3252 -0.2638
 5059TIP3    H136592   1.871   5.662  14.635  0.4922 -0.5802  0.0838
 5059TIP3    H236593   1.867   5.542  14.727  1.4211  0.3700  1.3925
 5060TIP3   OH236594   0.706   0.658  14.119  0.5277 -0.1753 -0.8318
 5060TIP3    H136595   0.686   0.743  14.158 -1.5316 -0.3136 -1.5392
 5060TIP3    H236596   0.797   0.667  14.089 -0.1372  2.3248 -2.2655
 5061TIP3   OH236597   2.600   4.431   4.738 -0.2363 -0.0001  0.1709
 5061TIP3    H136598   2.609   4.381   4.657 -1.0993 -0.3505  0.2902
 5061TIP3    H236599   2.690   4.445   4.767  0.1290  1.0169 -1.3909
 5062TIP3   OH236600   6.146   5.563   1.517 -0.1815  0.7475 -0.2676
 5062TIP3    H136601   6.228   5.585   1.561  0.1698  1.9863 -1.5043
 5062TIP3    H236602   6.093   5.642   1.523 -1.0561  0.1549 -0.0170
 5063TIP3   OH236603   3.780   1.532   1.603  0.1701  0.0091 -0.1686
 5063TIP3    H136604   3.700   1.479   1.599 -0.7492  1.3770 -0.0734
 5063TIP3    H236605   3.789   1.569   1.515  0.9687 -0.5147 -0.3138
 5064TIP3   OH236606   4.514   1.843  13.251  0.1581  0.3422 -0.4962
 5064TIP3    H136607   4.430   1.797  13.257  0.0127  0.6067 -0.5313
 5064TIP3    H236608   4.550   1.815  13.167 -0.4353  1.1566 -1.0164
 5065TIP3   OH236609   5.595   6.043   1.946 -0.0091  0.0525 -0.6563
 5065TIP3    H136610   5.633   6.043   2.034  2.3078 -1.3868 -1.5998
 5065TIP3    H236611   5.527   5.976   1.949  0.8085 -0.7713 -0.2484
 5066TIP3   OH236612   2.073   2.669   2.412  0.0875  0.7040  0.3658
 5066TIP3    H136613   2.088   2.637   2.501  0.7099 -0.9556 -0.3097
 5066TIP3    H236614   2.161   2.680   2.376 -0.0957 -2.5037 -1.3462
 5067TIP3   OH236615   0.548   0.374   0.637  0.5536 -0.0119  0.2255
 5067TIP3    H136616   0.599   0.411   0.564  0.5464  0.2045  0.3309
 5067TIP3    H236617   0.608   0.311   0.678  0.6191 -0.0050  0.1419
 5068TIP3   OH236618   3.850   0.573   1.621  0.2803 -0.1918 -0.0070
 5068TIP3    H136619   3.789   0.567   1.548 -1.7446  2.3314  1.4014
 5068TIP3    H236620   3.805   0.528   1.693  1.0311 -0.2369  0.4364
 5069TIP3   OH236621   5.355   6.286   2.409 -0.3958 -0.3913 -0.5177
 5069TIP3    H136622   5.375   6.259   2.498 -1.5224 -0.3372 -0.2417
 5069TIP3    H236623   5.300   6.216   2.374  0.8657 -0.8946 -1.5100
 5070TIP3   OH236624   1.915   3.689   3.363 -0.8671 -0.0126  0.0371
 5070TIP3    H136625   1.875   3.712   3.447 -3.0651  1.1292 -1.2784
 5070TIP3    H236626   1.847   3.640   3.316  0.1694 -0.2417 -1.2610
 5071TIP3   OH236627   0.284   6.780  15.436 -0.4606 -0.6078  0.7544
 5071TIP3    H136628   0.378   6.769  15.448 -0.4925 -1.4962  0.2699
 5071TIP3    H236629   0.275   6.822  15.351 -0.5333 -1.4767  0.3243
 5072TIP3   OH236630   2.721   4.116  17.107 -0.1478  0.0741 -0.0749
 5072TIP3    H136631   2.762   4.196  17.074 -1.6133  0.5434 -0.8194
 5072TIP3    H236632   2.634   4.144  17.136 -0.1025 -0.9694  1.1116
 5073TIP3   OH236633   5.658   4.952  14.509  0.4069 -0.2028 -0.4584
 5073TIP3    H136634   5.637   4.931  14.600 -1.7435 -1.0722 -1.1353
 5073TIP3    H236635   5.749   4.923  14.498  1.7509  2.6081  2.2003
 5074TIP3   OH236636   3.299   4.878   4.724  0.3241  0.0770  0.4201
 5074TIP3    H136637   3.283   4.791   4.762 -0.3841  1.2150  2.8109
 5074TIP3    H236638   3.213   4.921   4.726  0.7134  0.9082 -0.5597
 5075TIP3   OH236639   1.225   3.847  13.516 -0.0297  0.3233 -0.3492
 5075TIP3    H136640   1.166   3.868  13.588  1.0834  1.0350  0.3640
 5075TIP3    H236641   1.202   3.757  13.492  0.1907 -0.2371  1.4699
 5076TIP3   OH236642   4.084   0.241  16.637 -0.2941  0.0510  0.4290
 5076TIP3    H136643   4.070   0.149  16.612  0.8622 -0.2915  1.0150
 5076TIP3    H236644   4.020   0.258  16.705 -0.2879 -0.4252  0.5545
 5077TIP3   OH236645   4.600   1.335  11.533 -0.0145 -0.1616 -0.1645
 5077TIP3    H136646   4.547   1.402  11.490  1.3652  1.0729  0.0033
 5077TIP3    H236647   4.665   1.310  11.468  1.8432  1.4384  1.0071
 5078TIP3   OH236648   4.202   1.975  14.751 -0.1967  0.4308  0.3456
 5078TIP3    H136649   4.173   1.986  14.661 -0.2747  1.5396  0.4995
 5078TIP3    H236650   4.188   1.882  14.770 -1.7949  0.5412 -0.2193
 5079TIP3   OH236651   1.453   3.475  16.337  0.0909 -0.0881  0.2777
 5079TIP3    H136652   1.391   3.418  16.383 -0.3275 -2.0980 -2.6582
 5079TIP3    H236653   1.530   3.478  16.393 -0.1359 -3.0237  0.8038
 5080TIP3   OH236654   3.659   5.725  17.159  0.2853  0.3538 -0.0015
 5080TIP3    H136655   3.615   5.701  17.240  1.6442  0.2360  0.7180
 5080TIP3    H236656   3.712   5.648  17.136  0.6062  0.7167 -0.5078
 5081TIP3   OH236657   2.199   3.871  13.467  0.4742 -0.1477 -0.5330
 5081TIP3    H136658   2.110   3.884  13.433 -0.0764  0.2304  0.9845
 5081TIP3    H236659   2.185   3.832  13.554  1.7597  0.7778  0.1033
 5082TIP3   OH236660   3.432   2.405   4.827  0.6300 -0.0773 -0.9265
 5082TIP3    H136661   3.351   2.430   4.783 -0.4979 -1.1406  0.4864
 5082TIP3    H236662   3.443   2.470   4.896 -0.4767 -1.4619  0.5816
 5083TIP3   OH236663   4.031   1.553   3.098 -0.0151 -0.3443 -0.2934
 5083TIP3    H136664   3.938   1.574   3.088  0.0494  0.2756  0.3859
 5083TIP3    H236665   4.055   1.510   3.015 -1.0041 -0.8868 -0.3052
 5084TIP3   OH236666   2.141   4.944  12.458 -0.0407 -0.1822  0.0920
 5084TIP3    H136667   2.236   4.947  12.448  0.0452  0.7272  1.1094
 5084TIP3    H236668   2.126   4.939  12.552 -1.0283  1.7748  0.0734
 5085TIP3   OH236669   2.006   3.434   3.417  0.3507  0.9080 -0.3380
 5085TIP3    H136670   1.977   3.525   3.410 -1.9826  0.4259  2.2934
 5085TIP3    H236671   2.081   3.436   3.476 -2.5633  0.6655  3.5435
 5086TIP3   OH236672   6.350   2.251  14.209 -0.0441  0.9742  0.0775
 5086TIP3    H136673   6.315   2.316  14.269  1.1296  0.1945  1.6269
 5086TIP3    H236674   6.445   2.253  14.224 -0.0188 -1.2375  0.3049
 5087TIP3   OH236675   1.281   6.520   2.391  0.3591  0.2904  0.3866
 5087TIP3    H136676   1.343   6.560   2.452  1.3158  0.2375 -0.5482
 5087TIP3    H236677   1.290   6.426   2.406 -1.7177  0.3405  2.4128
 5088TIP3   OH236678   4.486   2.701   4.481  0.2582 -0.3322 -0.6123
 5088TIP3    H136679   4.481   2.633   4.548 -0.8559 -0.8358 -1.1826
 5088TIP3    H236680   4.429   2.771   4.512 -0.3433 -0.6113 -1.0732
 5089TIP3   OH236681   6.668   3.033  16.934  0.0834 -0.0953 -0.1815
 5089TIP3    H136682   6.738   3.098  16.929 -0.2793  0.3671  0.6890
 5089TIP3    H236683   6.599   3.075  16.984 -0.0233 -1.2609  0.6928
 5090TIP3   OH236684   5.295   2.567  16.389  0.1384 -0.0956 -0.2886
 5090TIP3    H136685   5.375   2.619  16.374  0.1520 -0.1831 -0.5148
 5090TIP3    H236686   5.293   2.554  16.484  0.9536 -0.9732 -0.3854
 5091TIP3   OH236687   3.252   1.363  16.906  0.1959 -0.0960 -0.1472
 5091TIP3    H136688   3.274   1.446  16.946  0.1008  0.0699 -0.4384
 5091TIP3    H236689   3.329   1.339  16.856 -0.3729  0.6195 -1.3914
 5092TIP3   OH236690   0.638   3.258   0.582  0.3812  0.1692  0.0643
 5092TIP3    H136691   0.721   3.213   0.569 -0.7727 -1.6830 -1.2085
 5092TIP3    H236692   0.617   3.296   0.497 -1.0079 -1.0571 -0.1546
 5093TIP3   OH236693   0.683   1.820  13.808  0.3014 -0.0507 -0.4369
 5093TIP3    H136694   0.611   1.792  13.865  1.8550 -1.1794  1.0398
 5093TIP3    H236695   0.702   1.744  13.754  1.8679 -0.5697  0.7811
 5094TIP3   OH236696   5.213   0.858   1.359 -0.2762  0.5973 -0.4354
 5094TIP3    H136697   5.182   0.877   1.270 -3.6950  0.1125  0.5814
 5094TIP3    H236698   5.176   0.772   1.379  0.9806  0.4273  1.2259
 5095TIP3   OH236699   0.623   6.705  12.321  1.0524  0.1553 -0.1709
 5095TIP3    H136700   0.588   6.651  12.392  0.9989  0.0265 -0.2936
 5095TIP3    H236701   0.546   6.735  12.273  1.2082 -3.5695 -2.9607
 5096TIP3   OH236702   4.293   1.665  13.267  0.3425 -0.3389 -0.2192
 5096TIP3    H136703   4.333   1.632  13.347 -1.1355 -0.3279  0.5555
 5096TIP3    H236704   4.223   1.723  13.298  0.2103  0.2270 -1.5317
 5097TIP3   OH236705   6.575   3.899  16.606  0.0710 -0.2933 -0.4301
 5097TIP3    H136706   6.640   3.832  16.626  0.2570 -0.5897 -1.9209
 5097TIP3    H236707   6.531   3.866  16.527 -1.2227  0.3624  0.0045
 5098TIP3   OH236708   4.077   4.733  11.748 -0.0502  0.2347  0.0259
 5098TIP3    H136709   3.983   4.745  11.738 -0.2129 -0.5377  0.6016
 5098TIP3    H236710   4.114   4.770  11.668 -0.9287 -0.6346 -0.7960
 5099TIP3   OH236711   4.423   6.102   6.478 -0.0571 -0.2400 -0.4899
 5099TIP3    H136712   4.516   6.088   6.456  0.2212 -0.1141  0.5802
 5099TIP3    H236713   4.417   6.195   6.500 -0.2018 -0.4928  0.5579
 5100TIP3   OH236714   5.986   0.612  11.398 -0.3177  0.2304  0.4035
 5100TIP3    H136715   5.950   0.555  11.465 -1.3952  0.6680  0.2168
 5100TIP3    H236716   5.999   0.556  11.322 -1.8545  0.3027  0.0538
 5101TIP3   OH236717   6.010   0.097  12.860 -0.6413  0.2300  0.6639
 5101TIP3    H136718   5.958   0.114  12.939  0.0188 -0.0236  1.1586
 5101TIP3    H236719   6.062   0.176  12.849 -0.4526  0.1101  0.7024
 5102TIP3   OH236720   3.021   5.277   4.787 -0.4731 -0.1456  0.2452
 5102TIP3    H136721   2.974   5.204   4.828 -1.0587  0.5051  0.7384
 5102TIP3    H236722   3.042   5.245   4.699  2.0546 -2.0885  1.4980
 5103TIP3   OH236723   6.420   1.041   2.825 -0.4468  0.2861  0.1071
 5103TIP3    H136724   6.385   0.955   2.847 -0.8796 -0.0554 -1.7905
 5103TIP3    H236725   6.454   1.075   2.907  1.4143 -2.4771  0.5328
 5104TIP3   OH236726   4.100   2.034   3.440 -0.6664 -0.6246  0.1132
 5104TIP3    H136727   4.149   2.062   3.362  1.2257 -2.3078  0.6601
 5104TIP3    H236728   4.130   2.093   3.509 -0.2344 -0.9303  0.1904
 5105TIP3   OH236729   4.206   1.307   6.514 -0.1889  0.3117  0.2980
 5105TIP3    H136730   4.147   1.234   6.530 -1.2904  0.3938 -2.9477
 5105TIP3    H236731   4.167   1.381   6.560 -2.2076  0.1512 -1.0746
 5106TIP3   OH236732   2.091   5.859  11.326 -0.7923 -0.2091  0.5026
 5106TIP3    H136733   2.079   5.770  11.360 -0.2812  0.2298  1.8707
 5106TIP3    H236734   2.034   5.913  11.380 -1.3353  0.2639 -0.5334
 5107TIP3   OH236735   3.760   5.938  11.078 -0.5681 -0.0948 -0.4142
 5107TIP3    H136736   3.853   5.929  11.056 -0.2283  1.0189  0.5153
 5107TIP3    H236737   3.720   5.856  11.048  1.3332 -2.1353  2.2979
 5108TIP3   OH236738   3.568   6.628  15.909 -0.1313  0.4134  0.1340
 5108TIP3    H136739   3.583   6.614  16.002  0.7135  0.1775 -0.0345
 5108TIP3    H236740   3.487   6.580  15.890 -0.1507  0.2276  0.6828
 5109TIP3   OH236741   0.260   3.992  13.267  0.2774  0.2104  0.2665
 5109TIP3    H136742   0.179   4.020  13.309 -0.8728 -2.1771 -0.2883
 5109TIP3    H236743   0.246   4.010  13.174  1.4892  2.2989  0.4384
 5110TIP3   OH236744   5.984   3.776   2.442 -0.1288  0.5861 -0.4933
 5110TIP3    H136745   5.922   3.759   2.371 -0.4337 -1.5094  0.2180
 5110TIP3    H236746   6.065   3.800   2.399 -0.8783  1.3387 -1.4926
 5111TIP3   OH236747   3.651   0.191  12.525  0.3508  0.3054 -0.2271
 5111TIP3    H136748   3.627   0.281  12.547  1.6925  0.4496  0.7037
 5111TIP3    H236749   3.740   0.181  12.558 -0.3327 -1.8483  1.0920
 5112TIP3   OH236750   2.957   4.000   5.474 -0.1533 -0.1088  0.0560
 5112TIP3    H136751   2.926   4.082   5.513 -1.1465 -0.4153 -0.0692
 5112TIP3    H236752   3.052   4.011   5.467 -0.0590  0.3167  1.7233
 5113TIP3   OH236753   1.412   5.072   2.424  0.7587  0.4264 -0.0488
 5113TIP3    H136754   1.406   5.020   2.344  2.2830 -0.2678  0.2654
 5113TIP3    H236755   1.498   5.050   2.461  0.1961  0.9423  1.6355
 5114TIP3   OH236756   0.131   0.375  14.129 -0.0131 -0.4310 -0.1419
 5114TIP3    H136757   0.152   0.289  14.093 -0.5117 -0.9646  0.8140
 5114TIP3    H236758   0.113   0.429  14.053 -0.0155 -1.2688 -0.7403
 5115TIP3   OH236759   3.036   3.764  15.426 -0.2136 -0.2595  0.1592
 5115TIP3    H136760   3.027   3.848  15.470 -1.5324 -0.0554 -0.4744
 5115TIP3    H236761   3.117   3.727  15.461 -0.2701  0.7176  1.3570
 5116TIP3   OH236762   3.805   5.726  14.756  0.5877  0.5619  0.3062
 5116TIP3    H136763   3.726   5.767  14.791 -0.4008 -1.8737  1.0361
 5116TIP3    H236764   3.782   5.633  14.748  2.8759  0.0652 -0.9255
 5117TIP3   OH236765   0.494   1.311  11.508  0.0149  0.4584  0.0865
 5117TIP3    H136766   0.452   1.350  11.431  0.9236  0.9089 -0.1898
 5117TIP3    H236767   0.427   1.256  11.547  0.2233 -1.6244 -2.3658
 5118TIP3   OH236768   4.079   3.151   1.575  0.0614  0.0977  0.3019
 5118TIP3    H136769   3.999   3.174   1.623 -0.4852 -0.7219 -0.1976
 5118TIP3    H236770   4.055   3.161   1.483  0.2739 -0.9420  0.1244
 5119TIP3   OH236771   3.218   5.132  14.280  0.4080 -1.1244 -0.9629
 5119TIP3    H136772   3.135   5.180  14.287 -0.7819 -3.4228  1.3079
 5119TIP3    H236773   3.205   5.072  14.207 -0.3063 -2.1670  0.0127
 5120TIP3   OH236774   3.968   5.658  12.554  0.7766 -0.1531  0.3983
 5120TIP3    H136775   3.885   5.686  12.593 -0.0971 -1.0226 -0.7936
 5120TIP3    H236776   3.993   5.730  12.495  0.4836 -0.2221  0.1914
 5121TIP3   OH236777   6.410   5.346   1.057  0.4664 -0.0359  0.3415
 5121TIP3    H136778   6.486   5.328   1.002  0.3367 -1.0333  0.4758
 5121TIP3    H236779   6.371   5.260   1.072 -2.5135  0.7251 -2.3894
 5122TIP3   OH236780   6.368   0.356   3.726  0.6544  0.1288 -0.0394
 5122TIP3    H136781   6.277   0.328   3.729  0.1980  1.3151 -2.0440
 5122TIP3    H236782   6.417   0.281   3.760 -1.0286 -0.6358  0.7466
 5123TIP3   OH236783   3.671   5.902   3.877 -0.6666  0.0508 -0.3985
 5123TIP3    H136784   3.688   5.866   3.791 -1.2799 -0.8155 -0.1659
 5123TIP3    H236785   3.651   5.826   3.932 -1.8701  0.7336  0.1269
 5124TIP3   OH236786   5.833   5.795   3.723 -0.1241 -0.4408 -0.3970
 5124TIP3    H136787   5.793   5.722   3.771 -0.3237 -0.0966 -0.0357
 5124TIP3    H236788   5.840   5.763   3.633 -0.7123 -0.7092 -0.3512
 5125TIP3   OH236789   2.149   3.446   3.007 -0.5452  0.8422 -0.2359
 5125TIP3    H136790   2.196   3.427   2.926 -0.8784 -0.4931 -0.1264
 5125TIP3    H236791   2.087   3.515   2.983 -2.0574 -0.9481 -1.6307
 5126TIP3   OH236792   4.955   0.788  16.463  0.1216  0.4550  0.3867
 5126TIP3    H136793   4.939   0.825  16.376  0.0411 -2.2437 -0.7962
 5126TIP3    H236794   5.028   0.840  16.497 -0.5375  2.2458 -0.8242
 5127TIP3   OH236795   2.975   0.561   0.657  0.1389  0.3104  0.3173
 5127TIP3    H136796   3.018   0.485   0.617  1.0100 -0.2187  2.1823
 5127TIP3    H236797   2.948   0.615   0.583 -1.2123 -2.1926 -1.0677
 5128TIP3   OH236798   3.028   3.891  16.700 -0.0042  0.1350  0.1326
 5128TIP3    H136799   2.985   3.818  16.745  0.2081  1.4474  2.5524
 5128TIP3    H236800   3.081   3.933  16.768  0.2779  2.2513 -1.3533
 5129TIP3   OH236801   3.074   4.565  15.579 -0.5133  0.1867 -0.4118
 5129TIP3    H136802   3.085   4.594  15.489 -0.2200  0.7334 -0.2029
 5129TIP3    H236803   3.162   4.540  15.608 -0.6068  0.0034 -0.2846
 5130TIP3   OH236804   0.689   3.538  16.581  0.7883 -0.4538  0.2399
 5130TIP3    H136805   0.639   3.457  16.594 -0.4257  0.0282 -1.2456
 5130TIP3    H236806   0.638   3.605  16.625  0.8250 -0.1774 -0.1401
 5131TIP3   OH236807   2.039   4.032  10.951  0.6494 -0.0869  0.0949
 5131TIP3    H136808   1.948   4.042  10.921 -0.1608  1.5133  2.9493
 5131TIP3    H236809   2.044   3.942  10.983  0.5506 -0.6809 -1.4765
 5132TIP3   OH236810   0.386   6.535   0.599  0.2270  0.2659  0.6499
 5132TIP3    H136811   0.309   6.536   0.542  2.2006 -0.3212 -2.1171
 5132TIP3    H236812   0.387   6.621   0.640 -1.1466  0.7465 -0.3039
 5133TIP3   OH236813   0.059   2.558   4.602  0.0899  0.0694 -0.3301
 5133TIP3    H136814  -0.013   2.579   4.661  0.2084  0.0187 -0.1687
 5133TIP3    H236815   0.064   2.634   4.543 -0.2902 -0.0627 -0.5323
 5134TIP3   OH236816   3.587   6.240  16.038 -0.9084  0.5182  0.0745
 5134TIP3    H136817   3.645   6.226  16.113 -0.2176 -0.6054 -0.6541
 5134TIP3    H236818   3.543   6.323  16.056  0.3382  0.9805  1.0253
 5135TIP3   OH236819   6.738   2.603   3.266  0.9458  0.2600 -0.1441
 5135TIP3    H136820   6.749   2.605   3.171 -1.6822 -0.7368 -0.5269
 5135TIP3    H236821   6.795   2.532   3.295 -0.7330 -1.6575 -1.4105
 5136TIP3   OH236822   3.714   5.326  15.256 -0.4081 -0.5180  0.0151
 5136TIP3    H136823   3.765   5.391  15.305  1.0439 -1.6483  0.0236
 5136TIP3    H236824   3.779   5.277  15.206 -1.5911 -1.3335 -0.7529
 5137TIP3   OH236825   0.192   5.329   3.287  0.3617  0.3573 -0.1495
 5137TIP3    H136826   0.170   5.326   3.194 -0.5100  0.0776  0.0610
 5137TIP3    H236827   0.218   5.239   3.309 -0.5999  0.1394  0.1459
 5138TIP3   OH236828   4.139   6.111   2.205  0.2207  0.1286 -0.2132
 5138TIP3    H136829   4.213   6.080   2.153  1.7787 -0.0714  2.0787
 5138TIP3    H236830   4.062   6.074   2.161  1.6164 -1.6497 -1.2400
 5139TIP3   OH236831   6.163   1.533  16.717  0.5777  0.1011 -0.6232
 5139TIP3    H136832   6.226   1.521  16.645  1.3805 -0.6424  0.1809
 5139TIP3    H236833   6.201   1.484  16.790 -0.8494 -0.1910 -0.0546
 5140TIP3   OH236834   6.307   6.663  14.005  0.8896 -0.0792 -0.1413
 5140TIP3    H136835   6.367   6.590  13.987  2.0013  0.7171  0.2778
 5140TIP3    H236836   6.308   6.672  14.100 -0.7671 -0.7728 -0.0446
 5141TIP3   OH236837   2.305   0.915   5.396 -0.2049  0.0029  0.3397
 5141TIP3    H136838   2.378   0.854   5.398 -0.2544 -0.2850 -3.0560
 5141TIP3    H236839   2.344   0.999   5.373 -0.8448 -0.0334 -0.9218
 5142TIP3   OH236840   4.710   2.619   3.758  0.3314 -0.1344 -0.0819
 5142TIP3    H136841   4.772   2.685   3.727 -0.5307  0.0463 -1.4397
 5142TIP3    H236842   4.754   2.579   3.834  2.0511  0.0622 -0.9524
 5143TIP3   OH236843   4.251   0.639  11.907  0.0127  0.1472 -0.5516
 5143TIP3    H136844   4.261   0.723  11.951  0.2497  0.7948 -1.8182
 5143TIP3    H236845   4.231   0.577  11.978  3.8594  0.4837  0.9584
 5144TIP3   OH236846   4.315   6.648   0.429 -0.3219  0.3998  0.1872
 5144TIP3    H136847   4.407   6.645   0.401 -0.1902  1.7657  0.4296
 5144TIP3    H236848   4.298   6.561   0.466  0.8443  0.1058  0.0485
 5145TIP3   OH236849   2.043   3.506   1.725  0.1320  0.1462 -0.1762
 5145TIP3    H136850   1.964   3.485   1.774 -0.5008  0.2407 -1.1569
 5145TIP3    H236851   2.082   3.420   1.705 -0.6804  0.0192 -1.2569
 5146TIP3   OH236852   3.703   2.059   5.141  0.3002  0.0908 -0.3074
 5146TIP3    H136853   3.785   2.104   5.121  0.0744  0.7752  0.3218
 5146TIP3    H236854   3.676   2.021   5.058  0.2537  1.4946 -0.9429
 5147TIP3   OH236855   5.502   4.692  12.468 -0.0263 -0.2407 -0.0651
 5147TIP3    H136856   5.531   4.683  12.377  1.2590  0.5465  0.2601
 5147TIP3    H236857   5.516   4.605  12.506 -1.2212 -0.7695 -0.7839
 5148TIP3   OH236858   4.997   4.184   6.038 -0.0452  0.8808 -0.6249
 5148TIP3    H136859   5.050   4.161   5.961  0.1710  2.1998 -0.8892
 5148TIP3    H236860   5.040   4.262   6.073  0.3541 -0.2020  1.3352
 5149TIP3   OH236861   6.650   2.857   2.817  0.5446  0.0775  0.2754
 5149TIP3    H136862   6.574   2.874   2.761  0.7735  1.0753  0.2542
 5149TIP3    H236863   6.624   2.888   2.904  1.3824  1.6883 -0.0156
 5150TIP3   OH236864   1.228   2.779  16.579  0.5304  0.7704  0.6926
 5150TIP3    H136865   1.190   2.798  16.494  0.1138 -0.6442  0.5520
 5150TIP3    H236866   1.158   2.797  16.642 -1.3037 -4.0363  0.2850
 5151TIP3   OH236867   2.982   3.232  17.099 -0.1628 -0.7889  0.2007
 5151TIP3    H136868   2.944   3.227  17.187  0.8391 -1.6342  0.5927
 5151TIP3    H236869   3.001   3.141  17.077  2.0625 -0.3383  0.1963
 5152TIP3   OH236870   4.567   3.295  12.005  0.1518 -1.1904 -0.5904
 5152TIP3    H136871   4.617   3.318  11.927  0.9112 -1.7768 -0.2726
 5152TIP3    H236872   4.609   3.344  12.076  1.3217 -2.9565 -0.0350
 5153TIP3   OH236873   1.607   2.511   5.925  0.2494 -0.4665  0.2378
 5153TIP3    H136874   1.518   2.514   5.960  0.8294 -1.8631  1.8550
 5153TIP3    H236875   1.596   2.483   5.834 -0.9239 -1.0832  0.5614
 5154TIP3   OH236876   3.066   6.413  11.940 -0.1489  0.9874  0.3720
 5154TIP3    H136877   3.140   6.466  11.971  0.8412 -0.5132  0.6222
 5154TIP3    H236878   3.037   6.457  11.860  2.0700  0.6915 -0.6387
 5155TIP3   OH236879   0.018   2.266   5.782 -0.2963 -0.5646 -0.3150
 5155TIP3    H136880   0.060   2.352   5.786 -0.5687 -0.4961  1.3474
 5155TIP3    H236881   0.039   2.233   5.694  0.0065  1.0862 -0.8755
 5156TIP3   OH236882   3.418   4.938  13.726  0.0794 -0.2945  0.5135
 5156TIP3    H136883   3.326   4.964  13.720 -0.2363 -1.7134 -1.5519
 5156TIP3    H236884   3.416   4.851  13.764  0.5136 -0.5728 -0.0912
 5157TIP3   OH236885   0.874   1.625   1.634 -0.1583  0.0105  0.1578
 5157TIP3    H136886   0.896   1.577   1.554 -0.8604 -0.2812  0.1333
 5157TIP3    H236887   0.936   1.697   1.636 -0.9014  0.7261 -1.3137
 5158TIP3   OH236888   5.923   2.068  10.610  0.1295  0.0211 -0.1238
 5158TIP3    H136889   5.981   2.144  10.614 -0.3980  0.5039 -1.4636
 5158TIP3    H236890   5.836   2.106  10.596 -0.2612 -0.7970  0.0818
 5159TIP3   OH236891   6.282   5.428   4.252 -0.1679  0.6591  0.3736
 5159TIP3    H136892   6.295   5.522   4.262  1.4651  0.4735  0.1003
 5159TIP3    H236893   6.370   5.392   4.242 -0.9276 -0.5861 -2.2791
 5160TIP3   OH236894   0.604   6.437  10.960  0.3486 -0.1614 -0.1935
 5160TIP3    H136895   0.666   6.491  11.008 -0.3251  0.9419 -0.5296
 5160TIP3    H236896   0.654   6.361  10.932  1.3505  0.3603  0.1625
 5161TIP3   OH236897   1.168   5.628   1.353 -0.2663  0.2267  0.5334
 5161TIP3    H136898   1.073   5.619   1.359 -0.5167  1.9914 -0.5559
 5161TIP3    H236899   1.185   5.721   1.368  1.2850 -0.0460  0.5824
 5162TIP3   OH236900   0.798   3.911   3.547 -0.8201 -0.0706 -0.0516
 5162TIP3    H136901   0.828   3.883   3.634 -0.5068 -0.3558 -0.2469
 5162TIP3    H236902   0.860   3.979   3.521 -1.4570  0.6504  0.3338
 5163TIP3   OH236903   5.226   1.394   5.435 -0.0950 -0.0398 -0.2250
 5163TIP3    H136904   5.243   1.300   5.430  0.0146 -0.1808  2.1231
 5163TIP3    H236905   5.304   1.430   5.477 -1.6205  0.5721  2.1969
 5164TIP3   OH236906   3.319   0.848  15.106  0.0957 -0.2140  0.8395
 5164TIP3    H136907   3.383   0.782  15.082 -0.4308 -0.5955  0.4663
 5164TIP3    H236908   3.371   0.922  15.138  0.9820  0.9315 -2.9104
 5165TIP3   OH236909   5.893   2.748   5.528 -0.5967  0.6634 -0.3432
 5165TIP3    H136910   5.842   2.736   5.608 -0.6765 -0.2529 -0.5228
 5165TIP3    H236911   5.978   2.778   5.558 -0.9548  1.3045  0.0204
 5166TIP3   OH236912   6.012   0.992   4.111  0.3562 -0.4703  0.0989
 5166TIP3    H136913   6.071   1.051   4.065  0.9945 -0.5302  0.8368
 5166TIP3    H236914   5.972   1.046   4.179 -1.3729 -0.1094 -1.1609
 5167TIP3   OH236915   3.641   3.318   3.661  0.4099  0.4591 -0.8494
 5167TIP3    H136916   3.687   3.389   3.706  1.8293 -0.4009 -0.9161
 5167TIP3    H236917   3.646   3.341   3.569 -0.2043  0.8852 -0.7815
 5168TIP3   OH236918   6.254   2.151   4.847 -0.0713 -0.1720  0.1384
 5168TIP3    H136919   6.253   2.240   4.810 -1.4914 -0.1302  0.2659
 5168TIP3    H236920   6.197   2.156   4.923  0.1248 -1.1138  0.3520
 5169TIP3   OH236921   0.468   3.657   3.182 -0.4091  0.0593  0.0659
 5169TIP3    H136922   0.411   3.730   3.161  0.2777  0.6249  0.1781
 5169TIP3    H236923   0.547   3.697   3.219 -0.2076 -0.7490  0.5265
 5170TIP3   OH236924   6.279   0.974   3.452 -0.2263 -0.2493  0.0961
 5170TIP3    H136925   6.303   0.885   3.428 -1.0925 -0.1533 -1.1865
 5170TIP3    H236926   6.205   0.964   3.512 -1.7758 -0.3572 -1.7906
 5171TIP3   OH236927   3.584   1.260   2.236 -0.5886  0.4349  0.3059
 5171TIP3    H136928   3.610   1.186   2.292  1.3789  1.5041  0.8607
 5171TIP3    H236929   3.532   1.220   2.167 -1.0499 -1.2361  1.5867
 5172TIP3   OH236930   2.253   0.736  14.229  0.6118 -0.0072 -0.7137
 5172TIP3    H136931   2.294   0.700  14.308 -1.6606 -0.1151  0.4412
 5172TIP3    H236932   2.264   0.831  14.237 -2.6682  0.2479  1.5231
 5173TIP3   OH236933   0.637   3.585  12.420 -0.3782 -0.2034 -0.4927
 5173TIP3    H136934   0.609   3.495  12.434  0.6397 -0.6551 -1.2769
 5173TIP3    H236935   0.718   3.577  12.370  2.2021  0.9279  3.2214
 5174TIP3   OH236936   4.736   3.443  12.753 -0.2634 -0.0436 -0.1687
 5174TIP3    H136937   4.770   3.416  12.667  1.9510 -1.2447  1.0344
 5174TIP3    H236938   4.749   3.366  12.809  1.4773  1.7970  2.0723
 5175TIP3   OH236939   2.720   3.010  13.504 -0.3628  0.4273  0.3632
 5175TIP3    H136940   2.752   3.100  13.502 -3.7978  1.7530  0.2726
 5175TIP3    H236941   2.727   2.980  13.413 -0.6167  1.1655  0.0946
 5176TIP3   OH236942   5.373   1.441   6.004  0.0379  0.0947 -1.0523
 5176TIP3    H136943   5.388   1.347   5.994 -0.7913 -0.3028  1.0170
 5176TIP3    H236944   5.347   1.472   5.917  2.4613 -1.1614 -2.2542
 5177TIP3   OH236945   0.607   6.091   0.572 -0.2740 -0.4168 -0.4506
 5177TIP3    H136946   0.544   6.162   0.574  0.5022  0.2751 -0.0961
 5177TIP3    H236947   0.692   6.135   0.567  0.2161 -1.3128 -0.0925
 5178TIP3   OH236948   6.572   5.894  16.489  0.0690  0.2881 -0.8367
 5178TIP3    H136949   6.602   5.805  16.467  0.0429 -0.0762  0.5383
 5178TIP3    H236950   6.623   5.951  16.432  1.2906 -0.5179 -0.5820
 5179TIP3   OH236951   5.314   1.310  15.985  0.0396  0.6235 -0.1296
 5179TIP3    H136952   5.289   1.399  16.010 -2.1175  0.1816 -0.6451
 5179TIP3    H236953   5.384   1.323  15.920 -0.3164  1.9296 -0.2740
 5180TIP3   OH236954   1.340   6.328  16.605 -0.7324  0.1502  0.3099
 5180TIP3    H136955   1.295   6.300  16.525 -0.8440 -1.5340  0.9339
 5180TIP3    H236956   1.424   6.282  16.601 -1.2871 -1.0162  1.8227
 5181TIP3   OH236957   0.878   4.294   3.099 -0.3240  0.1763 -0.5915
 5181TIP3    H136958   0.891   4.203   3.127 -0.2856  0.1487 -0.6987
 5181TIP3    H236959   0.841   4.287   3.011 -0.0355  0.2657 -0.7211
 5182TIP3   OH236960   4.868   4.162  13.323  0.2409 -0.2223  0.6729
 5182TIP3    H136961   4.879   4.074  13.358  1.8019  0.9271  3.2391
 5182TIP3    H236962   4.903   4.157  13.234 -2.1793 -2.7964 -0.2111
 5183TIP3   OH236963   0.302   2.910   2.064 -0.4769  0.1309 -0.5839
 5183TIP3    H136964   0.285   2.819   2.088  0.0794  0.0873 -0.3707
 5183TIP3    H236965   0.311   2.907   1.969 -1.7063  0.1597 -0.7198
 5184TIP3   OH236966   2.202   6.698  12.303 -0.0121  0.4061  0.2695
 5184TIP3    H136967   2.296   6.720  12.305 -0.1171  0.8883 -0.1391
 5184TIP3    H236968   2.181   6.679  12.394  0.6842 -0.5435  0.2456
 5185TIP3   OH236969   5.951   4.949   5.739  0.4559 -0.1155 -0.6595
 5185TIP3    H136970   5.985   4.860   5.742  1.3470  0.2168 -0.6182
 5185TIP3    H236971   5.951   4.978   5.831 -0.7162 -0.4023 -0.5722
 5186TIP3   OH236972   3.572   3.333   2.363  0.1518 -0.0140 -0.0066
 5186TIP3    H136973   3.576   3.415   2.412  2.5876 -0.8287  1.2007
 5186TIP3    H236974   3.591   3.357   2.272  0.5416  0.7903  0.2914
 5187TIP3   OH236975   2.514   6.137   6.617 -0.6289 -0.2770  0.4143
 5187TIP3    H136976   2.510   6.211   6.679 -0.5016  0.1964 -0.1354
 5187TIP3    H236977   2.486   6.175   6.534 -0.3746 -0.8081  0.0867
 5188TIP3   OH236978   3.013   2.434   4.214 -0.0831 -0.4302 -0.7083
 5188TIP3    H136979   3.019   2.361   4.152  2.7482 -0.2365 -0.7402
 5188TIP3    H236980   3.022   2.512   4.160  0.5449 -0.1944 -0.2702
 5189TIP3   OH236981   1.497   2.679   6.161 -0.0423  0.3875 -0.0294
 5189TIP3    H136982   1.568   2.648   6.217 -1.0450 -1.6924  0.1375
 5189TIP3    H236983   1.538   2.743   6.104  1.9756 -0.8008  0.0383
 5190TIP3   OH236984   6.505   1.906   3.590 -0.7008 -0.2636  0.4431
 5190TIP3    H136985   6.536   1.839   3.651 -0.9265 -0.2375  0.5839
 5190TIP3    H236986   6.579   1.967   3.582 -1.0434  0.3037  1.4933
 5191TIP3   OH236987   0.526   5.142  11.713  0.3628 -0.4507  0.3363
 5191TIP3    H136988   0.614   5.139  11.674  0.1505 -1.1615 -0.1122
 5191TIP3    H236989   0.539   5.182  11.799  1.0001  0.2142 -0.0600
 5192TIP3   OH236990   3.118   0.646   1.152 -0.3547 -0.5895  1.2357
 5192TIP3    H136991   3.147   0.661   1.242 -0.8192  0.4873  1.2179
 5192TIP3    H236992   3.160   0.565   1.126  1.0846 -0.0603  1.8662
 5193TIP3   OH236993   4.851   4.923   3.981 -0.0309 -0.2478 -0.0319
 5193TIP3    H136994   4.785   4.940   3.914 -2.4232 -2.1370  1.7236
 5193TIP3    H236995   4.864   4.828   3.977 -0.2675 -0.3970  2.1840
 5194TIP3   OH236996   0.550   1.021  16.549 -0.2140  0.8534  0.1687
 5194TIP3    H136997   0.577   0.946  16.497 -1.1722  1.5844 -1.4031
 5194TIP3    H236998   0.631   1.050  16.592  0.0583 -1.3864  1.2356
 5195TIP3   OH236999   4.867   0.079   1.669 -0.2145  0.2798 -0.5660
 5195TIP3    H137000   4.882   0.010   1.734  0.4705  2.7676  2.0488
 5195TIP3    H237001   4.780   0.061   1.634  0.4821 -2.6181 -0.8895
 5196TIP3   OH237002   2.282   0.475   2.176  1.0101 -0.0099  0.0931
 5196TIP3    H137003   2.333   0.550   2.206  0.1799 -0.2338  2.1993
 5196TIP3    H237004   2.256   0.431   2.257 -0.8426 -0.9987 -1.0083
 5197TIP3   OH237005   2.302   4.007   4.043  0.1053  0.0540 -0.4912
 5197TIP3    H137006   2.267   4.025   4.130  0.9260  0.7376 -0.2951
 5197TIP3    H237007   2.230   4.025   3.983 -0.1767  0.4816 -0.0211
 5198TIP3   OH237008   4.875   1.309  17.234  0.3769 -0.4682  0.3623
 5198TIP3    H137009   4.874   1.394  17.191  0.5677 -1.1592 -1.0390
 5198TIP3    H237010   4.937   1.256  17.183  1.2517 -1.0657  1.9868
 5199TIP3   OH237011   1.041   2.582   3.058 -0.0702 -0.4197 -0.4746
 5199TIP3    H137012   0.996   2.629   2.988 -1.2074 -2.4596 -1.1578
 5199TIP3    H237013   0.999   2.613   3.138 -0.2830  0.2847 -0.8533
 5200TIP3   OH237014   1.976   5.089   2.842 -0.1788  0.1249 -0.2123
 5200TIP3    H137015   1.996   5.077   2.749  0.8969  1.1387 -0.1107
 5200TIP3    H237016   1.947   5.180   2.849 -0.5708 -0.0448  0.4019
 5201TIP3   OH237017   6.679   0.639   4.766  0.1081  0.3375 -0.0313
 5201TIP3    H137018   6.615   0.622   4.698  0.7154 -1.2722 -0.2084
 5201TIP3    H237019   6.725   0.556   4.778 -0.0734  0.5445  2.4201
 5202TIP3   OH237020   1.068   6.540   4.142  0.6606 -0.0350  0.4704
 5202TIP3    H137021   1.137   6.481   4.170  0.3505 -0.5803  0.0890
 5202TIP3    H237022   1.081   6.549   4.047  0.9024  0.7589  0.5747
 5203TIP3   OH237023   6.743   5.221  14.945 -0.2317 -0.2451  0.8531
 5203TIP3    H137024   6.734   5.249  14.854 -1.0030  0.3128  1.1067
 5203TIP3    H237025   6.717   5.128  14.944  0.8931 -0.5671  0.2987
 5204TIP3   OH237026   4.660   4.564   1.359  0.7194 -0.3489 -0.2323
 5204TIP3    H137027   4.627   4.488   1.312  1.1805 -0.3274 -0.5989
 5204TIP3    H237028   4.699   4.620   1.292 -0.1820  0.5169 -0.0478
 5205TIP3   OH237029   0.756   6.604   4.250 -0.2878  0.1211 -0.4427
 5205TIP3    H137030   0.734   6.661   4.324 -1.3996 -1.0456  0.1307
 5205TIP3    H237031   0.852   6.605   4.248 -0.1345 -1.7347  2.5360
 5206TIP3   OH237032   6.039   6.672  11.634  0.1283 -0.0232  0.6140
 5206TIP3    H137033   6.048   6.580  11.661  1.2812 -0.3623 -0.8575
 5206TIP3    H237034   6.123   6.692  11.592 -0.1610  1.6816  0.8486
 5207TIP3   OH237035   5.951   4.086   0.485  0.1270 -0.3235 -0.3403
 5207TIP3    H137036   5.947   4.143   0.562 -1.7982 -0.6331 -0.1995
 5207TIP3    H237037   6.022   4.123   0.432 -0.8534  2.0042 -0.0972
 5208TIP3   OH237038   5.829   0.012   0.139  0.0255 -0.1826 -0.0659
 5208TIP3    H137039   5.798   0.063   0.213 -0.0589 -0.9799  0.4529
 5208TIP3    H237040   5.758   0.018   0.074 -0.5133 -0.6507  0.4747
 5209TIP3   OH237041   1.910   1.374   1.850  0.2152  0.0453  0.0352
 5209TIP3    H137042   1.882   1.325   1.928 -0.2643  1.5639  0.8342
 5209TIP3    H237043   1.974   1.317   1.808 -1.0279 -1.6802  0.4444
 5210TIP3   OH237044   3.947   0.378   3.038  0.2002  0.4448 -0.2612
 5210TIP3    H137045   3.924   0.471   3.030 -2.6890 -0.3348 -1.4079
 5210TIP3    H237046   3.902   0.349   3.117  2.7184  0.4415  1.2322
 5211TIP3   OH237047   0.191   2.859  16.240  0.2730 -0.4383  0.5328
 5211TIP3    H137048   0.141   2.863  16.322 -0.3457  2.3040  0.0874
 5211TIP3    H237049   0.133   2.901  16.175  1.0261 -1.9618 -1.1782
 5212TIP3   OH237050   4.386   2.513  13.435  0.5955 -0.0939 -0.2383
 5212TIP3    H137051   4.341   2.462  13.368  1.5430  0.2718 -1.1607
 5212TIP3    H237052   4.364   2.469  13.517  0.1301 -1.0562 -0.8686
 5213TIP3   OH237053   1.736   5.272  15.629  0.6267 -0.0274  0.2288
 5213TIP3    H137054   1.710   5.272  15.537  1.9023  3.3223 -0.2035
 5213TIP3    H237055   1.679   5.336  15.670  2.8676  1.6212  0.8629
 5214TIP3   OH237056   0.514   0.379   2.729  0.0508  0.5973  0.5953
 5214TIP3    H137057   0.440   0.435   2.707  0.0128 -1.1122 -4.3357
 5214TIP3    H237058   0.587   0.416   2.679  0.3925 -2.6769 -1.4739
 5215TIP3   OH237059   3.513   2.722  15.031 -0.5039  0.0264 -0.2261
 5215TIP3    H137060   3.595   2.761  15.059 -1.8602  2.7853  0.1174
 5215TIP3    H237061   3.530   2.628  15.027  2.1655  0.4091  1.4560
 5216TIP3   OH237062   6.205   2.538  15.052  0.3788 -0.4977  0.5183
 5216TIP3    H137063   6.114   2.537  15.022  0.3591 -1.1132  0.6123
 5216TIP3    H237064   6.251   2.480  14.992  0.4258 -1.3859  1.4073
 5217TIP3   OH237065   1.318   4.168   1.646  0.1075  0.3105  0.2692
 5217TIP3    H137066   1.254   4.134   1.710 -1.2743  0.5650 -0.9460
 5217TIP3    H237067   1.329   4.260   1.670 -0.9045  0.5735 -0.2310
 5218TIP3   OH237068   3.536   2.175  17.196  0.0953  0.8550  0.1612
 5218TIP3    H137069   3.576   2.115  17.133 -1.6076 -0.0504 -0.0974
 5218TIP3    H237070   3.475   2.227  17.144  0.5746  1.8869  0.6218
 5219TIP3   OH237071   4.991   5.219  14.143 -0.2575  0.0035  0.4584
 5219TIP3    H137072   4.982   5.194  14.051 -0.0861  0.1773  0.3964
 5219TIP3    H237073   5.082   5.202  14.164 -0.7126 -1.8202  1.1185
 5220TIP3   OH237074   4.307   3.824  16.183 -0.2255  0.2553  0.4092
 5220TIP3    H137075   4.335   3.871  16.105  0.3155  1.1115  1.1105
 5220TIP3    H237076   4.222   3.860  16.205  0.0444  0.6836  0.7598
 5221TIP3   OH237077   4.409   6.224  11.370 -0.3601 -0.0176  0.1553
 5221TIP3    H137078   4.482   6.169  11.398 -0.2515 -0.1445 -0.3588
 5221TIP3    H237079   4.446   6.278  11.300 -0.9933 -0.7149 -0.7276
 5222TIP3   OH237080   6.229   2.170   0.538  0.1308 -0.4691  0.1297
 5222TIP3    H137081   6.315   2.153   0.578 -0.3108 -2.4301  0.2526
 5222TIP3    H237082   6.198   2.085   0.508 -1.4742  0.3304 -0.5648
 5223TIP3   OH237083   0.293   6.107   0.428 -0.3496 -0.9063  0.1913
 5223TIP3    H137084   0.305   6.110   0.333  1.9190 -2.5681  0.3852
 5223TIP3    H237085   0.350   6.036   0.457 -1.1127 -0.4994  2.7903
 5224TIP3   OH237086   6.093   0.175   1.664 -0.6843 -0.1980  0.4406
 5224TIP3    H137087   6.162   0.147   1.724 -0.2095  0.2355  0.1007
 5224TIP3    H237088   6.131   0.165   1.577 -1.5042 -1.1850  0.1889
 5225TIP3   OH237089   5.431   3.292   6.055 -0.1153  0.3538 -0.1380
 5225TIP3    H137090   5.441   3.228   6.125  0.0673  0.0362 -0.4564
 5225TIP3    H237091   5.515   3.339   6.053  0.4745 -0.7354 -1.2366
 5226TIP3   OH237092   3.593   3.138   2.012 -0.2560  0.8172 -0.2006
 5226TIP3    H137093   3.596   3.051   1.973 -0.5672  1.6202 -2.0686
 5226TIP3    H237094   3.501   3.153   2.033 -0.5042  1.4849 -1.7345
 5227TIP3   OH237095   3.198   1.054  16.198  0.2790  0.6271  0.0470
 5227TIP3    H137096   3.198   1.149  16.195  1.0292  0.8663  4.4767
 5227TIP3    H237097   3.290   1.029  16.186  0.2204  0.5051 -0.1596
 5228TIP3   OH237098   6.007   0.853   2.016  0.2303 -0.6675 -0.1985
 5228TIP3    H137099   5.926   0.900   2.001  0.3545 -0.5503 -0.5055
 5228TIP3    H237100   6.025   0.865   2.110 -0.1741 -0.8086 -0.0995
 5229TIP3   OH237101   5.779   5.026   0.993  0.7760  0.2346  0.3306
 5229TIP3    H137102   5.696   5.038   1.038  0.8091  1.1180  0.1693
 5229TIP3    H237103   5.834   4.980   1.056  0.3588  0.1839  0.6577
 5230TIP3   OH237104   5.382   6.176  14.270  0.1293 -0.0220 -0.6272
 5230TIP3    H137105   5.358   6.163  14.362 -0.2799 -0.6083 -0.8155
 5230TIP3    H237106   5.435   6.256  14.270 -0.1415  0.1586  0.0730
 5231TIP3   OH237107   2.981   2.579  14.772 -0.6415 -0.5398 -0.6221
 5231TIP3    H137108   2.970   2.497  14.820 -0.7550 -1.7916 -2.7178
 5231TIP3    H237109   2.980   2.646  14.839 -1.4793 -2.1792  1.0541
 5232TIP3   OH237110   2.627   2.676   1.144  0.1156  0.2366  0.7297
 5232TIP3    H137111   2.548   2.729   1.143  0.4359  0.7404  1.6643
 5232TIP3    H237112   2.676   2.708   1.220  1.2100 -0.0760  0.1544
 5233TIP3   OH237113   6.221   5.158  15.538  0.9636  0.0016  0.1999
 5233TIP3    H137114   6.269   5.083  15.573  1.9662  1.0863  1.1837
 5233TIP3    H237115   6.171   5.191  15.613 -2.0601 -1.6292 -0.9947
 5234TIP3   OH237116   6.728   5.885   1.406  0.7760  0.7093  0.1756
 5234TIP3    H137117   6.724   5.805   1.458  0.6736  0.8275  0.3500
 5234TIP3    H237118   6.637   5.914   1.399  0.9904  1.7656  1.5906
 5235TIP3   OH237119   1.804   1.642   0.513  0.2836 -0.2925  0.1586
 5235TIP3    H137120   1.871   1.593   0.464  1.3040  0.3350  0.9145
 5235TIP3    H237121   1.724   1.629   0.462  1.2513  0.1032 -1.5360
 5236TIP3   OH237122   5.014   4.823   5.564  0.3763 -0.3694  0.0413
 5236TIP3    H137123   5.021   4.804   5.470  2.0001 -0.3287  0.1450
 5236TIP3    H237124   5.088   4.779   5.603 -0.8164 -1.1520  1.4534
 5237TIP3   OH237125   3.209   1.216   2.229  0.3004 -0.1109  0.1602
 5237TIP3    H137126   3.131   1.180   2.272  0.7619  1.0635  2.0369
 5237TIP3    H237127   3.266   1.140   2.217 -0.5248 -0.7360  0.1299
 5238TIP3   OH237128   3.690   2.412   0.820 -0.7354  0.0738 -0.0310
 5238TIP3    H137129   3.723   2.364   0.744 -0.1926 -1.4674  1.1526
 5238TIP3    H237130   3.762   2.408   0.884 -0.7371  2.3470  0.1643
 5239TIP3   OH237131   0.397   1.404   3.462  0.2530  0.4627 -0.5931
 5239TIP3    H137132   0.379   1.311   3.475 -1.8890  0.8622 -0.5466
 5239TIP3    H237133   0.442   1.409   3.378  1.5771 -0.7297  0.0216
 5240TIP3   OH237134   3.556   4.317   5.378  0.4346 -0.1286  0.1902
 5240TIP3    H137135   3.512   4.236   5.404 -0.1663  0.2359  0.3092
 5240TIP3    H237136   3.607   4.293   5.300 -1.1058 -0.2181 -0.8117
 5241TIP3   OH237137   4.577   4.111   6.384 -0.4318 -0.0572  0.3229
 5241TIP3    H137138   4.502   4.081   6.436  0.6069  0.3589  2.0995
 5241TIP3    H237139   4.650   4.058   6.415 -0.1168 -0.9999 -1.9374
 5242TIP3   OH237140   3.079   0.920  15.259 -0.2410  0.3829 -0.2252
 5242TIP3    H137141   3.119   0.985  15.317  1.1451 -0.6232 -0.0577
 5242TIP3    H237142   3.149   0.893  15.200 -1.0105 -0.4315 -0.7835
 5243TIP3   OH237143   3.328   5.759   6.064 -0.6453  0.7024 -0.1350
 5243TIP3    H137144   3.304   5.844   6.025  1.1445  1.1532 -0.2912
 5243TIP3    H237145   3.282   5.758   6.148 -1.3735  1.4566 -0.5141
 5244TIP3   OH237146   3.998   5.016   0.907 -0.1187  0.2890 -0.1836
 5244TIP3    H137147   3.968   5.100   0.870  1.2673  0.0544 -1.8971
 5244TIP3    H237148   4.032   4.968   0.832  0.3777 -1.2677  1.0202
 5245TIP3   OH237149   6.525   5.147  10.947 -0.1019  0.6837  0.2074
 5245TIP3    H137150   6.568   5.078  10.996 -0.3128  0.8643  0.6457
 5245TIP3    H237151   6.432   5.133  10.960 -0.2351 -0.4531 -1.7687
 5246TIP3   OH237152   4.583   0.715   5.906 -0.2540 -0.2444  0.0731
 5246TIP3    H137153   4.510   0.669   5.865 -1.2827  0.1677  1.3760
 5246TIP3    H237154   4.624   0.649   5.963 -0.0412 -0.2917 -0.1363
 5247TIP3   OH237155   1.210   2.618   2.674  0.4062 -0.2184  0.1934
 5247TIP3    H137156   1.128   2.570   2.661  0.4998 -0.6414  1.1031
 5247TIP3    H237157   1.222   2.621   2.769  0.8508  0.8612  0.1181
 5248TIP3   OH237158   6.399   6.434  10.560  0.2064  0.3097 -0.1370
 5248TIP3    H137159   6.460   6.391  10.620 -0.7499  0.7608  1.1844
 5248TIP3    H237160   6.410   6.527  10.578 -0.5243  0.4177 -0.2264
 5249TIP3   OH237161   5.099   6.216   2.781  0.2983 -0.7955  0.2971
 5249TIP3    H137162   5.184   6.230   2.738  1.5854 -2.0797  2.3235
 5249TIP3    H237163   5.117   6.231   2.874 -2.5600  2.5226  0.3908
 5250TIP3   OH237164   1.454   0.957  16.286  0.5307  0.2001 -0.6737
 5250TIP3    H137165   1.494   0.874  16.310  1.2630  0.8869  0.5683
 5250TIP3    H237166   1.376   0.964  16.341 -0.2236 -0.2471 -1.6923
 5251TIP3   OH237167   6.206   6.461  13.832 -0.7104  0.3111  0.2272
 5251TIP3    H137168   6.222   6.552  13.857 -3.1213  0.7057  0.4155
 5251TIP3    H237169   6.194   6.464  13.737  0.2252  0.0100  0.0870
 5252TIP3   OH237170   3.846   0.047  13.622 -0.4751 -0.3547 -0.6660
 5252TIP3    H137171   3.857   0.107  13.696 -0.3924 -0.6696 -0.4177
 5252TIP3    H237172   3.936   0.020  13.601 -0.3789  0.8048 -1.7835
 5253TIP3   OH237173   4.463   4.465  14.227 -0.1552  0.0467  0.0266
 5253TIP3    H137174   4.389   4.404  14.224 -0.4977  0.4542  0.0893
 5253TIP3    H237175   4.491   4.474  14.136  0.5017 -0.9333  0.1245
 5254TIP3   OH237176   1.858   6.157  15.166  0.2464  0.4575  0.5454
 5254TIP3    H137177   1.820   6.237  15.130 -0.0804  0.0146 -0.1079
 5254TIP3    H237178   1.798   6.131  15.236 -0.0120  0.4076  0.3051
 5255TIP3   OH237179   6.632   1.318   1.549  0.5733 -0.2092  0.1781
 5255TIP3    H137180   6.608   1.225   1.544  1.8973 -0.4650 -1.9628
 5255TIP3    H237181   6.710   1.319   1.604 -0.4344 -0.1418  1.6368
 5256TIP3   OH237182   4.916   0.279   6.180  0.1415  0.4909 -1.0583
 5256TIP3    H137183   4.835   0.248   6.221  0.5543  0.1188 -0.5190
 5256TIP3    H237184   4.938   0.359   6.228  0.1683  0.5178 -1.1151
 5257TIP3   OH237185   0.337   1.477   5.893  0.0366 -0.1531 -0.5018
 5257TIP3    H137186   0.405   1.429   5.941 -0.5593 -0.0920  0.4287
 5257TIP3    H237187   0.365   1.474   5.802  0.2699 -1.8513 -0.3916
 5258TIP3   OH237188   0.145   3.633  11.680 -0.7413 -0.6144 -0.2640
 5258TIP3    H137189   0.126   3.700  11.745 -1.0394  0.3142 -1.2771
 5258TIP3    H237190   0.227   3.593  11.708 -0.5836  0.1541  0.3643
 5259TIP3   OH237191   6.565   2.995   4.927  0.7238  0.6641 -0.0969
 5259TIP3    H137192   6.610   2.936   4.987  0.9560 -1.0704 -1.9209
 5259TIP3    H237193   6.601   3.082   4.947  2.2650 -0.1884  0.8973
 5260TIP3   OH237194   3.825   2.378  13.776  0.5147 -0.3479  0.4150
 5260TIP3    H137195   3.911   2.393  13.735  0.1770 -2.9224 -1.3310
 5260TIP3    H237196   3.767   2.440  13.732 -0.0048 -3.5736 -3.7552
 5261TIP3   OH237197   5.046   5.134   4.030 -0.0449  0.1845  0.0656
 5261TIP3    H137198   4.998   5.064   4.074  0.5769  0.4951  1.2665
 5261TIP3    H237199   5.055   5.202   4.096  0.5680  0.8228 -0.6655
 5262TIP3   OH237200   6.018   6.104   3.703 -0.2085  0.3156 -0.2836
 5262TIP3    H137201   5.978   6.182   3.741 -0.4316 -0.0955  0.3273
 5262TIP3    H237202   5.957   6.076   3.635 -0.6032  0.1155  0.1506
 5263TIP3   OH237203   1.982   0.641  12.244 -0.0797 -0.2938 -0.3227
 5263TIP3    H137204   1.926   0.563  12.240 -1.3118  0.5127  0.9064
 5263TIP3    H237205   2.070   0.607  12.259 -0.5638 -1.4601 -0.0926
 5264TIP3   OH237206   4.921   3.873   0.962  0.1437  0.0206 -0.5056
 5264TIP3    H137207   4.836   3.914   0.973 -0.5256 -1.8884  1.9194
 5264TIP3    H237208   4.981   3.930   1.011 -0.0408  0.4186 -0.7396
 5265TIP3   OH237209   3.268   2.612   2.838  0.7003  0.1381 -0.5515
 5265TIP3    H137210   3.188   2.560   2.838  1.6211 -1.3713  1.6643
 5265TIP3    H237211   3.239   2.702   2.824 -0.9745 -0.8425 -4.1032
 5266TIP3   OH237212   3.739   6.743  16.889  0.2380  0.2183 -0.1704
 5266TIP3    H137213   3.759   6.675  16.824 -0.0523 -0.4599  0.4436
 5266TIP3    H237214   3.799   6.726  16.962  0.2066  0.6629 -0.0382
 5267TIP3   OH237215   3.160   5.090  13.734  0.3873  0.1863  0.0963
 5267TIP3    H137216   3.116   5.114  13.816  0.5401 -3.5507  1.3875
 5267TIP3    H237217   3.091   5.089  13.668 -0.4086 -0.1624  0.9271
 5268TIP3   OH237218   0.198   4.898  11.009  0.2525  0.4091 -0.0005
 5268TIP3    H137219   0.207   4.985  10.970 -1.2238  0.9243  0.7692
 5268TIP3    H237220   0.280   4.854  10.988  0.4396  1.4844 -1.6522
 5269TIP3   OH237221   4.700   1.818  14.806  0.1561 -1.2736 -0.1777
 5269TIP3    H137222   4.716   1.881  14.876 -0.2432 -1.4340  0.0615
 5269TIP3    H237223   4.782   1.771  14.798  1.3518  1.1017 -2.2338
 5270TIP3   OH237224   6.387   4.144  15.134 -0.1108 -0.2542 -0.2432
 5270TIP3    H137225   6.395   4.062  15.085  0.5675 -0.0763 -0.4319
 5270TIP3    H237226   6.426   4.210  15.078 -0.5265  0.1799 -0.0251
 5271TIP3   OH237227   6.230   5.260   3.157  0.1154 -0.3668 -0.4097
 5271TIP3    H137228   6.321   5.267   3.186 -0.0050  2.4744 -0.6023
 5271TIP3    H237229   6.236   5.239   3.064  0.5542 -0.8894 -0.2674
 5272TIP3   OH237230   2.559   2.287  13.711  0.2432 -0.5871 -0.6861
 5272TIP3    H137231   2.503   2.359  13.684  0.4201 -0.0426  0.3694
 5272TIP3    H237232   2.547   2.220  13.644 -0.9855 -0.1232 -0.9333
 5273TIP3   OH237233   0.854   6.014   4.632  0.3650  0.5330  0.0653
 5273TIP3    H137234   0.877   5.934   4.585 -0.7685 -0.0132  0.4441
 5273TIP3    H237235   0.939   6.052   4.656  0.9046 -1.1299  0.8606
 5274TIP3   OH237236   6.781   0.341  13.597 -0.3138  0.3779 -0.2264
 5274TIP3    H137237   6.819   0.283  13.531 -0.1863 -0.0611  0.2268
 5274TIP3    H237238   6.769   0.285  13.674 -3.3019  0.1237 -0.8206
 5275TIP3   OH237239   5.362   6.382  13.839  0.5067  0.2269 -0.5140
 5275TIP3    H137240   5.444   6.390  13.887 -0.1522 -0.0713  0.6717
 5275TIP3    H237241   5.346   6.288  13.834 -1.3408  0.3670  1.9964
 5276TIP3   OH237242   5.092   5.953  14.788 -0.0878 -0.0816  0.2203
 5276TIP3    H137243   5.078   6.047  14.788 -0.7994 -0.1463  3.1434
 5276TIP3    H237244   5.005   5.915  14.773  0.0431 -0.2988 -0.0076
 5277TIP3   OH237245   6.438   6.697   5.581 -0.1829  0.3810 -0.2448
 5277TIP3    H137246   6.353   6.741   5.579 -0.5811 -0.4561 -2.4933
 5277TIP3    H237247   6.465   6.704   5.673 -3.0845 -0.1436  0.7246
 5278TIP3   OH237248   6.340   1.946  13.790 -0.1524 -0.9029 -0.6980
 5278TIP3    H137249   6.324   2.016  13.854 -0.1181 -0.8257 -0.7728
 5278TIP3    H237250   6.325   1.988  13.705  0.6224 -0.7849 -0.7755
 5279TIP3   OH237251   3.342   3.946  15.074 -0.3517 -0.4550 -0.6123
 5279TIP3    H137252   3.397   3.998  15.016  1.2662  0.0293  1.3010
 5279TIP3    H237253   3.273   4.006  15.101  0.9331  0.4452  0.7783
 5280TIP3   OH237254   0.829   6.732  12.038 -0.0186  0.2595 -0.0132
 5280TIP3    H137255   0.818   6.748  11.945 -0.6595 -0.0043  0.0197
 5280TIP3    H237256   0.798   6.642  12.052 -0.8531  0.6362  0.6192
 5281TIP3   OH237257   4.057   1.539   2.275  0.6694  0.1186  0.8157
 5281TIP3    H137258   4.056   1.528   2.180 -0.1449  0.5894  0.7635
 5281TIP3    H237259   3.998   1.472   2.308 -1.0014  1.5310  0.7968
 5282TIP3   OH237260   0.986   5.881   3.450  0.4346  0.5346  0.2932
 5282TIP3    H137261   0.915   5.850   3.394  1.6801 -2.1063  0.1095
 5282TIP3    H237262   0.947   5.885   3.537 -0.6453  1.6569 -0.2199
 5283TIP3   OH237263   1.502   4.397   5.948 -0.0535 -0.0533  0.4141
 5283TIP3    H137264   1.495   4.378   6.042  1.1012  1.4482  0.8354
 5283TIP3    H237265   1.565   4.333   5.915 -0.9163 -0.9662  0.5505
 5284TIP3   OH237266   4.080   5.089  13.678 -0.5306  0.0346 -0.5162
 5284TIP3    H137267   4.024   5.136  13.740  0.9422  0.0089  0.8532
 5284TIP3    H237268   4.080   4.998  13.708  0.8868  0.1853 -0.0063
 5285TIP3   OH237269   6.392   0.902   4.587  0.3799  0.1641 -0.0141
 5285TIP3    H137270   6.304   0.936   4.572  0.8801  1.8263  0.6743
 5285TIP3    H237271   6.424   0.877   4.501 -1.0991 -1.3186 -0.1526
 5286TIP3   OH237272   4.934   2.694   2.354 -1.0837  0.7888 -0.4351
 5286TIP3    H137273   4.888   2.610   2.354 -2.3065  1.4306 -2.1490
 5286TIP3    H237274   4.909   2.736   2.437 -0.5097 -0.4877  0.3996
 5287TIP3   OH237275   5.387   2.264  15.601  0.0013 -0.4399 -0.2863
 5287TIP3    H137276   5.293   2.243  15.598 -0.6550  2.3410 -0.2004
 5287TIP3    H237277   5.415   2.259  15.509 -0.6085  0.3611 -0.5190
 5288TIP3   OH237278   4.660   4.183   1.283  0.1047  0.5100  0.6202
 5288TIP3    H137279   4.662   4.254   1.219 -0.6787  0.5662  0.6463
 5288TIP3    H237280   4.569   4.180   1.311  0.4651  0.5688  1.8244
 5289TIP3   OH237281   5.348   2.411  13.322 -0.2017  0.2699  0.2548
 5289TIP3    H137282   5.352   2.506  13.336 -0.0500  0.3243 -0.1179
 5289TIP3    H237283   5.305   2.402  13.237  1.2217  0.0782 -0.4663
 5290TIP3   OH237284   1.539   0.315   5.063  0.0707 -0.2750 -0.4000
 5290TIP3    H137285   1.511   0.287   4.976  0.5270 -2.1728  0.0240
 5290TIP3    H237286   1.458   0.337   5.109 -0.2589 -0.3658 -0.9339
 5291TIP3   OH237287   4.512   2.412   6.096  0.4024 -0.1447  0.2875
 5291TIP3    H137288   4.574   2.450   6.158 -0.5788 -0.8196  1.6979
 5291TIP3    H237289   4.463   2.487   6.062  0.5316  0.1649  0.7842
 5292TIP3   OH237290   4.486   5.471   5.282  0.2112  0.2315 -0.2798
 5292TIP3    H137291   4.467   5.496   5.192 -1.0267  1.9569  0.4312
 5292TIP3    H237292   4.574   5.433   5.279  0.1894  0.3178 -2.1978
 5293TIP3   OH237293   2.515   2.291  13.331  0.3004  0.2887  0.8297
 5293TIP3    H137294   2.559   2.370  13.362 -1.0441  2.3793 -2.3420
 5293TIP3    H237295   2.570   2.261  13.258 -1.4812  0.8319 -0.7727
 5294TIP3   OH237296   2.338   0.453   3.550 -0.8293  0.0574  0.3000
 5294TIP3    H137297   2.287   0.416   3.623  2.4051 -0.4158  2.4060
 5294TIP3    H237298   2.356   0.543   3.578  0.3817 -0.1091  0.0621
 5295TIP3   OH237299   4.070   4.122   1.327  0.1027 -0.0730 -0.8812
 5295TIP3    H137300   4.120   4.128   1.245 -0.7766 -0.6051 -1.4701
 5295TIP3    H237301   3.980   4.145   1.302 -0.2437 -0.5977 -0.1500
 5296TIP3   OH237302   6.716   2.872  16.703 -0.1359  0.1912 -0.1681
 5296TIP3    H137303   6.676   2.945  16.750  0.5736  1.0795 -0.9239
 5296TIP3    H237304   6.800   2.858  16.746  0.5148  1.0054 -1.1636
 5297TIP3   OH237305   0.631   4.914  15.653 -0.1382 -0.1992  0.0723
 5297TIP3    H137306   0.680   4.942  15.576 -0.8411  0.8884  0.0059
 5297TIP3    H237307   0.698   4.886  15.715  0.5907  1.5121  0.0814
 5298TIP3   OH237308   4.850   6.612  11.211 -0.2115  0.1238  0.2231
 5298TIP3    H137309   4.939   6.624  11.179 -0.4842  0.2437 -0.5005
 5298TIP3    H237310   4.810   6.699  11.204 -0.5034 -0.0128  0.1732
 5299TIP3   OH237311   3.077   1.067  12.847  0.1046  0.5257 -0.3532
 5299TIP3    H137312   3.077   1.055  12.942  0.2736 -0.6315 -0.4922
 5299TIP3    H237313   3.105   0.982  12.813  1.0961  1.2689 -1.3956
 5300TIP3   OH237314   0.524   6.712   4.866 -0.1793  0.3384  0.5887
 5300TIP3    H137315   0.554   6.631   4.824  1.4206  0.6984  1.0090
 5300TIP3    H237316   0.554   6.781   4.808 -0.0983  0.7181  1.0861
 5301TIP3   OH237317   6.123   3.337  15.885  0.0465  0.1927 -0.2991
 5301TIP3    H137318   6.171   3.266  15.926 -0.3391  0.0622 -0.0665
 5301TIP3    H237319   6.101   3.305  15.798  1.1280  0.5845 -0.7266
 5302TIP3   OH237320   4.866   3.477   6.025 -0.1343 -0.7321 -0.3044
 5302TIP3    H137321   4.791   3.418   6.030  1.1816 -2.4424 -0.2201
 5302TIP3    H237322   4.875   3.496   5.932 -1.8632  1.0907 -0.1344
 5303TIP3   OH237323   5.228   1.169   4.311 -0.0438 -0.0532 -0.4684
 5303TIP3    H137324   5.256   1.096   4.366  0.7989  1.6875  1.4600
 5303TIP3    H237325   5.295   1.175   4.243  0.3869 -0.4912 -0.0863
 5304TIP3   OH237326   0.449   1.495  10.442  0.4987  0.0456 -0.1698
 5304TIP3    H137327   0.416   1.418  10.396 -0.6344 -0.6517  1.7620
 5304TIP3    H237328   0.427   1.569  10.384 -1.1194 -0.7779 -0.6196
 5305TIP3   OH237329   4.953   1.700  14.800 -0.1607 -0.0846  0.5108
 5305TIP3    H137330   5.006   1.656  14.867 -0.1562  0.2181  0.7117
 5305TIP3    H237331   5.012   1.765  14.762  0.7234 -2.1794 -1.7933
 5306TIP3   OH237332   0.893   5.512   4.008  0.2789  0.2137 -0.0749
 5306TIP3    H137333   0.890   5.450   4.081 -0.2453 -0.4141 -0.6262
 5306TIP3    H237334   0.802   5.537   3.993  0.5174  1.3082  0.3082
 5307TIP3   OH237335   0.677   1.014  14.543 -0.4364  0.4757  0.1941
 5307TIP3    H137336   0.750   0.970  14.498 -0.6258  0.4114 -0.0502
 5307TIP3    H237337   0.606   0.950  14.542 -1.3548  1.4574 -1.8707
 5308TIP3   OH237338   3.866   5.465  13.620  0.0728  0.1481 -0.0676
 5308TIP3    H137339   3.889   5.380  13.582  0.0469  0.3008 -0.4255
 5308TIP3    H237340   3.914   5.528  13.567 -1.1658  0.4743 -0.8195
 5309TIP3   OH237341   2.578   3.324   4.402  0.2885 -0.5146  0.1546
 5309TIP3    H137342   2.575   3.281   4.488  0.9417 -1.2578 -0.1945
 5309TIP3    H237343   2.625   3.406   4.419  0.5498 -0.7277  0.4766
 5310TIP3   OH237344   5.870   2.917  16.867  0.2947  0.4024 -0.0540
 5310TIP3    H137345   5.787   2.963  16.875 -1.0139 -1.9368  0.1521
 5310TIP3    H237346   5.913   2.958  16.792 -0.4746  2.4326  0.5703
 5311TIP3   OH237347   0.820   6.347   0.726  0.5027  0.1888 -0.0175
 5311TIP3    H137348   0.889   6.336   0.792  1.0697 -0.2105 -0.6677
 5311TIP3    H237349   0.855   6.305   0.647 -0.4398  0.0900 -0.3886
 5312TIP3   OH237350   2.039   2.709   6.659 -0.1315 -0.3855  0.6976
 5312TIP3    H137351   2.100   2.700   6.586  2.0384 -1.3068  2.5700
 5312TIP3    H237352   1.953   2.715   6.618  1.1754  0.7745 -2.0047
 5313TIP3   OH237353   6.417   1.076  12.303  0.9003 -0.1213 -0.2496
 5313TIP3    H137354   6.496   1.128  12.319  0.9159  0.2528 -1.4625
 5313TIP3    H237355   6.445   1.009  12.240  0.0093  0.6686 -1.5083
 5314TIP3   OH237356   4.447   3.278   2.379 -0.0227 -0.2941  0.1410
 5314TIP3    H137357   4.383   3.237   2.437  0.4091  0.6775  1.3246
 5314TIP3    H237358   4.396   3.305   2.302 -1.0049  0.2366  0.9615
 5315TIP3   OH237359   6.216   0.424   1.842  0.2348  0.7545  0.0767
 5315TIP3    H137360   6.291   0.391   1.793 -1.0848 -2.5679  0.1271
 5315TIP3    H237361   6.164   0.472   1.777  0.3201 -0.4956 -0.9347
 5316TIP3   OH237362   5.501   1.024  13.332  0.0053  0.1777 -0.2931
 5316TIP3    H137363   5.418   0.999  13.373  0.4544 -0.4346  0.2403
 5316TIP3    H237364   5.516   1.114  13.361 -0.2660  0.1510 -0.0639
 5317TIP3   OH237365   5.767   0.962  15.533 -0.6355 -0.2755  0.6532
 5317TIP3    H137366   5.861   0.982  15.527 -1.0427  1.1443 -1.8962
 5317TIP3    H237367   5.736   1.016  15.605  0.6028 -1.2439  1.9522
 5318TIP3   OH237368   2.320   6.749   3.846  0.1261  0.3336 -0.1020
 5318TIP3    H137369   2.403   6.781   3.811 -0.3344 -0.4823 -2.0393
 5318TIP3    H237370   2.258   6.821   3.832  0.7915  1.5207  2.7121
 5319TIP3   OH237371   2.350   4.907   0.767  0.1108 -0.2118  0.3045
 5319TIP3    H137372   2.336   4.999   0.745  2.2636  0.0268 -0.2198
 5319TIP3    H237373   2.370   4.908   0.861 -1.4304 -0.3436  0.6468
 5320TIP3   OH237374   5.698   3.637  16.622  0.1413 -0.0914  0.2134
 5320TIP3    H137375   5.781   3.684  16.627  0.4518 -0.7727  2.0416
 5320TIP3    H237376   5.676   3.635  16.529  2.4438 -0.3815 -0.3392
 5321TIP3   OH237377   1.360   6.020  13.888  0.2063  0.0460  0.1977
 5321TIP3    H137378   1.322   6.108  13.891  0.6226  0.1985  1.2021
 5321TIP3    H237379   1.429   6.027  13.822 -1.5389 -0.2710 -1.7407
 5322TIP3   OH237380   6.264   4.933  14.693  0.2128 -0.4418  0.1670
 5322TIP3    H137381   6.232   5.011  14.738 -1.1991 -0.0986 -1.3890
 5322TIP3    H237382   6.197   4.914  14.627  1.2422 -2.1249 -0.4230
 5323TIP3   OH237383   4.312   6.192   5.654 -0.2152 -0.1711 -0.1946
 5323TIP3    H137384   4.219   6.216   5.664  0.9507  4.1756  1.5684
 5323TIP3    H237385   4.333   6.213   5.563 -1.1177 -1.8156 -0.7875
 5324TIP3   OH237386   0.404   2.376  16.455 -0.1142 -0.4047  0.4360
 5324TIP3    H137387   0.332   2.437  16.474 -0.8363 -1.3426  0.7761
 5324TIP3    H237388   0.431   2.398  16.366  1.7830  2.5289  1.6899
 5325TIP3   OH237389   0.613   6.081   0.885  0.3092 -0.0035 -0.2059
 5325TIP3    H137390   0.522   6.049   0.885 -0.2142  1.4431  0.0729
 5325TIP3    H237391   0.621   6.129   0.802  1.0736 -0.8262 -0.6119
 5326TIP3   OH237392   2.419   6.673  11.882  0.2674  0.0216  0.7525
 5326TIP3    H137393   2.510   6.682  11.911  0.9128 -1.1485 -0.8056
 5326TIP3    H237394   2.384   6.601  11.935  0.4117  0.1092  0.9692
 5327TIP3   OH237395   2.039   4.929  16.846 -0.2127 -0.1111 -0.4069
 5327TIP3    H137396   1.964   4.967  16.891 -0.5725  0.6320 -1.5962
 5327TIP3    H237397   2.101   5.002  16.837  0.5886 -0.6808  0.4228
 5328TIP3   OH237398   5.868   3.979  17.076  0.3172 -0.5253 -0.8861
 5328TIP3    H137399   5.893   3.899  17.031 -1.0887 -0.8476 -1.1242
 5328TIP3    H237400   5.813   3.949  17.148  1.2904  0.0993  0.1319
 5329TIP3   OH237401   0.850   3.587   0.676  0.3261  0.5487  0.4361
 5329TIP3    H137402   0.921   3.592   0.740  0.7399 -1.6288  0.2051
 5329TIP3    H237403   0.770   3.581   0.729  0.4847  1.0119  0.7243
 5330TIP3   OH237404   3.865   3.063   5.975 -0.3513 -0.2641  0.0122
 5330TIP3    H137405   3.907   3.148   5.991  0.9627 -0.1004 -3.7594
 5330TIP3    H237406   3.920   3.000   6.022  0.8168  0.5774 -0.2073
 5331TIP3   OH237407   2.440   4.491  17.058 -0.0210  0.2735 -0.1250
 5331TIP3    H137408   2.496   4.555  17.102  1.8393 -2.2125  1.2601
 5331TIP3    H237409   2.371   4.472  17.121 -0.4360  0.7234 -0.4395
 5332TIP3   OH237410   0.606   2.459   3.824  0.4752  0.1954  0.0201
 5332TIP3    H137411   0.511   2.473   3.826  0.2501 -0.9575 -1.4670
 5332TIP3    H237412   0.640   2.529   3.769  0.3508 -0.0055 -0.3176
 5333TIP3   OH237413   3.571   0.768   5.239  0.1484  0.0091  0.0756
 5333TIP3    H137414   3.497   0.828   5.247 -2.0270 -2.4973 -0.6049
 5333TIP3    H237415   3.579   0.728   5.326  0.4117 -0.0420  0.0277
 5334TIP3   OH237416   5.221   3.407   1.967  0.6551  0.3711 -0.1965
 5334TIP3    H137417   5.232   3.394   2.061 -1.0191  0.3842  0.0161
 5334TIP3    H237418   5.240   3.322   1.928  1.0664  0.2956  0.1677
 5335TIP3   OH237419   4.010   3.232  11.674 -0.5451 -0.0159 -0.3983
 5335TIP3    H137420   4.017   3.292  11.748  1.8110 -1.3398  0.5136
 5335TIP3    H237421   3.975   3.151  11.712 -2.0143  0.1874 -1.2820
 5336TIP3   OH237422   6.060   5.222   1.148  0.3990  0.1320  0.0029
 5336TIP3    H137423   5.997   5.268   1.092 -0.7566 -1.7420 -0.2804
 5336TIP3    H237424   6.020   5.136   1.162  2.1039 -0.4646  1.2459
 5337TIP3   OH237425   4.349   4.988  12.100 -0.7190 -0.2033 -0.3028
 5337TIP3    H137426   4.340   5.019  12.010 -0.8424 -2.1700 -0.9904
 5337TIP3    H237427   4.382   5.064  12.149 -0.5677  0.8488 -2.0097
 5338TIP3   OH237428   5.202   3.278   3.551  0.2552 -0.1135 -0.4587
 5338TIP3    H137429   5.255   3.354   3.527 -1.2367  1.2281  0.4432
 5338TIP3    H237430   5.145   3.309   3.621 -0.2303 -2.1319  0.0723
 5339TIP3   OH237431   6.389   1.483   0.515 -0.4124 -0.4324  0.6466
 5339TIP3    H137432   6.428   1.564   0.548 -2.1726  0.7612 -0.1633
 5339TIP3    H237433   6.320   1.463   0.577 -1.9160  0.3184 -0.7508
 5340TIP3   OH237434   3.305   4.970   2.882  0.3159  0.3370  0.3020
 5340TIP3    H137435   3.351   4.932   2.807  1.0686  0.4226  0.7162
 5340TIP3    H237436   3.352   5.052   2.900 -1.1903  1.4014 -0.4863
 5341TIP3   OH237437   1.662   5.461  14.263 -0.1710 -0.2810 -0.1416
 5341TIP3    H137438   1.718   5.488  14.190  0.6289  1.4704  1.0974
 5341TIP3    H237439   1.615   5.541  14.287 -1.9328 -1.3225 -0.0243
 5342TIP3   OH237440   3.175   4.125  16.838  0.0203  0.2631  0.2084
 5342TIP3    H137441   3.270   4.119  16.843 -0.0069 -0.2388  0.1849
 5342TIP3    H237442   3.151   4.184  16.910  0.3115 -0.0074  0.5298
 5343TIP3   OH237443   3.255   2.949  12.121 -0.2691 -0.9277 -0.5584
 5343TIP3    H137444   3.193   2.941  12.193  0.0708 -1.8299 -0.3692
 5343TIP3    H237445   3.267   3.044  12.111 -0.4002 -0.7979  0.4807
 5344TIP3   OH237446   1.715   5.185   6.039 -0.3923  0.0842  0.0738
 5344TIP3    H137447   1.763   5.158   5.961  0.5792  0.2656  0.5868
 5344TIP3    H237448   1.772   5.158   6.112 -1.8065 -1.0936  0.7489
 5345TIP3   OH237449   2.789   4.120   6.074  0.4678  0.0498  0.2359
 5345TIP3    H137450   2.720   4.059   6.099 -0.2435  0.2040 -1.2833
 5345TIP3    H237451   2.747   4.207   6.082  1.1445  0.2797  1.3597
 5346TIP3   OH237452   5.505   6.636   0.225  0.2391 -0.6286  0.3021
 5346TIP3    H137453   5.591   6.670   0.250  1.0873 -0.8371 -2.1432
 5346TIP3    H237454   5.509   6.543   0.246  0.7319 -0.6916 -0.0459
 5347TIP3   OH237455   5.931   4.292   3.813  0.0295 -0.6189  0.1706
 5347TIP3    H137456   5.946   4.344   3.891  0.3669  0.1409 -0.3899
 5347TIP3    H237457   5.851   4.328   3.775 -0.6494 -1.5890  0.6466
 5348TIP3   OH237458   4.057   5.108  14.736 -0.1683  0.3083  0.8375
 5348TIP3    H137459   3.994   5.171  14.771 -0.8129 -1.4944  3.0288
 5348TIP3    H237460   4.125   5.161  14.696 -1.7778  2.3454  0.7169
 5349TIP3   OH237461   3.332   6.368   4.162 -0.3546  0.2001  0.1904
 5349TIP3    H137462   3.347   6.290   4.108 -1.3018  0.7901 -0.9417
 5349TIP3    H237463   3.419   6.393   4.193  0.1419 -0.4254 -0.6792
 5350TIP3   OH237464   1.393   5.330   4.854 -0.2440  0.0777 -0.6730
 5350TIP3    H137465   1.436   5.392   4.795 -1.0634  1.1344 -0.1644
 5350TIP3    H237466   1.465   5.291   4.904  0.3992 -0.3598 -1.8904
 5351TIP3   OH237467   1.611   0.532  14.537  0.2277 -0.5352  0.0238
 5351TIP3    H137468   1.661   0.547  14.617 -0.3988  0.4928  0.2423
 5351TIP3    H237469   1.581   0.620  14.511  0.0999 -0.9095 -1.1181
 5352TIP3   OH237470   0.301   4.655  14.197 -0.2186  0.3018  0.6169
 5352TIP3    H137471   0.225   4.705  14.226  0.4392  1.2863  0.6847
 5352TIP3    H237472   0.374   4.694  14.245  0.3755 -0.4046  0.2896
 5353TIP3   OH237473   6.081   0.684  13.071 -0.7736 -0.2692 -0.3716
 5353TIP3    H137474   6.115   0.598  13.043 -0.6195 -0.1914 -0.4253
 5353TIP3    H237475   6.106   0.691  13.163 -0.9996 -0.3854 -0.2997
 5354TIP3   OH237476   5.017   4.482   1.675 -0.6029  0.0106 -0.2496
 5354TIP3    H137477   4.989   4.390   1.669 -1.0636 -0.0082  1.7630
 5354TIP3    H237478   4.936   4.531   1.682 -0.3341  0.5256 -0.7188
 5355TIP3   OH237479   1.548   0.192   1.819  0.6717 -0.1660  0.0237
 5355TIP3    H137480   1.620   0.175   1.879  1.0156  4.1326  0.9310
 5355TIP3    H237481   1.475   0.219   1.874 -0.3162 -0.2362 -1.2065
 5356TIP3   OH237482   2.883   1.437   0.220 -0.2575  0.9557 -0.1396
 5356TIP3    H137483   2.895   1.484   0.302 -2.6707  0.2236  0.6599
 5356TIP3    H237484   2.838   1.499   0.163 -0.0619  0.8943 -0.3643
 5357TIP3   OH237485   0.270   0.654  14.737  0.2390  0.0523  0.0625
 5357TIP3    H137486   0.352   0.648  14.787  0.5132  0.9370 -0.2763
 5357TIP3    H237487   0.298   0.652  14.646 -0.0887  0.6878 -0.0556
 5358TIP3   OH237488   6.695   5.609  12.532 -0.5006  0.2204  0.3492
 5358TIP3    H137489   6.611   5.565  12.518 -0.8241  0.8152  0.4172
 5358TIP3    H237490   6.721   5.583  12.620 -0.9743  0.6233  0.6137
 5359TIP3   OH237491   6.335   2.312   4.500  0.2849  0.1321 -0.4469
 5359TIP3    H137492   6.252   2.357   4.485  0.3580  0.6876  0.7804
 5359TIP3    H237493   6.340   2.302   4.595  1.1544 -0.8027 -0.5826
 5360TIP3   OH237494   3.957   1.284  11.273  0.0578  0.1594  0.0123
 5360TIP3    H137495   3.905   1.336  11.334 -0.0772  1.6002 -1.3155
 5360TIP3    H237496   3.998   1.217  11.328 -0.9918  0.7080  1.4928
 5361TIP3   OH237497   5.842   1.660  15.311  0.2471  0.0607  0.5463
 5361TIP3    H137498   5.915   1.598  15.315  1.3388  1.3057  0.4579
 5361TIP3    H237499   5.880   1.744  15.339 -0.9788  0.8731 -0.1547
 5362TIP3   OH237500   4.788   1.004   2.024 -0.4050  0.4163 -0.0417
 5362TIP3    H137501   4.715   1.033   1.969  0.2741  1.2892 -0.4832
 5362TIP3    H237502   4.796   0.911   2.004 -2.3191 -0.0262  1.0722
 5363TIP3   OH237503   3.421   6.147   4.878 -0.7678  0.0790 -0.5751
 5363TIP3    H137504   3.463   6.111   4.799 -0.3715 -0.0353 -0.3159
 5363TIP3    H237505   3.472   6.225   4.899 -0.7900  0.0377 -0.3618
 5364TIP3   OH237506   3.766   3.997   0.056 -0.4256  0.0877 -0.0630
 5364TIP3    H137507   3.808   4.054   0.120 -0.6015  0.1278  0.0174
 5364TIP3    H237508   3.819   4.006  -0.023 -1.2749  1.4636 -0.4857
 5365TIP3   OH237509   4.230   6.506  14.245 -0.0210 -0.3140  0.0424
 5365TIP3    H137510   4.208   6.417  14.273 -1.7108 -0.1251 -0.5821
 5365TIP3    H237511   4.314   6.525  14.287 -0.4099 -1.6177  1.4587
 5366TIP3   OH237512   5.649   3.642   0.001 -0.1723 -0.3190  0.1077
 5366TIP3    H137513   5.714   3.603  -0.059  1.4399 -0.4759  1.9110
 5366TIP3    H237514   5.566   3.604  -0.027  0.7670 -1.6372 -1.0125
 5367TIP3   OH237515   1.695   4.363   2.961  0.7260  0.4158 -0.3533
 5367TIP3    H137516   1.665   4.450   2.934  0.3401  0.6379  0.7552
 5367TIP3    H237517   1.617   4.309   2.954  0.2540  0.8109  1.7504
 5368TIP3   OH237518   1.857   3.690   2.049  0.4353 -0.5367 -0.9222
 5368TIP3    H137519   1.823   3.642   2.124 -3.1364  1.1020 -1.3761
 5368TIP3    H237520   1.849   3.629   1.976  0.3660 -0.8406 -0.6630
 5369TIP3   OH237521   4.266   5.292   3.593 -0.2199 -0.4717  0.4297
 5369TIP3    H137522   4.357   5.262   3.601  0.3428  0.3758 -2.1392
 5369TIP3    H237523   4.273   5.387   3.582 -1.2530 -0.6147 -1.7530
 5370TIP3   OH237524   4.389   0.106  15.729  0.2242  0.3301  0.2102
 5370TIP3    H137525   4.445   0.179  15.757  0.8737  0.2615 -0.9097
 5370TIP3    H237526   4.368   0.125  15.638 -2.0959  0.6708  0.7740
 5371TIP3   OH237527   5.245   5.310   0.987 -0.6815  0.6357 -0.0506
 5371TIP3    H137528   5.330   5.351   0.970 -0.5199  0.3742  0.1154
 5371TIP3    H237529   5.181   5.380   0.973 -0.3470  1.1846  1.1169
 5372TIP3   OH237530   0.479   3.965  14.216 -0.7884  0.1768  0.2826
 5372TIP3    H137531   0.554   4.025  14.210 -1.2049  0.6168 -0.5664
 5372TIP3    H237532   0.452   3.970  14.308  1.3785 -1.4130  1.0618
 5373TIP3   OH237533   3.797   5.609  12.255  0.4757  0.4349 -0.2627
 5373TIP3    H137534   3.862   5.660  12.207 -0.2952  1.4155 -0.2779
 5373TIP3    H237535   3.728   5.671  12.277 -0.9166 -0.7909 -1.0692
 5374TIP3   OH237536   3.766   2.885  14.668  0.0734  0.0232 -0.0239
 5374TIP3    H137537   3.713   2.920  14.739  1.8467  1.1906  0.7777
 5374TIP3    H237538   3.844   2.941  14.667  0.9362 -1.1560 -1.6669
 5375TIP3   OH237539   4.251   1.320  11.647  0.1420  0.0102 -0.4231
 5375TIP3    H137540   4.280   1.325  11.555 -0.4108  0.2265 -0.5864
 5375TIP3    H237541   4.157   1.304  11.641  0.1162 -0.0277  0.1096
 5376TIP3   OH237542   3.862   2.747   5.218  0.2856 -0.0885  0.7215
 5376TIP3    H137543   3.774   2.717   5.241  0.0573  0.6564  0.8302
 5376TIP3    H237544   3.848   2.822   5.160  0.8564 -0.8075 -0.3724
 5377TIP3   OH237545   4.819   0.769  12.833  0.0810  0.1366 -0.0158
 5377TIP3    H137546   4.823   0.674  12.823  3.4437  0.2198  0.0122
 5377TIP3    H237547   4.837   0.784  12.926 -1.4104  0.7862  0.1853
 5378TIP3   OH237548   5.951   2.331   4.307  0.7019  0.1014 -0.0361
 5378TIP3    H137549   5.988   2.326   4.220  0.6077  1.7345 -0.1972
 5378TIP3    H237550   6.002   2.400   4.351 -0.7310  0.9129  0.4150
 5379TIP3   OH237551   3.416   1.822  11.938 -0.0891  0.3122  0.0323
 5379TIP3    H137552   3.492   1.839  11.992  1.1018  0.2745 -1.6002
 5379TIP3    H237553   3.425   1.730  11.911 -0.2981  0.5180 -0.7735
 5380TIP3   OH237554   6.391   1.761  11.933  0.0372  0.3862  0.1678
 5380TIP3    H137555   6.436   1.838  11.967 -1.5125  0.7986  1.3467
 5380TIP3    H237556   6.453   1.721  11.872  2.5479  0.0790  2.8769
 5381TIP3   OH237557   0.927   0.649  14.906 -0.2023  0.0843 -0.1196
 5381TIP3    H137558   1.019   0.656  14.933 -0.0543  0.9816 -0.8133
 5381TIP3    H237559   0.930   0.659  14.810 -0.6393 -3.6377 -0.5942
 5382TIP3   OH237560   3.846   5.029   0.605  0.2156 -0.7983  0.0363
 5382TIP3    H137561   3.865   5.072   0.521  1.7489 -1.8965 -0.1901
 5382TIP3    H237562   3.931   5.000   0.637 -0.6921 -2.9194  0.6073
 5383TIP3   OH237563   4.901   5.704   5.191  0.1787 -0.2704 -0.6128
 5383TIP3    H137564   4.875   5.796   5.189  1.8005  0.2262 -0.0122
 5383TIP3    H237565   4.989   5.705   5.230 -0.0988 -2.1405  0.1080
 5384TIP3   OH237566   4.518   3.276  16.142 -0.7327  0.1552 -0.1523
 5384TIP3    H137567   4.450   3.257  16.207  0.4431 -0.6890  0.8440
 5384TIP3    H237568   4.521   3.372  16.138 -0.6014  0.2095  1.2535
 5385TIP3   OH237569   4.109   2.390   1.233 -0.1745 -0.0226  0.5661
 5385TIP3    H137570   4.193   2.412   1.193  0.7670 -1.0997  1.9138
 5385TIP3    H237571   4.076   2.473   1.267  0.0471  0.5149 -0.5228
 5386TIP3   OH237572   3.971   5.436  16.585  0.0321 -0.3555  0.5194
 5386TIP3    H137573   4.003   5.372  16.522 -0.8250 -1.0689  0.7863
 5386TIP3    H237574   3.921   5.499  16.532 -1.2546 -1.3271  0.5490
 5387TIP3   OH237575   5.125   6.097  11.748 -0.1527  0.3418  0.0751
 5387TIP3    H137576   5.101   6.018  11.700  2.3115  0.7442 -1.9236
 5387TIP3    H237577   5.062   6.163  11.720  0.0365  0.0424 -1.0776
 5388TIP3   OH237578   1.902   6.276   2.063  0.0293  0.6150 -0.7574
 5388TIP3    H137579   1.981   6.293   2.113 -0.4204 -0.7870  0.4651
 5388TIP3    H237580   1.831   6.301   2.121 -0.5242 -1.7106 -0.3809
 5389TIP3   OH237581   1.041   6.606   2.654  0.0762  0.1598 -0.2196
 5389TIP3    H137582   0.993   6.528   2.626 -1.1810  0.8969 -0.1541
 5389TIP3    H237583   1.058   6.653   2.573 -0.4472  0.5340 -0.1147
 5390TIP3   OH237584   1.340   2.679   3.848 -0.0534  0.4458  0.2276
 5390TIP3    H137585   1.329   2.640   3.935  2.6929 -0.5997  0.1416
 5390TIP3    H237586   1.276   2.633   3.793 -0.9971  0.3076  1.4086
 5391TIP3   OH237587   1.606   4.239  13.435  0.0254  0.2141  0.1831
 5391TIP3    H137588   1.520   4.248  13.476  0.8341  0.7437  1.8178
 5391TIP3    H237589   1.619   4.322  13.389  0.0716  0.5356  0.7646
 5392TIP3   OH237590   2.079   3.992  12.527 -0.7191 -0.1032 -0.1201
 5392TIP3    H137591   2.159   4.044  12.532 -0.4092 -0.3560 -2.0580
 5392TIP3    H237592   2.109   3.905  12.502 -1.4657 -0.5943  0.6718
 5393TIP3   OH237593   4.701   1.005  11.247  0.5605 -0.2582  0.3265
 5393TIP3    H137594   4.623   1.003  11.192 -0.1047  0.0087  1.2322
 5393TIP3    H237595   4.683   0.941  11.317  0.1247  1.4809  1.8585
 5394TIP3   OH237596   3.152   3.979  14.487  0.2950 -0.1134  0.0985
 5394TIP3    H137597   3.057   3.981  14.497  0.2324  0.2712 -0.5199
 5394TIP3    H237598   3.171   4.054  14.430  1.0233  0.1440  0.6770
 5395TIP3   OH237599   4.795   2.832  15.354  0.1612 -0.0198 -0.2453
 5395TIP3    H137600   4.756   2.892  15.416 -1.7013 -1.2600 -0.1793
 5395TIP3    H237601   4.875   2.875  15.325 -0.2507  1.6769  1.1117
 5396TIP3   OH237602   5.581   1.013   3.924 -0.6791 -0.4697 -0.3835
 5396TIP3    H137603   5.664   0.966   3.934 -0.4385  0.5313  2.8783
 5396TIP3    H237604   5.514   0.951   3.950 -0.7502 -0.4535 -0.5239
 5397TIP3   OH237605   0.542   2.971  11.570  0.2838 -0.1855  0.3238
 5397TIP3    H137606   0.553   2.876  11.580  1.3874 -0.1807 -0.6751
 5397TIP3    H237607   0.627   3.007  11.596  0.2855  0.4303 -0.5334
 5398TIP3   OH237608   2.906   2.298  15.676 -0.2404 -0.9648 -0.2778
 5398TIP3    H137609   2.849   2.374  15.681  0.0288 -0.7679 -0.2141
 5398TIP3    H237610   2.875   2.240  15.745  1.4035  0.3383  1.6057
 5399TIP3   OH237611   0.395   0.968  15.608  0.0304  0.4046 -0.5396
 5399TIP3    H137612   0.396   1.057  15.573 -2.9016  1.3084  1.4957
 5399TIP3    H237613   0.327   0.924  15.557 -0.5111  0.1882  0.3588
 5400TIP3   OH237614   2.261   5.539   2.684  0.0829  0.0804  0.0423
 5400TIP3    H137615   2.220   5.624   2.693  0.2123  0.1075  0.3592
 5400TIP3    H237616   2.244   5.514   2.593 -0.6399  0.0891  0.1710
 5401TIP3   OH237617   6.500   1.080  13.985 -0.2555  0.4605  0.2153
 5401TIP3    H137618   6.430   1.075  13.920 -1.5937 -2.6081  1.8148
 5401TIP3    H237619   6.473   1.151  14.044 -0.4904  1.2855 -0.8715
 5402TIP3   OH237620   5.911   6.453  14.603  0.2433  0.2102 -0.0817
 5402TIP3    H137621   5.943   6.543  14.606 -1.2026  0.6902  1.7245
 5402TIP3    H237622   5.900   6.435  14.509 -1.8939  2.8332 -0.4213
 5403TIP3   OH237623   5.031   4.059   1.204 -0.5494  0.1179  0.3146
 5403TIP3    H137624   5.007   3.987   1.262  0.1009  0.2855  0.7914
 5403TIP3    H237625   5.105   4.102   1.247  0.5170 -0.3023 -1.0767
 5404TIP3   OH237626   3.945   5.428   1.450 -0.3038  0.0158 -0.0559
 5404TIP3    H137627   3.859   5.459   1.478 -0.0584  0.5737  0.0712
 5404TIP3    H237628   3.966   5.481   1.373  0.7365  1.1321  0.9934
 5405TIP3   OH237629   6.200   1.359  12.978  0.2754  0.3699  0.0329
 5405TIP3    H137630   6.231   1.328  12.893  2.1084 -0.5592  0.9963
 5405TIP3    H237631   6.120   1.406  12.959  0.5825  0.0421 -2.1969
 5406TIP3   OH237632   6.572   2.412   5.208  0.5236 -1.1540 -0.2210
 5406TIP3    H137633   6.577   2.357   5.286  2.8776 -1.0909 -0.2922
 5406TIP3    H237634   6.539   2.496   5.240 -0.5281 -1.7836  0.3500
 5407TIP3   OH237635   4.503   1.278   4.004 -0.0190  0.1565  0.3275
 5407TIP3    H137636   4.516   1.186   4.028  0.1493  0.3102  0.8295
 5407TIP3    H237637   4.494   1.324   4.087  0.0661  0.6218  0.0836
 5408TIP3   OH237638   4.669   3.684   3.224  0.4551  0.4086  0.1766
 5408TIP3    H137639   4.681   3.764   3.173  0.8604 -0.2254 -0.7492
 5408TIP3    H237640   4.591   3.643   3.187 -0.1215  0.7005  1.0777
 5409TIP3   OH237641   4.418   6.016  13.882  0.4864 -0.1507 -0.3032
 5409TIP3    H137642   4.367   6.097  13.879  0.1332 -0.3102  0.9841
 5409TIP3    H237643   4.356   5.948  13.854  0.5072 -0.0956 -0.4801
 5410TIP3   OH237644   0.481   2.156  14.132 -0.0457 -0.0503 -0.2474
 5410TIP3    H137645   0.475   2.101  14.053 -0.6861  2.0987 -1.7401
 5410TIP3    H237646   0.572   2.148  14.160  0.2149 -0.7517 -1.2679
 5411TIP3   OH237647   3.616   5.940  14.670 -0.2765 -0.2683 -0.2733
 5411TIP3    H137648   3.689   5.991  14.705 -0.0212  0.1063 -1.3194
 5411TIP3    H237649   3.574   5.999  14.606 -0.5579 -1.0292 -0.8021
 5412TIP3   OH237650   4.395   2.325   3.389  0.1352 -0.0167 -0.2155
 5412TIP3    H137651   4.477   2.362   3.422 -0.1110 -0.7358  1.2547
 5412TIP3    H237652   4.328   2.388   3.418  0.1582  0.5500 -1.3810
 5413TIP3   OH237653   6.286   3.831  14.815  0.1598 -0.1112  0.4066
 5413TIP3    H137654   6.273   3.812  14.722  1.0583 -1.2815  0.5093
 5413TIP3    H237655   6.361   3.777  14.841  1.7559  2.3393  1.1351
 5414TIP3   OH237656   0.672   4.972   2.211  0.0979  0.5288 -0.0412
 5414TIP3    H137657   0.723   4.894   2.233  0.1545  0.2898 -0.9943
 5414TIP3    H237658   0.715   5.044   2.257  1.7451  0.4480 -1.4031
 5415TIP3   OH237659   0.366   4.610   6.013  0.1412 -0.0830 -0.5703
 5415TIP3    H137660   0.450   4.580   6.047  0.4461 -0.8522 -1.9653
 5415TIP3    H237661   0.307   4.535   6.024 -0.4293  0.5210  0.5937
 5416TIP3   OH237662   5.207   2.442   4.035 -0.4621 -0.2436 -0.3457
 5416TIP3    H137663   5.267   2.369   4.045 -1.2680 -1.3327 -3.0548
 5416TIP3    H237664   5.194   2.475   4.124  2.7457 -1.0644  0.4858
 5417TIP3   OH237665   5.917   5.005  16.178  0.4570  0.1186  0.1343
 5417TIP3    H137666   5.917   4.912  16.155  2.3687 -0.1494  1.0558
 5417TIP3    H237667   5.825   5.027  16.191  0.0203 -1.7580  0.3286
 5418TIP3   OH237668   4.694   5.881   3.366 -0.6243 -0.3376  0.8548
 5418TIP3    H137669   4.604   5.883   3.399 -1.0121  0.6729 -0.2229
 5418TIP3    H237670   4.686   5.907   3.274  0.8156  0.1766  0.8682
 5419TIP3   OH237671   2.123   2.569  13.841 -0.2360  0.2490 -0.3127
 5419TIP3    H137672   2.063   2.568  13.767  1.9985  0.2105 -2.1579
 5419TIP3    H237673   2.123   2.660  13.871  0.7704  0.8032 -1.9624
 5420TIP3   OH237674   4.212   1.954   0.363  0.2796 -0.2375  0.0515
 5420TIP3    H137675   4.126   1.969   0.402  0.0896 -2.1155  0.3754
 5420TIP3    H237676   4.208   1.999   0.278 -1.8350 -2.2441 -0.9589
 5421TIP3   OH237677   1.623   5.054  13.601  0.4596  1.1952  0.3718
 5421TIP3    H137678   1.611   4.964  13.572  2.3633  1.3385 -0.9439
 5421TIP3    H237679   1.591   5.108  13.528  1.5551  1.5745  0.1687
 5422TIP3   OH237680   1.491   0.370   0.087 -0.0584  0.1575  0.2153
 5422TIP3    H137681   1.508   0.356   0.180 -0.1106 -1.9577 -0.0484
 5422TIP3    H237682   1.552   0.310   0.043 -1.1782 -0.0824 -1.0485
 5423TIP3   OH237683   0.074   3.405  11.503 -0.2176 -0.0518 -0.0270
 5423TIP3    H137684   0.049   3.494  11.529  0.1910  0.3026 -0.8230
 5423TIP3    H237685   0.068   3.354  11.584 -1.1332  0.5471  0.2952
 5424TIP3   OH237686   5.004   5.800  11.886  0.2620 -0.2313 -0.3649
 5424TIP3    H137687   5.022   5.711  11.919  0.4162 -0.1406 -0.1974
 5424TIP3    H237688   5.014   5.793  11.791 -0.4790 -0.5639 -0.4201
 5425TIP3   OH237689   0.546   3.319  12.457 -0.0486  0.4363  0.2534
 5425TIP3    H137690   0.606   3.265  12.508 -1.6881 -0.0039  1.7878
 5425TIP3    H237691   0.459   3.283  12.478 -0.9409  1.9533 -0.8090
 5426TIP3   OH237692   4.248   5.718   5.031  0.0486 -0.8233  0.5593
 5426TIP3    H137693   4.281   5.661   4.961  0.7709 -0.0134  0.2229
 5426TIP3    H237694   4.153   5.717   5.019 -0.0122 -2.4852  0.9871
 5427TIP3   OH237695   6.544   1.711  16.795 -0.4918 -0.2210 -0.5232
 5427TIP3    H137696   6.507   1.623  16.782  0.6023 -0.6523 -0.8453
 5427TIP3    H237697   6.470   1.770  16.786 -1.5644 -1.2276  1.4782
 5428TIP3   OH237698   4.792   0.872  13.130 -0.0305 -0.1506 -0.5016
 5428TIP3    H137699   4.697   0.878  13.133 -0.1636 -1.4180 -1.5094
 5428TIP3    H237700   4.814   0.802  13.192  0.3115  0.6269  0.2663
 5429TIP3   OH237701   5.547   6.641  15.458 -0.0248  0.0146 -0.2707
 5429TIP3    H137702   5.583   6.633  15.369 -1.1965 -1.5512 -0.6424
 5429TIP3    H237703   5.622   6.627  15.515  0.6407  0.4710 -1.0104
 5430TIP3   OH237704   6.187   2.449   6.385 -0.3509 -0.0954 -0.5674
 5430TIP3    H137705   6.211   2.373   6.333  2.4097  0.3663 -0.0305
 5430TIP3    H237706   6.150   2.511   6.322  3.7227  0.8093 -2.1956
 5431TIP3   OH237707   4.289   4.162   3.614  0.1608  0.2129 -0.3638
 5431TIP3    H137708   4.378   4.179   3.582  0.5432  2.2608  1.7144
 5431TIP3    H237709   4.242   4.244   3.600 -1.7276 -1.1673 -2.3827
 5432TIP3   OH237710   1.492   5.461  13.508 -0.2625  0.3312  0.0629
 5432TIP3    H137711   1.572   5.415  13.485 -0.6864 -0.1874 -0.4009
 5432TIP3    H237712   1.443   5.466  13.425 -0.9601  0.1368  0.4590
 5433TIP3   OH237713   0.037   3.080  14.174 -0.1651  0.2138  0.8104
 5433TIP3    H137714   0.023   3.039  14.089 -2.4675 -0.7501  1.6068
 5433TIP3    H237715   0.082   3.014  14.226  1.2452  0.8041  0.3530
 5434TIP3   OH237716   2.327   5.343  12.131  0.3375  0.0419  0.1357
 5434TIP3    H137717   2.257   5.358  12.067  1.7024  1.8720 -0.9860
 5434TIP3    H237718   2.330   5.423  12.183 -0.0888 -1.0467  1.8596
 5435TIP3   OH237719   6.254   4.093   3.555 -0.0174 -0.0535  0.4966
 5435TIP3    H137720   6.310   4.171   3.561 -0.5526  0.1820  2.4994
 5435TIP3    H237721   6.210   4.088   3.639 -3.5718  0.1413 -1.2813
 5436TIP3   OH237722   4.106   1.341   3.762 -0.0410 -0.5149  0.2808
 5436TIP3    H137723   4.099   1.431   3.730 -0.7294 -0.3842  0.7970
 5436TIP3    H237724   4.146   1.350   3.848  3.3078 -0.9850 -1.1543
 5437TIP3   OH237725   5.886   4.193   2.131 -0.1567 -0.2907 -0.5670
 5437TIP3    H137726   5.972   4.152   2.116 -0.1213 -0.3220 -0.2862
 5437TIP3    H237727   5.878   4.195   2.226 -0.2875  0.0936 -0.5884
 5438TIP3   OH237728   5.705   1.694   6.493  0.0612  0.0574 -0.0256
 5438TIP3    H137729   5.667   1.609   6.514 -0.8373  0.3411 -0.4631
 5438TIP3    H237730   5.739   1.685   6.404 -1.4845  0.6113 -0.7051
 5439TIP3   OH237731   4.942   2.979   2.268 -0.2225 -0.0029  0.5615
 5439TIP3    H137732   4.893   2.900   2.289 -0.6470 -0.2818 -1.3409
 5439TIP3    H237733   4.878   3.050   2.270  0.1757  0.3222  2.3588
 5440TIP3   OH237734   0.564   1.212   5.533  0.2718  0.5901  0.2229
 5440TIP3    H137735   0.570   1.274   5.460 -0.0092  0.9746  0.5278
 5440TIP3    H237736   0.510   1.140   5.499  1.0323  0.2625 -0.3024
 5441TIP3   OH237737   1.535   0.214   1.543  0.5520  0.6900  0.0632
 5441TIP3    H137738   1.458   0.264   1.514  0.9998  0.5023 -1.5177
 5441TIP3    H237739   1.519   0.196   1.635  0.2848  3.5901  0.6151
 5442TIP3   OH237740   4.781   4.976   0.821 -1.0707  0.2492  0.0374
 5442TIP3    H137741   4.814   4.981   0.910 -0.4570  0.3307 -0.1965
 5442TIP3    H237742   4.813   5.055   0.778 -1.0063  0.0022 -0.3794
 5443TIP3   OH237743   1.221   2.093   4.287 -0.1925  0.5061  0.7701
 5443TIP3    H137744   1.201   2.010   4.331  0.6575 -0.9050 -1.3998
 5443TIP3    H237745   1.316   2.092   4.278 -0.3235  0.8987 -0.7863
 5444TIP3   OH237746   1.911   3.371  16.686  0.8027 -0.7183 -0.6479
 5444TIP3    H137747   1.863   3.351  16.766  1.7284 -0.9460 -0.1404
 5444TIP3    H237748   1.875   3.312  16.621 -0.8200  0.3233 -0.7196
 5445TIP3   OH237749   0.570   6.386   4.429  0.1155  0.1781 -0.3764
 5445TIP3    H137750   0.527   6.406   4.346 -1.3406 -1.3681 -0.0257
 5445TIP3    H237751   0.614   6.302   4.413  0.2207  0.1073  0.2695
 5446TIP3   OH237752   0.437   6.722   2.901  0.9429  0.3245  0.0421
 5446TIP3    H137753   0.348   6.719   2.935  1.4279 -1.4461  1.2278
 5446TIP3    H237754   0.480   6.791   2.951  0.8862 -0.4044  1.1000
 5447TIP3   OH237755   0.535   1.575   1.717 -0.3609  0.1685 -0.3463
 5447TIP3    H137756   0.607   1.607   1.770  0.0508 -0.3631 -0.5888
 5447TIP3    H237757   0.459   1.578   1.776  0.0462 -0.2091  0.2067
 5448TIP3   OH237758   0.381   5.027   2.527  0.0518  0.1100  0.2959
 5448TIP3    H137759   0.381   5.052   2.434  0.4150  1.4383  0.6448
 5448TIP3    H237760   0.428   4.944   2.529  0.9676  0.5932 -0.5811
 5449TIP3   OH237761   1.044   3.889  16.460 -0.1224  0.2489  0.0271
 5449TIP3    H137762   1.087   3.843  16.388 -0.3685  1.0617 -0.6469
 5449TIP3    H237763   1.110   3.892  16.529  0.9714  1.5981 -1.0437
 5450TIP3   OH237764   2.846   2.902  11.501 -0.1290 -0.3614  0.4502
 5450TIP3    H137765   2.929   2.948  11.488 -0.2378 -0.3652 -0.2722
 5450TIP3    H237766   2.818   2.876  11.413  0.1285 -2.1772  0.8830
 5451TIP3   OH237767   5.869   4.660   4.427 -0.6747  0.0547 -0.2709
 5451TIP3    H137768   5.824   4.586   4.467 -0.1721 -0.2284 -0.2134
 5451TIP3    H237769   5.962   4.637   4.434 -0.5360  0.5091 -0.6096
 5452TIP3   OH237770   0.419   3.134  16.309  0.8170 -0.5872  0.0656
 5452TIP3    H137771   0.350   3.166  16.251  0.1082 -0.1148  1.1667
 5452TIP3    H237772   0.375   3.075  16.370  1.3098  0.0429  1.0460
 5453TIP3   OH237773   0.578   0.555  13.218  0.2942  0.3419 -1.0521
 5453TIP3    H137774   0.558   0.479  13.273 -0.1723  0.7384 -0.6746
 5453TIP3    H237775   0.494   0.580  13.181  0.4180  0.7997 -1.0229
 5454TIP3   OH237776   3.035   4.468  11.007  0.0541  0.3300  0.5062
 5454TIP3    H137777   3.026   4.552  11.052  1.1034  1.1404 -0.7572
 5454TIP3    H237778   2.951   4.424  11.022 -0.6126  1.7183  0.9608
 5455TIP3   OH237779   5.068   2.306  11.491 -0.0655 -0.2804 -0.5816
 5455TIP3    H137780   5.022   2.229  11.457  0.4814 -1.1690  0.6519
 5455TIP3    H237781   5.132   2.270  11.552  2.4514  0.8851 -2.4166
 5456TIP3   OH237782   3.506   1.586   2.300 -0.0528  0.1186  0.0207
 5456TIP3    H137783   3.519   1.495   2.327 -1.4831  0.9631  3.9101
 5456TIP3    H237784   3.577   1.603   2.238  0.2650 -3.6191 -0.7592
 5457TIP3   OH237785   3.620   6.551  16.655 -0.0198  0.4865 -0.4223
 5457TIP3    H137786   3.527   6.533  16.652  0.3160 -1.7155  0.9385
 5457TIP3    H237787   3.637   6.610  16.581 -2.4336  0.8098 -0.7321
 5458TIP3   OH237788   4.316   0.147   5.170 -0.1817 -0.4257 -0.3305
 5458TIP3    H137789   4.393   0.172   5.222 -1.2917  1.0968  0.6423
 5458TIP3    H237790   4.322   0.052   5.161  0.6342 -0.5741  1.6198
 5459TIP3   OH237791   5.019   1.089  17.214  0.7054  0.0098  0.0158
 5459TIP3    H137792   5.027   1.088  17.118 -0.2776  1.8024 -0.1084
 5459TIP3    H237793   5.005   0.998  17.238 -1.4951 -0.1582 -1.7833
 5460TIP3   OH237794   2.199   5.480  13.324 -0.9064  0.0954 -0.5759
 5460TIP3    H137795   2.125   5.435  13.363  0.6044 -0.8382  1.3145
 5460TIP3    H237796   2.242   5.414  13.270  0.4349 -0.3578  0.9935
 5461TIP3   OH237797   2.269   1.679   0.355 -0.0136 -0.0411 -0.7096
 5461TIP3    H137798   2.186   1.638   0.379  0.4596  0.5169  2.0279
 5461TIP3    H237799   2.246   1.769   0.334 -0.1218  0.1354  0.1304
 5462TIP3   OH237800   5.906   2.710   1.178  0.3408  0.9489  0.2219
 5462TIP3    H137801   5.823   2.711   1.130  1.5371  2.3731 -1.8686
 5462TIP3    H237802   5.881   2.730   1.268 -1.8969 -1.4342  0.1926
 5463TIP3   OH237803   5.836   1.868   5.449 -1.0534 -0.7648 -1.0517
 5463TIP3    H137804   5.783   1.909   5.380 -1.1471 -0.7025 -0.9442
 5463TIP3    H237805   5.917   1.844   5.406 -0.2246  1.2678 -0.6940
 5464TIP3   OH237806   2.634   1.984  14.278  1.1390  0.1963  0.8085
 5464TIP3    H137807   2.624   2.050  14.210  1.4360  1.2495  1.7686
 5464TIP3    H237808   2.612   2.030  14.359 -1.8328 -1.7365  1.1599
 5465TIP3   OH237809   4.505   2.110   3.647 -0.2204 -0.1342 -0.0527
 5465TIP3    H137810   4.442   2.038   3.646 -0.1402 -0.2042 -0.0691
 5465TIP3    H237811   4.490   2.156   3.565  0.5215 -0.8161 -0.5737
 5466TIP3   OH237812   0.791   1.097  10.967 -0.2539  0.0724 -0.4279
 5466TIP3    H137813   0.834   1.177  10.937 -0.0017 -0.5926 -1.8622
 5466TIP3    H237814   0.745   1.123  11.046  2.2524  0.9625  0.8090
 5467TIP3   OH237815   1.734   1.642   2.017  0.1238  0.2014  0.4995
 5467TIP3    H137816   1.794   1.655   1.943  1.1488  0.8578  1.4275
 5467TIP3    H237817   1.647   1.654   1.979  0.4927 -1.8436 -1.1133
 5468TIP3   OH237818   0.367   1.033   5.465  0.3328  0.0612  0.1066
 5468TIP3    H137819   0.400   0.964   5.522  0.3620 -0.3763 -0.4344
 5468TIP3    H237820   0.372   0.996   5.377 -1.4107  0.0605 -0.0158
 5469TIP3   OH237821   1.588   5.789  10.913  0.1250  0.0117 -0.4597
 5469TIP3    H137822   1.608   5.715  10.970  2.0368  1.8551  1.3604
 5469TIP3    H237823   1.622   5.763  10.827  1.3759 -0.9620  0.3201
 5470TIP3   OH237824   1.437   1.851   4.041  0.0157  0.0495  0.2093
 5470TIP3    H137825   1.496   1.925   4.058  1.2245 -0.6265 -0.9276
 5470TIP3    H237826   1.429   1.807   4.125 -0.7365  1.4854  0.9072
 5471TIP3   OH237827   5.256   0.108   6.651 -0.4192 -0.0019  0.1336
 5471TIP3    H137828   5.233   0.168   6.722 -0.5691 -0.6073  0.5957
 5471TIP3    H237829   5.329   0.057   6.685  0.0131  0.2287 -0.4304
 5472TIP3   OH237830   4.127   2.241  16.011  0.2092  0.7433  0.0034
 5472TIP3    H137831   4.072   2.245  16.089 -0.6284  0.6136 -0.5751
 5472TIP3    H237832   4.066   2.233  15.938  0.9260  2.1148 -0.7752
 5473TIP3   OH237833   4.585   1.794   3.828  0.4882 -0.4407  0.1765
 5473TIP3    H137834   4.574   1.718   3.885 -0.5107 -0.0223  0.5693
 5473TIP3    H237835   4.591   1.868   3.888  3.0547 -0.3464 -0.1323
 5474TIP3   OH237836   0.632   1.647  12.760 -0.1573 -0.0802  0.1566
 5474TIP3    H137837   0.672   1.604  12.836 -2.2577 -0.8364  0.8752
 5474TIP3    H237838   0.556   1.694  12.796 -0.9146 -0.0716 -1.3936
 5475TIP3   OH237839   0.964   4.487  12.264  0.1886  0.2447 -0.0016
 5475TIP3    H137840   0.952   4.400  12.302 -0.4886 -1.0470 -3.0116
 5475TIP3    H237841   0.877   4.528  12.271  0.4278  0.5709  1.1279
 5476TIP3   OH237842   2.815   5.358   0.014 -0.2725  0.7135  0.5154
 5476TIP3    H137843   2.761   5.405  -0.050 -1.7008 -0.2583  0.9764
 5476TIP3    H237844   2.776   5.271   0.018  0.7511  0.2993  1.5812
 5477TIP3   OH237845   3.881   0.741   5.742 -0.4152 -0.2492 -0.1233
 5477TIP3    H137846   3.887   0.780   5.654 -1.3135  0.2986  0.0522
 5477TIP3    H237847   3.960   0.773   5.787  0.2392 -0.8264 -0.8370
 5478TIP3   OH237848   6.420   1.881   0.113 -0.0373 -0.4194  0.7131
 5478TIP3    H137849   6.393   1.970   0.092  1.8341  0.1957  0.9066
 5478TIP3    H237850   6.412   1.874   0.208  0.0168 -0.4000  0.7189
 5479TIP3   OH237851   2.262   6.728   1.184 -0.2984  0.3812  0.6195
 5479TIP3    H137852   2.214   6.661   1.234  0.5178  1.5243  3.0314
 5479TIP3    H237853   2.251   6.808   1.236  3.6659  0.8052  0.9325
 5480TIP3   OH237854   0.503   5.073  15.841  0.3055  0.2168 -0.3880
 5480TIP3    H137855   0.595   5.092  15.860  0.5487 -1.3836  0.1238
 5480TIP3    H237856   0.504   4.988  15.798 -1.0296 -0.3038  0.5747
 5481TIP3   OH237857   2.605   2.432  11.239 -0.5086 -0.6649  0.0421
 5481TIP3    H137858   2.608   2.338  11.219  2.7566 -0.4420 -0.6799
 5481TIP3    H237859   2.685   2.468  11.201 -1.2991  2.2898  1.0413
 5482TIP3   OH237860   4.698   4.213  14.168 -0.8624  0.4018 -0.2899
 5482TIP3    H137861   4.676   4.121  14.183  1.3200  0.0423  0.9407
 5482TIP3    H237862   4.723   4.217  14.076  0.3647 -0.5437 -0.0098
 5483TIP3   OH237863   0.500   6.147  13.129 -0.1306  0.2611  0.6898
 5483TIP3    H137864   0.466   6.066  13.092 -1.8579  1.2084  0.1140
 5483TIP3    H237865   0.583   6.161  13.084 -0.2135 -0.7783  0.2061
 5484TIP3   OH237866   5.769   0.169   4.315 -0.2155  0.4154 -0.4198
 5484TIP3    H137867   5.737   0.161   4.405 -1.6647  1.0103 -0.8641
 5484TIP3    H237868   5.865   0.164   4.323 -0.4109 -2.5500  0.8339
 5485TIP3   OH237869   2.318   6.217   1.556  0.5348  0.5420  0.0297
 5485TIP3    H137870   2.233   6.230   1.516 -0.8823  2.0551  3.3392
 5485TIP3    H237871   2.352   6.305   1.572  1.5827 -0.0203  1.0377
 5486TIP3   OH237872   6.725   3.684   2.460 -0.5499  0.3785 -0.5693
 5486TIP3    H137873   6.632   3.660   2.457 -0.5637 -0.0450  1.8094
 5486TIP3    H237874   6.765   3.615   2.513  1.0771  0.7261 -1.3197
 5487TIP3   OH237875   2.076   3.805   4.770 -0.0921 -0.3355 -0.4211
 5487TIP3    H137876   2.022   3.870   4.724  0.3843 -0.1643 -0.7469
 5487TIP3    H237877   2.073   3.728   4.714  2.2605  0.5720 -1.8831
 5488TIP3   OH237878   2.972   4.746  10.890  0.0805  0.3825 -0.4245
 5488TIP3    H137879   2.954   4.652  10.890  0.1165  0.3710  0.2377
 5488TIP3    H237880   3.064   4.753  10.917  0.2666  0.5788 -1.0889
 5489TIP3   OH237881   3.731   0.742   4.028  0.0086  0.6071 -0.4163
 5489TIP3    H137882   3.639   0.717   4.019  0.3276 -0.8006  0.1347
 5489TIP3    H237883   3.731   0.809   4.096 -0.3238 -1.1252  1.3041
 5490TIP3   OH237884   1.675   0.530   5.197 -0.7178 -0.1933  0.0892
 5490TIP3    H137885   1.640   0.468   5.131  0.7448 -0.3731 -0.5357
 5490TIP3    H237886   1.770   0.527   5.184 -0.4277 -0.0547  2.0762
 5491TIP3   OH237887   2.815   2.438  14.459 -0.6468  0.0844  0.6369
 5491TIP3    H137888   2.772   2.398  14.534 -0.4183 -1.9392 -0.2877
 5491TIP3    H237889   2.841   2.364  14.403  0.1997  1.4872 -0.8807
 5492TIP3   OH237890   0.179   2.289   0.857 -0.5383  0.0247  0.6413
 5492TIP3    H137891   0.229   2.359   0.901  0.0533 -0.0429  0.0843
 5492TIP3    H237892   0.231   2.210   0.871  0.7201  0.3484 -1.9079
 5493TIP3   OH237893   4.852   4.526  13.986  0.1695 -0.1835  0.0511
 5493TIP3    H137894   4.946   4.537  13.969  0.3016  1.3309  1.6075
 5493TIP3    H237895   4.809   4.578  13.918  0.4650 -0.6264 -0.4765
 5494TIP3   OH237896   5.090   6.028   1.095 -0.2356 -0.3762  0.0306
 5494TIP3    H137897   5.163   6.029   1.158  0.6263 -0.4579 -0.9488
 5494TIP3    H237898   5.017   6.066   1.143  0.7516  0.7371  0.6888
 5495TIP3   OH237899   2.963   1.186   5.713  0.5862  0.0975  0.1186
 5495TIP3    H137900   3.033   1.251   5.710 -0.0154  0.6958 -1.2179
 5495TIP3    H237901   2.918   1.202   5.796  1.1501  0.6334  0.3229
 5496TIP3   OH237902   3.875   2.636   2.002 -0.1872 -0.0841  1.0590
 5496TIP3    H137903   3.793   2.641   2.051 -0.5395  0.1230  0.4484
 5496TIP3    H237904   3.927   2.709   2.036  0.5455 -1.4103  2.8929
 5497TIP3   OH237905   4.031   4.034  13.294 -0.2240 -0.0340 -0.0971
 5497TIP3    H137906   4.050   4.086  13.372 -0.6807  0.0279 -0.0246
 5497TIP3    H237907   4.110   3.983  13.279 -0.4747 -0.7281  0.9467
 5498TIP3   OH237908   4.326   1.381   0.746 -0.3431 -0.4485 -0.2964
 5498TIP3    H137909   4.346   1.469   0.778  0.8931 -1.1420  0.9002
 5498TIP3    H237910   4.232   1.370   0.761 -0.5145  0.6831 -0.5266
 5499TIP3   OH237911   3.237   2.327  13.711  0.0241 -0.3981  0.0163
 5499TIP3    H137912   3.258   2.399  13.652 -1.0685  0.8974  1.1620
 5499TIP3    H237913   3.318   2.311  13.759  0.4017 -0.2310 -0.5695
 5500TIP3   OH237914   1.602   0.224   4.533 -0.2452  0.0134  0.4018
 5500TIP3    H137915   1.564   0.225   4.620 -0.2707  0.1395  0.3898
 5500TIP3    H237916   1.679   0.168   4.541  1.4218  2.3183  1.2240
 5501TIP3   OH237917   5.919   4.367  10.757  0.1240  0.1677  0.2799
 5501TIP3    H137918   5.867   4.376  10.837  0.1888 -1.3285  0.5032
 5501TIP3    H237919   5.894   4.283  10.721  0.5857  0.5399 -0.9385
 5502TIP3   OH237920   5.498   1.786   5.905  0.1486 -0.3459  0.0225
 5502TIP3    H137921   5.573   1.840   5.880  0.5176 -1.2032 -0.7612
 5502TIP3    H237922   5.501   1.784   6.001 -0.3364  1.6484  0.0824
 5503TIP3   OH237923   5.947   0.640  15.017 -0.1593 -0.0836  0.3932
 5503TIP3    H137924   5.960   0.587  14.939  0.3669  0.7021 -0.0642
 5503TIP3    H237925   5.962   0.730  14.988  0.9390  0.1488  1.6030
 5504TIP3   OH237926   2.628   2.500   1.929  0.2374  0.3723 -0.1978
 5504TIP3    H137927   2.668   2.571   1.980 -0.3152  1.9687 -1.9142
 5504TIP3    H237928   2.695   2.432   1.925  1.1292  1.1858  0.6750
 5505TIP3   OH237929   5.765   5.356   5.613  0.7419  0.8688 -0.9409
 5505TIP3    H137930   5.814   5.407   5.678 -0.3431 -2.3053  2.5456
 5505TIP3    H237931   5.832   5.314   5.559  1.8375 -0.5274  1.4484
 5506TIP3   OH237932   6.341   0.799   1.847  0.0732  0.6560 -0.2471
 5506TIP3    H137933   6.343   0.744   1.768  0.7956 -0.6809  0.6891
 5506TIP3    H237934   6.256   0.842   1.844 -0.3714 -0.2603 -1.1596
 5507TIP3   OH237935   6.624   3.874   4.010  0.1220  0.1435  0.0902
 5507TIP3    H137936   6.563   3.841   4.076 -0.8436 -0.1721 -0.9475
 5507TIP3    H237937   6.663   3.952   4.050 -1.1541  0.4897  0.6655
 5508TIP3   OH237938   5.444   3.297  12.671  0.0290 -0.1720  0.2802
 5508TIP3    H137939   5.486   3.236  12.611  0.4068 -0.0087  0.3728
 5508TIP3    H237940   5.517   3.338  12.718 -0.1645  1.0337 -0.4393
 5509TIP3   OH237941   2.142   0.520   6.094 -0.0300  0.4834  0.0812
 5509TIP3    H137942   2.196   0.545   6.169 -2.1034 -0.7425  2.0555
 5509TIP3    H237943   2.165   0.428   6.077  1.0466  1.0040 -1.3549
 5510TIP3   OH237944   3.903   1.747   3.446 -0.0692  0.2202 -0.7145
 5510TIP3    H137945   3.955   1.715   3.519  1.3652  2.2332 -0.8293
 5510TIP3    H237946   3.963   1.802   3.395 -1.9988  1.7394 -1.4196
 5511TIP3   OH237947   0.091   3.093   4.952 -0.2063 -0.5116 -0.5443
 5511TIP3    H137948   0.144   3.161   4.993  2.1494 -1.8443 -1.2350
 5511TIP3    H237949   0.051   3.136   4.877  0.4793  0.3600 -0.4217
 5512TIP3   OH237950   3.446   2.723  12.306 -0.5060 -0.0731  0.2028
 5512TIP3    H137951   3.467   2.753  12.395 -0.9843  0.0362  0.2795
 5512TIP3    H237952   3.465   2.799  12.250  0.7923 -0.4740  0.0839
 5513TIP3   OH237953   5.135   4.487  13.898 -0.5667  0.2087 -0.2429
 5513TIP3    H137954   5.176   4.455  13.817 -1.4398 -0.3523 -0.4552
 5513TIP3    H237955   5.210   4.508  13.955  0.0563  0.6076 -1.1872
 5514TIP3   OH237956   0.006   3.934   2.567  0.0831 -0.3930 -0.4050
 5514TIP3    H137957   0.087   3.922   2.617  1.0020  1.0417 -1.4846
 5514TIP3    H237958  -0.019   3.846   2.539  1.6210 -0.7936 -0.5761
 5515TIP3   OH237959   4.230   0.722   3.434 -0.7698  0.1043  0.3861
 5515TIP3    H137960   4.213   0.705   3.526 -0.4167  1.0292  0.6339
 5515TIP3    H237961   4.150   0.697   3.389 -1.5661  1.2316  1.1384
 5516TIP3   OH237962   5.664   3.517   0.708 -0.0895 -0.3280  0.1620
 5516TIP3    H137963   5.677   3.476   0.793 -0.6399 -1.4673 -0.2910
 5516TIP3    H237964   5.747   3.504   0.661  0.6187  1.2863  0.9026
 5517TIP3   OH237965   2.321   0.268   5.738  0.7238 -0.0974 -0.4603
 5517TIP3    H137966   2.388   0.332   5.764  0.5759  0.6700 -1.9223
 5517TIP3    H237967   2.239   0.304   5.772  0.6215  0.5737 -1.3968
 5518TIP3   OH237968   1.893   1.105   3.126  0.1362 -0.3696  0.2176
 5518TIP3    H137969   1.885   1.182   3.070 -1.4688  1.0298  2.3250
 5518TIP3    H237970   1.986   1.080   3.119  0.3413  0.8195 -1.6422
 5519TIP3   OH237971   4.756   0.028   5.785  0.1483 -0.3347  0.3440
 5519TIP3    H137972   4.828   0.022   5.723  0.0328  0.2748  0.1458
 5519TIP3    H237973   4.728  -0.063   5.798 -0.5832 -0.3810 -1.4030
 5520TIP3   OH237974   0.862   0.184  16.233  0.2307 -0.1999  0.2765
 5520TIP3    H137975   0.803   0.256  16.259  0.7098  0.5540 -0.7129
 5520TIP3    H237976   0.869   0.192  16.138  1.9658 -0.2653  0.3922
 5521TIP3   OH237977   4.489   6.357  15.897  0.0751  0.0666 -1.1302
 5521TIP3    H137978   4.468   6.273  15.855  0.7411 -0.4396 -0.4627
 5521TIP3    H237979   4.546   6.401  15.835  0.8658 -0.5792 -0.8775
 5522TIP3   OH237980   5.171   6.462   1.531 -0.6040 -0.2027 -0.0434
 5522TIP3    H137981   5.187   6.367   1.524 -3.2812 -0.7606  1.0554
 5522TIP3    H237982   5.110   6.481   1.460  0.8769  0.9928 -1.0552
 5523TIP3   OH237983   2.788   1.043   6.233  0.4853 -0.5168 -0.3199
 5523TIP3    H137984   2.847   1.010   6.300  0.6828  1.5648  0.5578
 5523TIP3    H237985   2.732   0.968   6.211  0.0479 -1.0915  2.5741
 5524TIP3   OH237986   3.498   2.366   2.258  0.1434  0.2343 -0.2838
 5524TIP3    H137987   3.480   2.328   2.172 -0.1430  0.6141 -0.3958
 5524TIP3    H237988   3.411   2.388   2.292  0.2001 -0.6663  0.4528
 5525TIP3   OH237989   5.762   6.390   6.161  0.2236  0.2354  0.6497
 5525TIP3    H137990   5.784   6.429   6.076  1.5099 -1.3577  0.2399
 5525TIP3    H237991   5.670   6.364   6.152  0.0922  0.8766  0.0536
 5526TIP3   OH237992   0.341   0.728   1.480  0.1295 -0.3600 -0.3031
 5526TIP3    H137993   0.364   0.640   1.451 -0.1402 -0.4860 -0.1414
 5526TIP3    H237994   0.344   0.782   1.401 -0.0245 -0.5813 -0.4594
 5527TIP3   OH237995   5.445   5.643   2.442  0.0959 -0.2372 -0.3018
 5527TIP3    H137996   5.351   5.658   2.427 -0.1057 -0.9631  0.2156
 5527TIP3    H237997   5.448   5.580   2.513  0.9084 -2.6826 -2.4039
 5528TIP3   OH237998   4.331   2.479  14.115  0.5684  0.5041  0.1018
 5528TIP3    H137999   4.407   2.430  14.146  0.1158 -0.1219  0.2490
 5528TIP3    H238000   4.360   2.520  14.034  0.9998  0.1070  0.0514
 5529TIP3   OH238001   2.312   0.099  11.736  0.0426  0.1109  0.1829
 5529TIP3    H138002   2.355   0.056  11.810  0.4876 -0.2732 -0.2961
 5529TIP3    H238003   2.314   0.034  11.666  0.3344  0.7593 -0.4166
 5530TIP3   OH238004   6.447   4.308  16.808 -0.4320 -0.0599 -0.2987
 5530TIP3    H138005   6.530   4.301  16.856 -0.5277  0.8871  0.0157
 5530TIP3    H238006   6.406   4.387  16.843 -1.3838 -0.4174 -0.5859
 5531TIP3   OH238007   1.336   1.216   5.801  0.1570 -0.4409 -0.0540
 5531TIP3    H138008   1.388   1.294   5.786  0.4050 -0.9168 -1.8000
 5531TIP3    H238009   1.399   1.144   5.799 -0.3716 -0.8911 -0.7794
 5532TIP3   OH238010   5.630   6.604   1.350  0.2684  0.1287  0.0404
 5532TIP3    H138011   5.650   6.676   1.410 -0.8061 -0.2641  0.8915
 5532TIP3    H238012   5.540   6.579   1.373  0.8050 -1.7973  0.0759
 5533TIP3   OH238013   3.556   6.336  11.165  0.0088 -0.6859 -0.5145
 5533TIP3    H138014   3.587   6.399  11.099  1.7049 -0.1733  0.7238
 5533TIP3    H238015   3.546   6.254  11.117 -0.6890  0.1433 -1.8226
 5534TIP3   OH238016   4.075   0.602  16.189  0.6085 -0.0593 -0.6056
 5534TIP3    H138017   4.005   0.539  16.208  0.9232 -0.3307 -0.3396
 5534TIP3    H238018   4.075   0.662  16.263  0.3446  0.2203 -0.8303
 5535TIP3   OH238019   5.129   0.342   4.339  0.5158  0.1244  0.3944
 5535TIP3    H138020   5.185   0.279   4.386 -0.1674  0.2817  1.4402
 5535TIP3    H238021   5.109   0.300   4.256 -0.9322 -1.5838  1.5656
 5536TIP3   OH238022   3.672   1.835   6.624 -0.2966 -0.0591  0.3349
 5536TIP3    H138023   3.602   1.772   6.637  0.0208 -0.3223  0.8189
 5536TIP3    H238024   3.753   1.785   6.638 -0.0751  0.7423  2.0636
 5537TIP3   OH238025   3.867   2.798   4.084 -0.3667  0.1084 -0.3376
 5537TIP3    H138026   3.959   2.813   4.063 -0.4029  0.5706 -0.1827
 5537TIP3    H238027   3.860   2.821   4.177 -0.8576  1.0937 -0.6130
 5538TIP3   OH238028   5.006   1.795  13.237 -0.3340  0.5012  0.0423
 5538TIP3    H138029   4.984   1.797  13.330 -1.6241  1.2750 -0.2653
 5538TIP3    H238030   5.096   1.828  13.233  0.2072 -0.7963  1.1290
 5539TIP3   OH238031   6.598   0.745  16.819 -0.2387  0.0626  0.3830
 5539TIP3    H138032   6.513   0.728  16.779 -0.3174 -0.7668  0.8868
 5539TIP3    H238033   6.619   0.835  16.795 -0.8415 -0.0317 -0.5014
 5540TIP3   OH238034   1.286   0.759  12.553 -0.7059 -0.0699  0.5083
 5540TIP3    H138035   1.327   0.815  12.487  0.1454 -0.8531  0.3745
 5540TIP3    H238036   1.271   0.817  12.627  1.4670  0.0275  0.9010
 5541TIP3   OH238037   5.813   2.392   2.831 -0.2608  0.0238  0.0292
 5541TIP3    H138038   5.782   2.301   2.833 -0.9608  0.2903  2.7667
 5541TIP3    H238039   5.747   2.438   2.778 -0.9555 -0.6902  0.2576
 5542TIP3   OH238040   1.892   6.394   1.346  0.3698 -0.1216 -0.0508
 5542TIP3    H138041   1.857   6.441   1.421  0.4803  1.2363 -0.8246
 5542TIP3    H238042   1.833   6.319   1.334 -1.1250  1.0597 -0.1477
 5543TIP3   OH238043   2.351   2.621   1.360 -0.0504  0.1958 -0.3003
 5543TIP3    H138044   2.379   2.677   1.288  1.9810 -1.2184 -0.6480
 5543TIP3    H238045   2.353   2.533   1.323 -0.4708 -0.3765  1.0437
 5544TIP3   OH238046   2.748   5.066  13.376 -0.2070  0.1108  0.5255
 5544TIP3    H138047   2.688   5.000  13.339 -1.3684  1.1920  0.4334
 5544TIP3    H238048   2.776   5.117  13.300 -0.5635  0.7099  0.7935
 5545TIP3   OH238049   0.091   4.663   0.846 -0.3947 -0.1592  0.5664
 5545TIP3    H138050   0.045   4.707   0.917 -0.5884  0.3636  0.1173
 5545TIP3    H238051   0.050   4.695   0.767  0.5719  0.1146  0.1643
 5546TIP3   OH238052   3.906   4.445   1.387  0.1286 -0.2928  0.8278
 5546TIP3    H138053   3.812   4.457   1.373  0.1603 -1.5706 -0.6329
 5546TIP3    H238054   3.937   4.402   1.307  2.2964  1.7560  0.5193
 5547TIP3   OH238055   4.220   3.246  14.352 -0.2414 -0.1445 -0.0101
 5547TIP3    H138056   4.275   3.242  14.273  1.0368 -0.3350  0.8866
 5547TIP3    H238057   4.175   3.162  14.353 -1.2369  0.3617 -1.2337
 5548TIP3   OH238058   0.625   4.451   4.986  0.0431  0.4588  0.2560
 5548TIP3    H138059   0.583   4.370   5.013  1.2647 -0.4280 -0.4376
 5548TIP3    H238060   0.586   4.519   5.042 -1.0343 -0.5860  0.7847
 5549TIP3   OH238061   5.894   6.626   2.364  0.1425  0.5310  0.3353
 5549TIP3    H138062   5.845   6.576   2.299  1.7139 -0.7371  0.0944
 5549TIP3    H238063   5.874   6.583   2.447 -1.7325  2.0484  0.7180
 5550TIP3   OH238064   4.433   2.864   0.024 -0.1015  0.0833 -0.4408
 5550TIP3    H138065   4.357   2.826   0.067  0.5101  0.4451  1.0161
 5550TIP3    H238066   4.496   2.792   0.018 -0.3737 -0.0944 -1.2027
 5551TIP3   OH238067   1.149   2.568  14.251  0.2657  0.1006 -0.8668
 5551TIP3    H138068   1.180   2.594  14.164  0.9822 -0.9942 -0.9410
 5551TIP3    H238069   1.198   2.489  14.271  0.7362  0.8355  0.9266
 5552TIP3   OH238070   2.996   3.201   1.350  0.3178  0.5998 -0.5339
 5552TIP3    H138071   3.039   3.201   1.264 -0.9374 -1.2771 -1.1869
 5552TIP3    H238072   2.938   3.277   1.349  0.9889  1.1067 -0.9875
 5553TIP3   OH238073   0.271   1.264  14.159  0.0411  0.2773 -0.4453
 5553TIP3    H138074   0.183   1.227  14.165  0.1740  0.0642  0.2449
 5553TIP3    H238075   0.307   1.256  14.247  0.2229  1.6932 -0.3719
 5554TIP3   OH238076   3.466   4.647  12.399 -0.1905  0.0311 -0.1934
 5554TIP3    H138077   3.404   4.575  12.400  0.4907 -0.5611  0.1077
 5554TIP3    H238078   3.542   4.614  12.448  0.7925  0.3539 -1.4787
 5555TIP3   OH238079   4.134   5.959  16.974  0.4240 -0.1501  0.1568
 5555TIP3    H138080   4.182   6.040  16.954  0.5471  0.0628  1.2940
 5555TIP3    H238081   4.197   5.905  17.022  0.9218 -1.6725 -2.1456
 5556TIP3   OH238082   0.003   3.257  14.382  0.2415 -0.3351 -0.5236
 5556TIP3    H138083   0.095   3.282  14.392  0.1859  0.1775 -1.1963
 5556TIP3    H238084   0.004   3.190  14.314  0.0994 -0.1786 -0.6816
 5557TIP3   OH238085   5.460   3.962   0.294  0.0338  0.1549 -0.4664
 5557TIP3    H138086   5.533   4.007   0.336 -1.0764 -0.6362  2.3851
 5557TIP3    H238087   5.390   4.026   0.292  0.5036  0.6612 -2.5167
 5558TIP3   OH238088   3.217   2.066   1.358 -0.0296 -0.1786  0.4955
 5558TIP3    H138089   3.229   2.125   1.433 -2.0535  0.8411  0.0695
 5558TIP3    H238090   3.201   2.125   1.284 -0.3543 -1.2308 -0.2790
 5559TIP3   OH238091   5.611   2.253   2.676  0.4804  0.0203  0.4620
 5559TIP3    H138092   5.586   2.218   2.761  1.1018 -2.6060 -0.3795
 5559TIP3    H238093   5.545   2.218   2.615  1.0752  0.3665 -0.3913
 5560TIP3   OH238094   1.372   6.539  12.764 -0.2120 -0.4401 -0.0363
 5560TIP3    H138095   1.410   6.471  12.708 -0.8202 -0.2149 -0.7359
 5560TIP3    H238096   1.298   6.573  12.713 -0.7241 -0.1797  0.8730
 5561TIP3   OH238097   6.154   5.841  13.885  0.2925  0.8322  0.0600
 5561TIP3    H138098   6.093   5.776  13.851  1.1073  0.2539 -0.3142
 5561TIP3    H238099   6.137   5.843  13.980 -1.0686  1.4910 -0.1849
 5562TIP3   OH238100   5.974   0.562  14.752 -0.0719  0.0255 -0.5162
 5562TIP3    H138101   5.908   0.523  14.695  0.3166  0.8473 -1.5502
 5562TIP3    H238102   6.009   0.635  14.701  0.8011  0.3221  0.4939
 5563TIP3   OH238103   6.645   2.593  15.146 -0.8441 -0.3162  0.3592
 5563TIP3    H138104   6.617   2.567  15.058 -1.0252  1.9160 -0.2890
 5563TIP3    H238105   6.569   2.640  15.181 -0.3063 -0.0571  1.1824
 5564TIP3   OH238106   2.055   1.411  16.435  0.3564  0.2155  0.4896
 5564TIP3    H138107   2.109   1.420  16.357 -0.3754  1.3840  0.1020
 5564TIP3    H238108   2.008   1.329  16.423 -0.7263  1.0193 -0.9385
 5565TIP3   OH238109   1.382   1.497   4.751  0.3965  0.2338 -0.2858
 5565TIP3    H138110   1.402   1.505   4.845  3.2212 -0.3649 -0.7859
 5565TIP3    H238111   1.393   1.586   4.717  1.1959  0.1140 -0.3558
 5566TIP3   OH238112   1.958   1.247   0.553 -0.5291 -0.4245 -0.4213
 5566TIP3    H138113   1.874   1.259   0.508  0.1665  0.6707 -1.4329
 5566TIP3    H238114   1.957   1.155   0.580 -1.7360 -0.6112 -1.0701
 5567TIP3   OH238115   6.602   2.637  16.616 -0.3164  0.2952  0.0855
 5567TIP3    H138116   6.628   2.575  16.685  0.2911  1.0406  0.5356
 5567TIP3    H238117   6.638   2.721  16.645  0.9369  0.4062 -1.6878
 5568TIP3   OH238118   2.718   5.287  15.715  0.6912 -0.1708 -0.0400
 5568TIP3    H138119   2.666   5.319  15.789  0.5597 -0.1027 -0.1612
 5568TIP3    H238120   2.693   5.342  15.642  1.7299  0.5561  0.1484
 5569TIP3   OH238121   0.537   0.058  15.041  0.4433  0.3660  0.7310
 5569TIP3    H138122   0.575   0.098  14.962  0.7269 -1.3005  0.0084
 5569TIP3    H238123   0.583  -0.025  15.051 -2.3699 -1.3011  0.3202
 5570TIP3   OH238124   2.916   0.486   3.646 -0.0188 -0.0352 -0.8363
 5570TIP3    H138125   2.949   0.485   3.735 -0.4083 -1.0785 -0.6868
 5570TIP3    H238126   2.952   0.565   3.607 -1.7634  1.7041  0.9665
 5571TIP3   OH238127   3.830   4.511   3.650  0.1106  0.5270 -0.4914
 5571TIP3    H138128   3.863   4.592   3.689  0.5938  0.5372 -0.9063
 5571TIP3    H238129   3.741   4.503   3.682  0.1078  1.1502 -0.3305
 5572TIP3   OH238130   1.269   6.566  11.699 -0.5057 -0.0612  0.1850
 5572TIP3    H138131   1.225   6.650  11.710 -0.7267 -0.3847  1.9077
 5572TIP3    H238132   1.308   6.571  11.612 -0.0699  2.0389  0.4724
 5573TIP3   OH238133   2.111   0.292  14.030  0.1302 -0.6636  0.2971
 5573TIP3    H138134   2.089   0.384  14.049  2.3594  0.0983 -0.6079
 5573TIP3    H238135   2.160   0.264  14.107  2.0486 -0.1266 -0.6893
 5574TIP3   OH238136   1.586   5.591  11.093  0.6193 -0.0809  0.0337
 5574TIP3    H138137   1.621   5.512  11.052  1.0611 -0.2827  0.7947
 5574TIP3    H238138   1.626   5.593  11.180  1.3918  1.4894 -0.3240
 5575TIP3   OH238139   4.062   1.118  14.407  0.3247  0.1522 -0.3304
 5575TIP3    H138140   3.982   1.166  14.390 -1.1929 -2.2934 -0.3402
 5575TIP3    H238141   4.072   1.060  14.332  1.5710 -0.2651  0.1351
 5576TIP3   OH238142   3.106   1.413   1.593  0.4624 -0.3600  0.1462
 5576TIP3    H138143   3.113   1.508   1.590  0.5002 -0.4051 -1.9211
 5576TIP3    H238144   3.056   1.395   1.673 -2.0677  1.5396 -0.9375
 5577TIP3   OH238145   3.896   2.274  12.420 -0.3242  0.2782  0.1125
 5577TIP3    H138146   3.859   2.265  12.332  0.6702 -0.3218 -0.2541
 5577TIP3    H238147   3.884   2.187  12.459 -1.9361  0.8995  1.0451
 5578TIP3   OH238148   0.591   4.639   3.811  0.0170 -0.4038 -0.1398
 5578TIP3    H138149   0.524   4.593   3.759  1.4449 -0.7111 -1.7643
 5578TIP3    H238150   0.546   4.716   3.845 -1.4842 -1.2271 -0.2348
 5579TIP3   OH238151   6.485   4.484  16.079  0.8868 -0.2005 -0.4798
 5579TIP3    H138152   6.576   4.453  16.087  0.4880 -1.1745  0.5235
 5579TIP3    H238153   6.437   4.407  16.049  0.0687 -0.2438  0.8994
 5580TIP3   OH238154   4.780   6.338  13.750  0.7204  0.1946 -0.0124
 5580TIP3    H138155   4.844   6.339  13.821  2.0995 -1.4604 -1.1719
 5580TIP3    H238156   4.814   6.273  13.689 -0.0490  2.0978 -2.5424
 5581TIP3   OH238157   0.746   5.434   3.201  0.1014 -0.0467 -0.4220
 5581TIP3    H138158   0.821   5.430   3.260  0.1653  0.9408 -0.4347
 5581TIP3    H238159   0.673   5.462   3.255 -0.2655 -1.0163 -0.4089
 5582TIP3   OH238160   1.955   2.393  10.444 -0.8319  0.0619  0.4338
 5582TIP3    H138161   2.005   2.335  10.502  1.7615  1.0411 -0.7223
 5582TIP3    H238162   1.949   2.345  10.361  0.3819  0.9206 -0.1869
 5583TIP3   OH238163   1.841   4.205   4.492  0.5090  0.1116  0.7301
 5583TIP3    H138164   1.772   4.252   4.538  0.4640  0.3202  0.4486
 5583TIP3    H238165   1.796   4.136   4.443  0.3961  0.8475 -0.2185
 5584TIP3   OH238166   2.432   0.497  16.428  0.1313 -0.0325  0.1708
 5584TIP3    H138167   2.521   0.472  16.452  0.2859  0.6780  0.3676
 5584TIP3    H238168   2.380   0.418  16.440  0.3627  0.0825  2.0579
 5585TIP3   OH238169   4.406   5.367   1.653  0.2045 -0.5983  0.4727
 5585TIP3    H138170   4.345   5.352   1.581  1.1914 -0.8370 -0.3302
 5585TIP3    H238171   4.387   5.456   1.682 -0.7811 -0.8090  0.4743
 5586TIP3   OH238172   2.635   3.620  10.792 -0.0655 -0.1862  0.0257
 5586TIP3    H138173   2.702   3.553  10.779  0.9811  0.9556 -0.4991
 5586TIP3    H238174   2.661   3.665  10.872 -0.9957 -0.6596  0.6052
 5587TIP3   OH238175   2.878   2.772  14.613  0.0741 -0.7938  0.4689
 5587TIP3    H138176   2.909   2.687  14.644  1.1332 -0.5846  0.0297
 5587TIP3    H238177   2.932   2.790  14.536  0.0516  0.3961  0.7131
 5588TIP3   OH238178   5.845   0.044   3.897  0.3091 -0.0522  0.0811
 5588TIP3    H138179   5.880   0.012   3.814  1.8336  0.2161  0.6053
 5588TIP3    H238180   5.858   0.139   3.893  1.9749 -0.1906  1.3131
 5589TIP3   OH238181   5.770   4.165  16.699  0.6654 -0.2622 -0.0236
 5589TIP3    H138182   5.728   4.103  16.758 -0.4295 -0.1184 -0.6330
 5589TIP3    H238183   5.833   4.211  16.754 -1.1079  0.6455  1.3265
 5590TIP3   OH238184   6.311   1.649  15.002 -0.3810 -0.4735 -0.2401
 5590TIP3    H138185   6.401   1.679  14.987 -0.2852 -0.0370  1.1614
 5590TIP3    H238186   6.264   1.727  15.032 -0.7494 -1.1266  0.9210
 5591TIP3   OH238187   0.379   4.401  12.601 -0.0481  0.6346  0.6530
 5591TIP3    H138188   0.295   4.361  12.625 -0.2733  0.6169 -0.1629
 5591TIP3    H238189   0.391   4.378  12.509 -0.0548  2.2687  0.2474
 5592TIP3   OH238190   5.476   5.446  12.652 -0.3108 -0.0393 -0.0374
 5592TIP3    H138191   5.383   5.462  12.634 -0.1476  0.9065 -0.0521
 5592TIP3    H238192   5.494   5.361  12.612 -0.6631  0.7079 -1.8062
 5593TIP3   OH238193   2.094   3.006  13.387 -0.0740  0.6363  0.1907
 5593TIP3    H138194   2.034   3.077  13.407 -0.9223 -0.0770  0.1682
 5593TIP3    H238195   2.167   3.049  13.341 -0.9614  1.3733 -0.5391
 5594TIP3   OH238196   5.158   5.658   4.694 -0.0683  0.5174  0.6090
 5594TIP3    H138197   5.181   5.702   4.612 -3.1355  0.7765 -0.1621
 5594TIP3    H238198   5.214   5.580   4.695  0.9085  1.1610 -1.1092
 5595TIP3   OH238199   4.513   1.261  11.787 -0.0723 -0.8127  0.6005
 5595TIP3    H138200   4.551   1.274  11.700  1.2008 -1.0960  1.1045
 5595TIP3    H238201   4.418   1.259  11.772  0.1002  0.0750 -0.6458
 5596TIP3   OH238202   6.564   6.120   3.143 -0.0399 -0.0006 -0.5541
 5596TIP3    H138203   6.481   6.168   3.144 -0.0915 -0.0865  0.5136
 5596TIP3    H238204   6.551   6.051   3.078 -0.7152  0.1528 -0.5904
 5597TIP3   OH238205   6.342   3.420   2.965 -0.3354 -0.4577 -0.4054
 5597TIP3    H138206   6.340   3.475   2.886  1.6260  1.1393  0.6161
 5597TIP3    H238207   6.425   3.372   2.958 -1.2817 -2.1149 -0.4781
 5598TIP3   OH238208   5.046   2.354  12.501  0.3017  0.6500 -0.2755
 5598TIP3    H138209   4.952   2.354  12.484  0.2134  1.9437  0.1328
 5598TIP3    H238210   5.081   2.420  12.441  0.7041  1.4139  0.7718
 5599TIP3   OH238211   4.772   4.797  11.075 -0.2843  0.5225 -0.2544
 5599TIP3    H138212   4.824   4.877  11.076 -0.6708  0.7803  1.6864
 5599TIP3    H238213   4.683   4.826  11.095 -0.2019 -0.4989  1.7522
 5600TIP3   OH238214   1.580   1.300  11.147  0.1639 -0.2065  0.6357
 5600TIP3    H138215   1.621   1.318  11.231  4.2762 -0.5453 -1.2036
 5600TIP3    H238216   1.540   1.213  11.158 -0.0685  0.1205  2.4783
 5601TIP3   OH238217   5.036   0.871  15.965  0.5889 -0.0596 -0.1925
 5601TIP3    H138218   5.011   0.839  15.878  1.9587 -3.1898  0.5216
 5601TIP3    H238219   5.000   0.807  16.025 -1.3185  2.6687  1.7061
 5602TIP3   OH238220   5.752   3.703   5.173 -0.3104  0.0288  0.1242
 5602TIP3    H138221   5.716   3.693   5.085  1.1395 -0.6878 -0.4147
 5602TIP3    H238222   5.699   3.645   5.228 -1.2210  0.4759 -0.2719
 5603TIP3   OH238223   3.954   4.341   5.875 -0.7746 -0.4653  0.5356
 5603TIP3    H138224   3.886   4.313   5.814 -0.3708 -1.9107  0.7411
 5603TIP3    H238225   3.927   4.306   5.959  1.4179 -3.1056  0.1988
 5604TIP3   OH238226   3.833   5.449   4.467  0.8829  0.6478 -0.5789
 5604TIP3    H138227   3.830   5.533   4.420 -1.3769  0.5915 -0.6278
 5604TIP3    H238228   3.810   5.384   4.401  0.9720  0.1863 -0.1563
 5605TIP3   OH238229   6.043   6.116  15.910  0.7132 -0.1783  0.2158
 5605TIP3    H138230   6.054   6.199  15.957 -1.5409  1.1030 -1.3935
 5605TIP3    H238231   6.114   6.114  15.846 -0.8725  1.9300 -1.6712
 5606TIP3   OH238232   1.009   4.815  13.893  0.5700 -0.4395  0.9230
 5606TIP3    H138233   0.954   4.872  13.947  0.7489 -1.3321  2.0809
 5606TIP3    H238234   1.098   4.842  13.914  0.6897 -1.8523  2.2998
 5607TIP3   OH238235   5.996   2.274  16.230 -0.7892  0.0636 -0.8574
 5607TIP3    H138236   5.911   2.237  16.207 -0.2360 -0.3442 -2.2385
 5607TIP3    H238237   6.013   2.340  16.163 -0.5148  0.9438  0.0501
 5608TIP3   OH238238   5.913   1.671  16.042 -0.1480 -0.1724  0.2240
 5608TIP3    H138239   5.860   1.632  15.973 -1.1165  0.1846  0.7395
 5608TIP3    H238240   5.877   1.759  16.053 -0.1520 -0.2894  1.2992
 5609TIP3   OH238241   1.707   6.783   1.376  0.4230  0.3928 -0.2495
 5609TIP3    H138242   1.618   6.748   1.371  0.1169  1.2547 -1.1165
 5609TIP3    H238243   1.733   6.771   1.467 -1.1507  1.5102  0.3782
 5610TIP3   OH238244   4.375   6.645  15.553 -0.0463 -0.2231  0.4379
 5610TIP3    H138245   4.293   6.605  15.525  0.1535 -1.4109  1.5677
 5610TIP3    H238246   4.363   6.663  15.646  1.2122 -0.9942  0.7566
 5611TIP3   OH238247   1.635   4.566  16.098  0.3509  0.8387 -0.2303
 5611TIP3    H138248   1.663   4.570  16.189  0.2503 -0.6249 -0.1352
 5611TIP3    H238249   1.543   4.541  16.101  0.7436 -0.6978 -0.7833
 5612TIP3   OH238250   2.843   3.221  15.486 -0.3931  0.4384 -0.2751
 5612TIP3    H138251   2.800   3.247  15.567 -1.3381 -0.0485 -0.6142
 5612TIP3    H238252   2.819   3.290  15.423 -1.1846 -0.1403 -0.6207
 5613TIP3   OH238253   2.215   1.197  11.806 -0.2536  0.4792 -0.2721
 5613TIP3    H138254   2.213   1.289  11.829  0.4233 -0.0655  2.0492
 5613TIP3    H238255   2.124   1.167  11.819 -0.2039  0.5239  0.1586
 5614TIP3   OH238256   3.696   5.380  15.734 -0.4458  0.2725  0.3757
 5614TIP3    H138257   3.780   5.424  15.726 -0.2386 -0.4360 -1.6881
 5614TIP3    H238258   3.636   5.448  15.765  0.2135  1.5968 -1.2020
 5615TIP3   OH238259   4.457   6.221  12.515 -0.3816  0.3541 -0.6812
 5615TIP3    H138260   4.510   6.147  12.544 -2.2285  0.4309  3.2456
 5615TIP3    H238261   4.504   6.298  12.546 -1.8651  0.4848  1.3538
 5616TIP3   OH238262   6.203   3.836  13.532  0.3668  0.7946 -0.1767
 5616TIP3    H138263   6.211   3.931  13.543 -2.4158  1.1957 -1.2812
 5616TIP3    H238264   6.196   3.823  13.438  1.3162 -0.5842 -0.0740
 5617TIP3   OH238265   4.329   5.462   0.101  0.1773 -0.1890 -0.4905
 5617TIP3    H138266   4.274   5.531   0.064  1.3447  1.9112  1.5815
 5617TIP3    H238267   4.393   5.442   0.032  0.2223  1.2328 -0.8687
 5618TIP3   OH238268   1.977   4.908  13.220  0.8162  0.1325  0.1821
 5618TIP3    H138269   1.912   4.894  13.289  0.8985 -0.7740  0.0828
 5618TIP3    H238270   2.047   4.956  13.264  1.1531 -0.9865  0.9128
 5619TIP3   OH238271   4.051   0.499  15.825 -0.0584  0.0889  0.4506
 5619TIP3    H138272   4.081   0.590  15.831  0.9698 -0.1570 -0.8538
 5619TIP3    H238273   3.990   0.499  15.751  2.1437 -0.8610 -1.4030
 5620TIP3   OH238274   5.393   0.672  14.762 -0.2700 -0.2374  0.0989
 5620TIP3    H138275   5.377   0.622  14.842  0.3343  0.0775  0.4227
 5620TIP3    H238276   5.427   0.756  14.793  1.2934 -0.6234 -0.5364
 5621TIP3   OH238277   3.856   2.889   2.275 -0.3365 -0.1467  0.9578
 5621TIP3    H138278   3.852   2.795   2.294  0.5272 -0.0159  1.7922
 5621TIP3    H238279   3.764   2.914   2.261 -0.4402 -1.4327 -0.8945
 5622TIP3   OH238280   2.185   1.597  11.630  0.6322 -0.2082  0.2103
 5622TIP3    H138281   2.240   1.566  11.702  0.6517 -1.5043 -0.3371
 5622TIP3    H238282   2.169   1.689  11.649  0.5130 -0.5746  1.9458
 5623TIP3   OH238283   6.508   5.565   4.075 -0.6682  0.1951 -0.1606
 5623TIP3    H138284   6.490   5.609   4.158  0.5834  2.6878 -1.1563
 5623TIP3    H238285   6.536   5.477   4.100 -0.6084  0.8175  2.0436
 5624TIP3   OH238286   6.476   3.444   2.707 -0.8381  0.0256  0.7826
 5624TIP3    H138287   6.402   3.497   2.676 -0.2818  0.2230 -0.2509
 5624TIP3    H238288   6.497   3.388   2.633 -0.4645 -0.5947  1.3580
 5625TIP3   OH238289   5.067   0.304  12.382 -0.0177  0.5276 -0.4791
 5625TIP3    H138290   5.052   0.232  12.444  0.7553  1.3098  0.6281
 5625TIP3    H238291   5.130   0.361  12.426  1.7942  0.2656 -2.6714
 5626TIP3   OH238292   6.294   4.361   5.942  0.5588 -0.2439  0.0270
 5626TIP3    H138293   6.366   4.333   5.997  0.3014 -2.8675 -0.9056
 5626TIP3    H238294   6.294   4.456   5.949  1.0451 -0.4593  3.8598
 5627TIP3   OH238295   0.672   6.498   4.806 -0.2849  0.1881 -0.2746
 5627TIP3    H138296   0.614   6.423   4.793  1.1299 -1.0969  0.7026
 5627TIP3    H238297   0.759   6.460   4.818  0.7252  2.0776 -1.4243
 5628TIP3   OH238298   3.501   2.961  11.846 -0.1509 -0.4865  0.6080
 5628TIP3    H138299   3.544   2.930  11.926  0.1818 -1.4014  0.0791
 5628TIP3    H238300   3.562   2.937  11.776 -1.4040 -1.5389 -0.1235
 5629TIP3   OH238301   1.987   5.279   0.353  0.2164 -0.4097  0.2754
 5629TIP3    H138302   1.935   5.347   0.396  2.2121  1.5107 -0.2456
 5629TIP3    H238303   2.056   5.258   0.416  0.5276 -0.8518 -0.2078
 5630TIP3   OH238304   3.462   5.992  14.445  0.2777  0.3733  0.3178
 5630TIP3    H138305   3.428   5.906  14.422  0.6660 -0.0551  1.3614
 5630TIP3    H238306   3.383   6.044  14.465  0.1952 -0.5366  2.4422
 5631TIP3   OH238307   3.857   4.365  12.442 -0.0612  0.3916 -0.0510
 5631TIP3    H138308   3.887   4.375  12.351 -0.9326  0.0415 -0.3809
 5631TIP3    H238309   3.828   4.453  12.467  1.1721  0.7288  0.2593
 5632TIP3   OH238310   3.445   1.388  11.598 -0.0891  0.1538  0.2616
 5632TIP3    H138311   3.503   1.358  11.528 -0.0015  0.0821  0.3657
 5632TIP3    H238312   3.357   1.372  11.564 -0.0516  0.4999 -0.0018
 5633TIP3   OH238313   4.702   5.393   1.861  0.1046  0.4716 -0.2579
 5633TIP3    H138314   4.713   5.432   1.774  1.3115 -0.1788 -0.4087
 5633TIP3    H238315   4.702   5.298   1.845  0.1443  0.3533  0.4281
 5634TIP3   OH238316   6.719   5.784   2.422 -0.6583 -0.2100 -0.2756
 5634TIP3    H138317   6.675   5.844   2.362 -1.3986  0.2607  0.7312
 5634TIP3    H238318   6.652   5.720   2.445  0.2304 -1.6673 -1.6384
 5635TIP3   OH238319   4.729   3.014  14.494 -0.3568  0.0064 -0.0252
 5635TIP3    H138320   4.719   3.050  14.582 -0.6912 -0.1632  0.0052
 5635TIP3    H238321   4.799   2.950  14.502 -0.0183  0.3757  0.0024
 5636TIP3   OH238322   4.999   3.600   0.883 -0.3856  0.0017  0.0907
 5636TIP3    H138323   4.981   3.678   0.937  0.0959 -0.1707  0.5116
 5636TIP3    H238324   5.093   3.605   0.867 -0.4418 -0.2375 -0.2917
 5637TIP3   OH238325   1.432   1.928  12.586  0.3138 -0.0873  0.7012
 5637TIP3    H138326   1.481   1.855  12.625  0.2465 -0.1168  0.7290
 5637TIP3    H238327   1.354   1.937  12.641 -0.2992 -0.8049 -0.0464
 5638TIP3   OH238328   4.192   2.491   1.969  0.1128 -0.4693 -0.7127
 5638TIP3    H138329   4.098   2.470   1.967  0.2737 -1.4615  1.0389
 5638TIP3    H238330   4.207   2.541   1.889 -2.6403  2.6529  0.5686
 5639TIP3   OH238331   0.474   4.790  14.359 -0.5735 -0.1911 -0.3682
 5639TIP3    H138332   0.443   4.878  14.338  0.0241 -0.0328 -0.6053
 5639TIP3    H238333   0.553   4.805  14.411  0.3367 -0.5853 -1.6183
 5640TIP3   OH238334   4.057   0.342  17.022  0.1298 -0.1127  0.0424
 5640TIP3    H138335   3.980   0.327  16.967  1.4476 -3.0712 -1.0960
 5640TIP3    H238336   4.045   0.284  17.097  1.5269 -1.0275 -0.4284
 5641TIP3   OH238337   4.669   3.751   0.596 -0.3268  0.7943 -0.0694
 5641TIP3    H138338   4.625   3.705   0.668 -1.4497  0.5615 -0.8903
 5641TIP3    H238339   4.757   3.769   0.629  0.1035 -1.8610  0.2999
 5642TIP3   OH238340   0.214   2.862  10.345 -0.1887 -0.1421 -0.1193
 5642TIP3    H138341   0.151   2.903  10.404  0.7846 -0.1238  0.9190
 5642TIP3    H238342   0.298   2.905  10.365  0.2692 -0.5752 -1.0682
 5643TIP3   OH238343   2.356   5.406   2.433 -0.3177 -0.1864  0.4853
 5643TIP3    H138344   2.448   5.409   2.407 -0.4810 -1.6417 -0.2877
 5643TIP3    H238345   2.350   5.331   2.492 -1.1445 -0.5006  0.0031
 5644TIP3   OH238346   2.054   3.681   4.368  0.3532 -0.0299  0.2857
 5644TIP3    H138347   2.035   3.636   4.451  0.3064  2.5877  1.7326
 5644TIP3    H238348   2.148   3.699   4.372  0.4676 -0.4266 -0.5239
 5645TIP3   OH238349   0.228   3.589   0.273  0.2288 -0.0636  0.3860
 5645TIP3    H138350   0.281   3.539   0.334  0.0547  0.2873  0.8273
 5645TIP3    H238351   0.212   3.528   0.200 -0.0027 -0.6614  0.9265
 5646TIP3   OH238352   6.268   1.313   2.748 -0.3822 -0.0382  0.3700
 5646TIP3    H138353   6.298   1.369   2.819  0.7792 -0.1695  0.0071
 5646TIP3    H238354   6.208   1.368   2.698 -0.9060  0.1774  1.2279
 5647TIP3   OH238355   3.570   5.251   4.126 -0.1920 -0.2899 -0.6358
 5647TIP3    H138356   3.570   5.193   4.050  0.2117  1.4955 -2.0493
 5647TIP3    H238357   3.478   5.256   4.152 -0.5166  0.1368 -1.8444
 5648TIP3   OH238358   5.186   3.111   2.639  0.2040 -0.6733 -0.1435
 5648TIP3    H138359   5.141   3.032   2.668 -0.3008 -0.6547 -0.8595
 5648TIP3    H238360   5.231   3.143   2.717  0.2080 -1.5251  0.2145
 5649TIP3   OH238361   0.508   6.489   3.860  0.0647 -0.1047  0.4453
 5649TIP3    H138362   0.555   6.573   3.858  1.6629 -0.9917 -1.6761
 5649TIP3    H238363   0.568   6.430   3.906  0.7554 -1.0614 -1.6336
 5650TIP3   OH238364   4.218   3.367   4.366  0.4184 -0.5081  0.3050
 5650TIP3    H138365   4.223   3.302   4.297  1.5254 -0.0913 -0.0114
 5650TIP3    H238366   4.260   3.326   4.442  1.4421 -0.0430  0.0014
 5651TIP3   OH238367   1.544   6.656   4.794 -0.3368 -0.0831 -0.2436
 5651TIP3    H138368   1.585   6.582   4.749  0.2453  0.2584 -0.2754
 5651TIP3    H238369   1.450   6.640   4.785 -0.2163 -0.8216 -0.2482
 5652TIP3   OH238370   6.628   0.536   3.363 -0.2701  0.1629 -0.3176
 5652TIP3    H138371   6.713   0.580   3.358  0.6708 -1.7408 -1.3925
 5652TIP3    H238372   6.643   0.461   3.420 -1.3711  0.0919 -0.1111
 5653TIP3   OH238373   2.574   4.376  11.979  0.7720  0.1895  0.0640
 5653TIP3    H138374   2.505   4.414  12.032  0.8415  1.2772 -0.6224
 5653TIP3    H238375   2.598   4.444  11.916  1.9764 -0.4218 -0.1659
 5654TIP3   OH238376   4.020   3.284   3.634 -0.2299  0.2428 -0.0426
 5654TIP3    H138377   4.061   3.350   3.689  0.0780  0.4265 -0.4908
 5654TIP3    H238378   4.044   3.201   3.673 -0.5595  0.3958  0.4849
 5655TIP3   OH238379   0.763   1.979   5.132 -0.4602  0.0944  0.5777
 5655TIP3    H138380   0.737   2.006   5.045 -0.2548  2.8393  1.3238
 5655TIP3    H238381   0.856   2.002   5.138 -0.3282 -0.5951  1.3164
 5656TIP3   OH238382   3.246   0.251  14.708  0.3514  0.2235 -0.1684
 5656TIP3    H138383   3.218   0.194  14.636  0.7951 -0.0209 -0.1531
 5656TIP3    H238384   3.319   0.301  14.671  1.4648 -0.8821  0.5365
 5657TIP3   OH238385   2.345   2.829   3.846  0.1718  0.4458  0.0818
 5657TIP3    H138386   2.303   2.887   3.782  1.6108  1.6799  0.2156
 5657TIP3    H238387   2.355   2.882   3.924 -1.0294 -0.8781  1.1658
 5658TIP3   OH238388   1.172   6.169  13.281 -0.0447  0.6031 -0.0127
 5658TIP3    H138389   1.178   6.100  13.215 -2.1184 -0.1374  0.5138
 5658TIP3    H238390   1.216   6.133  13.358 -2.0079 -0.5827  0.5892
 5659TIP3   OH238391   6.300   2.058   1.870  0.7258  0.7041 -0.1177
 5659TIP3    H138392   6.227   2.002   1.841  0.8986 -0.0139  0.7723
 5659TIP3    H238393   6.270   2.147   1.854 -0.1106  0.3937 -0.3150
 5660TIP3   OH238394   5.813   4.387   0.002 -0.3027 -0.5799  0.1477
 5660TIP3    H138395   5.749   4.378  -0.069  0.5890 -1.4374 -0.5549
 5660TIP3    H238396   5.765   4.430   0.072 -1.4331 -0.4905 -0.6730
 5661TIP3   OH238397   1.357   2.076   1.651  0.0650  0.5731 -0.8187
 5661TIP3    H138398   1.431   2.034   1.607 -0.5024 -0.0718 -1.1564
 5661TIP3    H238399   1.394   2.112   1.731  0.5808 -0.4677 -0.5813
 5662TIP3   OH238400   2.875   4.569  17.193  0.2074 -0.0764  0.6457
 5662TIP3    H138401   2.937   4.631  17.231 -1.4801  1.6755  0.6139
 5662TIP3    H238402   2.792   4.617  17.188 -0.0279 -0.6646 -3.8643
 5663TIP3   OH238403   4.260   5.862   0.171 -0.1378 -0.7031  0.2914
 5663TIP3    H138404   4.251   5.885   0.079 -1.5168 -3.0841 -0.1879
 5663TIP3    H238405   4.172   5.871   0.207  0.3258 -0.1441  1.3272
 5664TIP3   OH238406   0.928   3.531   1.868  0.2051 -0.1397  0.3139
 5664TIP3    H138407   0.890   3.444   1.860 -1.4052  0.5961 -0.1916
 5664TIP3    H238408   0.992   3.536   1.798 -0.0026 -0.7586  0.0806
 5665TIP3   OH238409   0.020   0.620   3.683 -0.2806  0.9891  0.1909
 5665TIP3    H138410   0.003   0.558   3.754 -1.3685  0.8237 -0.2201
 5665TIP3    H238411  -0.027   0.699   3.708 -1.3253  0.6635 -0.7460
 5666TIP3   OH238412   4.391   1.392  11.346 -0.2021 -0.1923 -0.1393
 5666TIP3    H138413   4.331   1.341  11.292 -1.5357  1.5316 -0.3096
 5666TIP3    H238414   4.399   1.476  11.301  2.9995 -0.6343 -0.5704
 5667TIP3   OH238415   0.582   2.875   0.033  0.1069 -0.3520 -0.1882
 5667TIP3    H138416   0.637   2.943   0.070  0.3595 -0.4164 -0.4439
 5667TIP3    H238417   0.638   2.830  -0.030 -0.7454  0.6842 -1.7207
 5668TIP3   OH238418   3.299   0.836   4.155  0.2226  0.3979 -0.4296
 5668TIP3    H138419   3.317   0.783   4.078 -1.5561 -0.5745 -0.2188
 5668TIP3    H238420   3.285   0.773   4.226  3.0316  1.3079  0.9966
 5669TIP3   OH238421   5.433   3.100  12.865 -0.2832 -0.3994  0.0516
 5669TIP3    H138422   5.447   3.164  12.796 -1.8175  1.6593  1.5788
 5669TIP3    H238423   5.348   3.061  12.846 -1.2773  1.0627  1.4389
 5670TIP3   OH238424   4.150   2.779  14.630 -0.1665 -0.1942 -0.0326
 5670TIP3    H138425   4.105   2.778  14.715 -2.3193  0.4874 -1.1155
 5670TIP3    H238426   4.203   2.858  14.632 -1.1389  0.4634  0.2461
 5671TIP3   OH238427   5.032   2.244  14.910  0.0233  0.3361 -0.0237
 5671TIP3    H138428   5.057   2.157  14.941  2.6851  0.8274 -0.6796
 5671TIP3    H238429   5.083   2.304  14.965 -0.3763  1.4198 -0.8231
 5672TIP3   OH238430   0.977   2.639   6.775  0.4765  0.4009  0.2700
 5672TIP3    H138431   1.011   2.668   6.691 -1.2776  0.7483 -0.3524
 5672TIP3    H238432   0.996   2.710   6.835 -0.1880  1.1026 -0.3370
 5673TIP3   OH238433   3.965   0.685  13.849 -0.0284  0.1802  0.3585
 5673TIP3    H138434   3.918   0.621  13.904 -1.6563  1.9773  1.1342
 5673TIP3    H238435   3.898   0.717  13.789  0.1948  2.7273  1.4272
 5674TIP3   OH238436   2.320   1.129   3.998  0.0548  0.6796 -0.3911
 5674TIP3    H138437   2.373   1.131   4.078 -0.6531  0.1115  0.0983
 5674TIP3    H238438   2.373   1.174   3.933  0.8922  0.6219  0.2470
 5675TIP3   OH238439   5.220   4.282   3.665 -0.0346  0.1304  0.5861
 5675TIP3    H138440   5.213   4.368   3.624  0.7031  1.0137  2.3102
 5675TIP3    H238441   5.206   4.220   3.592 -0.9150  1.6807 -0.5909
 5676TIP3   OH238442   2.618   2.969   1.248  0.1879  0.5607  0.1448
 5676TIP3    H138443   2.558   3.021   1.303 -0.2712  0.6695 -0.4552
 5676TIP3    H238444   2.607   3.005   1.160 -0.2559 -0.6624 -0.3029
 5677TIP3   OH238445   6.769   5.715  12.887 -0.4468  0.2700  0.1621
 5677TIP3    H138446   6.826   5.671  12.949  1.0044 -0.2231 -1.4815
 5677TIP3    H238447   6.823   5.785  12.849 -1.1544  0.2798 -0.8629
 5678TIP3   OH238448   2.280   4.399   1.141  0.7396 -0.6577 -0.2737
 5678TIP3    H138449   2.328   4.318   1.120  2.1683  0.0933  0.0078
 5678TIP3    H238450   2.267   4.395   1.236 -0.9210 -1.4668 -0.5136
 5679TIP3   OH238451   1.159   0.032  11.708 -0.3728  0.0916 -0.0850
 5679TIP3    H138452   1.187   0.106  11.762 -1.7163  0.5587 -0.0069
 5679TIP3    H238453   1.095   0.070  11.647 -1.3866 -1.0878  0.2286
 5680TIP3   OH238454   3.610   6.770  12.336  0.0700 -0.0112  0.4763
 5680TIP3    H138455   3.613   6.840  12.401  4.1542 -2.3321  3.0337
 5680TIP3    H238456   3.535   6.716  12.363  0.0941  0.5323  1.6699
 5681TIP3   OH238457   6.390   6.474  14.970 -0.2076  0.2006  0.3367
 5681TIP3    H138458   6.456   6.414  15.004 -1.0038 -0.4471  0.7650
 5681TIP3    H238459   6.306   6.437  15.000 -0.9515 -0.5516 -2.5312
 5682TIP3   OH238460   5.800   1.623  13.106 -0.5345  0.1584 -0.1608
 5682TIP3    H138461   5.835   1.712  13.108  0.6939 -0.3303  0.8867
 5682TIP3    H238462   5.742   1.618  13.183 -2.9023  0.9273 -1.8188
 5683TIP3   OH238463   0.814   0.895   4.966  0.0975  0.2560  0.0415
 5683TIP3    H138464   0.867   0.936   5.035 -0.4880  1.4378 -0.2047
 5683TIP3    H238465   0.762   0.829   5.013  0.4090  0.3870  0.5821
 5684TIP3   OH238466   4.842   2.252  13.758  0.1011  0.3588  0.1607
 5684TIP3    H138467   4.797   2.315  13.814  0.2105  1.0362 -0.5071
 5684TIP3    H238468   4.876   2.304  13.685  0.9618 -0.3282  0.0582
 5685TIP3   OH238469   2.224   0.953  15.249 -0.0146 -0.6921  0.5784
 5685TIP3    H138470   2.278   1.017  15.203 -0.9087  0.7032  1.4553
 5685TIP3    H238471   2.252   0.958  15.340 -1.5436 -0.0504  1.0132
 5686TIP3   OH238472   6.401   2.682  15.204 -0.4372  0.2396 -0.0588
 5686TIP3    H138473   6.403   2.651  15.295  2.0155  1.4398  0.3243
 5686TIP3    H238474   6.322   2.642  15.168 -1.0485 -0.8848  2.3734
 5687TIP3   OH238475   1.736   3.300  13.629  0.5881  0.7862  0.1247
 5687TIP3    H138476   1.690   3.216  13.632 -0.4289  1.2900 -1.2070
 5687TIP3    H238477   1.697   3.352  13.699  0.9040  0.3238  0.6499
 5688TIP3   OH238478   4.243   4.504  16.335 -0.4810  0.4195 -0.2638
 5688TIP3    H138479   4.164   4.516  16.387  0.5120  0.3760  1.2913
 5688TIP3    H238480   4.218   4.531  16.247 -2.9105 -1.8806 -0.3463
 5689TIP3   OH238481   3.718   6.192  13.895  0.3926 -0.3273  0.1304
 5689TIP3    H138482   3.797   6.145  13.917  0.0005 -0.4681  1.2479
 5689TIP3    H238483   3.723   6.274  13.945  0.0245 -0.1581 -0.0992
 5690TIP3   OH238484   4.675   3.635   0.870  0.0378  0.1219  0.1488
 5690TIP3    H138485   4.629   3.554   0.893 -2.5029  0.8957 -1.8910
 5690TIP3    H238486   4.763   3.606   0.847 -0.6759 -2.0423 -0.0542
 5691TIP3   OH238487   5.178   6.144  14.093  0.4587 -0.6464  0.7852
 5691TIP3    H138488   5.247   6.148  14.159 -1.2119  1.7601  2.4453
 5691TIP3    H238489   5.104   6.104  14.138  0.3710 -2.1740 -0.6587
 5692TIP3   OH238490   4.536   4.661   4.708 -0.2423 -0.3529 -0.4593
 5692TIP3    H138491   4.527   4.586   4.650  2.2344  0.5904 -2.1510
 5692TIP3    H238492   4.503   4.735   4.657 -0.6158  0.0588  0.3720
 5693TIP3   OH238493   0.455   6.316   0.249  0.4414  0.0337 -0.1059
 5693TIP3    H138494   0.457   6.243   0.188  0.6830  0.4088 -0.5487
 5693TIP3    H238495   0.516   6.380   0.213  1.6806 -0.3387  1.2966
 5694TIP3   OH238496   5.343   3.737  11.226  0.0854  1.1882 -0.0392
 5694TIP3    H138497   5.280   3.665  11.228  0.9941  0.3983  1.6078
 5694TIP3    H238498   5.428   3.695  11.243  1.0002  2.3069 -1.7280
 5695TIP3   OH238499   0.701   0.362  14.556 -0.3971  0.2983 -0.4032
 5695TIP3    H138500   0.721   0.318  14.473  1.2378  0.0762  0.0957
 5695TIP3    H238501   0.710   0.455  14.536 -0.2774  0.2553 -0.5535
 5696TIP3   OH238502   4.127   6.782   0.588  0.1396  0.1990 -0.0040
 5696TIP3    H138503   4.204   6.735   0.556 -0.1154 -2.6272  3.3173
 5696TIP3    H238504   4.163   6.857   0.635  0.8169 -0.2522  0.2119
 5697TIP3   OH238505   0.133   3.920   4.803  0.5696 -0.0150  0.5356
 5697TIP3    H138506   0.102   3.884   4.720 -1.4848 -1.3716  1.8586
 5697TIP3    H238507   0.078   3.997   4.818 -0.6053 -1.0519  1.7071
 5698TIP3   OH238508   6.482   2.817  13.980 -0.2317  0.1142 -0.4509
 5698TIP3    H138509   6.515   2.903  14.008  0.6052  0.0579 -1.2495
 5698TIP3    H238510   6.430   2.837  13.902  0.0130 -0.1145 -0.6705
 5699TIP3   OH238511   3.111   1.225  12.449 -0.6159  0.1099  0.0236
 5699TIP3    H138512   3.196   1.235  12.406  0.2224  2.4109  2.0921
 5699TIP3    H238513   3.104   1.131  12.467  2.6866  0.1752  2.1139
 5700TIP3   OH238514   4.636   1.194  13.204  0.4825  0.0002  0.0871
 5700TIP3    H138515   4.579   1.231  13.137  1.1218 -1.4995 -1.3201
 5700TIP3    H238516   4.587   1.206  13.286 -0.4869  1.4775 -0.6806
 5701TIP3   OH238517   5.323   5.454   4.690  0.1588  0.0298 -0.0743
 5701TIP3    H138518   5.357   5.410   4.612 -2.6925 -2.5458  0.0366
 5701TIP3    H238519   5.386   5.433   4.759  1.4760  0.3643 -1.1701
 5702TIP3   OH238520   2.301   5.193  15.702 -0.4469  0.6938  0.2403
 5702TIP3    H138521   2.335   5.137  15.632  0.3932 -0.0266  1.2136
 5702TIP3    H238522   2.374   5.250  15.725 -1.8144  3.5034 -1.9851
 5703TIP3   OH238523   2.319   2.020   2.018  0.2280  0.5192 -0.0201
 5703TIP3    H138524   2.242   2.074   2.034 -0.6037 -0.9635  1.1204
 5703TIP3    H238525   2.300   1.975   1.935  0.3385  0.9461 -0.2807
 5704TIP3   OH238526   2.760   3.432  16.902  0.6607 -0.2688 -0.4422
 5704TIP3    H138527   2.747   3.472  16.989 -0.0399 -1.1974 -0.1139
 5704TIP3    H238528   2.789   3.505  16.847 -1.4131  0.8892 -0.0567
 5705TIP3   OH238529   0.203   0.810   0.063 -0.1018  0.4793  0.5932
 5705TIP3    H138530   0.226   0.901   0.042 -0.7610  0.4407 -0.3080
 5705TIP3    H238531   0.180   0.812   0.156 -0.9920  1.4146  0.3583
 5706TIP3   OH238532   0.739   5.808   0.816 -0.4638  0.1088 -0.9046
 5706TIP3    H138533   0.700   5.874   0.759  1.2834  2.3938  0.4378
 5706TIP3    H238534   0.740   5.849   0.903  1.0354 -1.5362 -0.1156
 5707TIP3   OH238535   1.437   2.778   3.162  0.2526 -0.1070 -0.3258
 5707TIP3    H138536   1.484   2.697   3.145 -0.8643 -1.1597  1.4889
 5707TIP3    H238537   1.354   2.768   3.115 -0.1749 -0.3073  0.4745
 5708TIP3   OH238538   4.120   5.564  15.126 -0.1148  0.3174 -0.0405
 5708TIP3    H138539   4.068   5.638  15.094  0.6060  1.1184  0.6249
 5708TIP3    H238540   4.207   5.600  15.140  0.1671 -0.5889  0.5892
 5709TIP3   OH238541   1.357   2.487   3.341 -0.0017  0.2424  0.6040
 5709TIP3    H138542   1.288   2.544   3.375 -0.5845  0.7486 -1.3902
 5709TIP3    H238543   1.375   2.426   3.413 -1.5424  0.9835  1.6444
 5710TIP3   OH238544   1.055   4.960   2.197 -0.5894  0.0994  0.2503
 5710TIP3    H138545   1.121   5.014   2.153 -2.2584 -0.3859 -3.0147
 5710TIP3    H238546   0.997   5.023   2.241 -0.9964  0.8298 -1.3159
 5711TIP3   OH238547   5.520   2.157  16.966 -0.1192 -0.2773  0.3430
 5711TIP3    H138548   5.542   2.111  16.885 -0.5911 -1.3827  0.8397
 5711TIP3    H238549   5.442   2.112  16.999 -2.3991  2.7264 -0.6828
 5712TIP3   OH238550   4.195   6.402  16.891  0.3523 -0.0012 -0.0216
 5712TIP3    H138551   4.140   6.336  16.933  0.7427 -0.6738 -0.5555
 5712TIP3    H238552   4.173   6.396  16.798  1.6081 -0.5494 -0.2912
 5713TIP3   OH238553   3.396   3.620  14.144 -0.2905  0.1533 -0.4982
 5713TIP3    H138554   3.476   3.589  14.186 -1.4315 -1.1029  0.7896
 5713TIP3    H238555   3.424   3.647  14.056  1.3748 -1.1700 -0.3975
 5714TIP3   OH238556   1.532   0.763   3.295  0.8016  0.3300 -0.1021
 5714TIP3    H138557   1.484   0.766   3.378  0.9106  0.3019 -0.0387
 5714TIP3    H238558   1.464   0.746   3.229  0.9380 -1.4004  0.1784
 5715TIP3   OH238559   0.115   1.963  12.543  0.0709  0.5206  0.7441
 5715TIP3    H138560   0.106   2.045  12.495  0.2587 -0.2675 -0.6604
 5715TIP3    H238561   0.209   1.948  12.547  0.0286  0.2842  0.8514
 5716TIP3   OH238562   4.344   2.604  16.440  0.0259  0.0413 -0.4762
 5716TIP3    H138563   4.398   2.626  16.363 -0.1064 -0.7129 -0.7816
 5716TIP3    H238564   4.294   2.684  16.457  0.0176  0.1975 -1.2044
 5717TIP3   OH238565   5.120   1.376   4.457  0.0802 -0.0605 -0.2325
 5717TIP3    H138566   5.200   1.425   4.437 -1.2111  2.2221  0.1263
 5717TIP3    H238567   5.143   1.285   4.437  1.8941  0.9022 -2.9015
 5718TIP3   OH238568   4.154   6.152   1.452  0.5351 -1.0145  0.3248
 5718TIP3    H138569   4.076   6.157   1.396  1.7628  0.8583 -1.2798
 5718TIP3    H238570   4.200   6.074   1.423  1.6595  0.4556 -2.0298
 5719TIP3   OH238571   1.561   5.738   4.655 -0.2388 -0.9523  0.1448
 5719TIP3    H138572   1.590   5.738   4.564  1.2029  0.1103  0.5751
 5719TIP3    H238573   1.513   5.821   4.665  1.6348  0.0748  0.9300
 5720TIP3   OH238574   0.092   4.812   3.882  0.5112 -0.2627 -0.2072
 5720TIP3    H138575   0.052   4.730   3.909  0.1800  0.0668  0.3041
 5720TIP3    H238576   0.023   4.860   3.837  0.5326 -0.0105  0.0233
 5721TIP3   OH238577   3.742   3.878   5.524  0.3769  0.0742 -0.2712
 5721TIP3    H138578   3.688   3.893   5.446  0.1871 -1.4944 -0.4582
 5721TIP3    H238579   3.680   3.874   5.596  0.4295  0.2566 -0.2158
 5722TIP3   OH238580   3.277   6.634  10.492  0.0392 -0.7005 -0.1361
 5722TIP3    H138581   3.372   6.641  10.500  0.0203 -1.5475  0.9496
 5722TIP3    H238582   3.247   6.725  10.489  0.9218 -0.4304 -1.0404
 5723TIP3   OH238583   5.309   4.073   0.809  0.0305 -0.0211 -0.1348
 5723TIP3    H138584   5.349   4.159   0.820  0.2600 -0.1794  0.2780
 5723TIP3    H238585   5.217   4.087   0.833  0.2801 -0.1078  0.8835
 5724TIP3   OH238586   5.869   4.128  11.271  0.8464 -0.0524  0.0961
 5724TIP3    H138587   5.949   4.178  11.287  0.4076  0.5742  0.4254
 5724TIP3    H238588   5.799   4.186  11.304  0.1926 -0.2099 -1.0026
 5725TIP3   OH238589   3.518   1.821  11.574  0.1744 -0.7803  0.4467
 5725TIP3    H138590   3.613   1.830  11.579  0.1047  1.0517 -1.1550
 5725TIP3    H238591   3.494   1.777  11.656  2.2236  0.1204  1.5676
 5726TIP3   OH238592   3.689   0.303  14.919 -0.1423 -0.2580  0.1411
 5726TIP3    H138593   3.640   0.244  14.977  0.7454 -0.6526  0.4875
 5726TIP3    H238594   3.752   0.347  14.976 -1.2823  1.6034  0.0311
 5727TIP3   OH238595   0.153   2.026  13.973 -0.4919 -0.1502 -0.3359
 5727TIP3    H138596   0.107   2.108  13.988  0.7978  0.6372 -0.6494
 5727TIP3    H238597   0.173   1.993  14.061  0.4016  0.6832 -0.2176
 5728TIP3   OH238598   2.702   2.882   1.495  0.3045  0.4982  0.2726
 5728TIP3    H138599   2.656   2.920   1.420  0.8229  0.7925  0.0988
 5728TIP3    H238600   2.640   2.819   1.532 -0.0158  0.4640 -0.3103
 5729TIP3   OH238601   2.603   0.175  13.414 -0.4213 -0.4480  0.0789
 5729TIP3    H138602   2.510   0.157  13.401 -0.6488  0.1272  0.8863
 5729TIP3    H238603   2.644   0.088  13.417 -1.1745 -0.7794  1.4277
 5730TIP3   OH238604   5.776   2.049  15.819  0.2423  0.0544 -0.1286
 5730TIP3    H138605   5.681   2.034  15.815  0.1130  0.7611  0.3537
 5730TIP3    H238606   5.790   2.125  15.763  0.2663  1.1630  1.3583
 5731TIP3   OH238607   6.325   4.546  13.215 -0.1247  0.3439  0.4824
 5731TIP3    H138608   6.319   4.488  13.291 -0.5608  0.3758  0.4697
 5731TIP3    H238609   6.373   4.494  13.150 -0.5566 -0.0224  0.4526
 5732TIP3   OH238610   5.653   1.260  10.851  0.3367  1.0223 -0.1689
 5732TIP3    H138611   5.646   1.195  10.781 -0.2729  1.0005 -0.0878
 5732TIP3    H238612   5.570   1.307  10.849  0.2005  0.8267  0.7284
 5733TIP3   OH238613   4.445   1.110  14.212 -0.3490 -0.0648 -0.0420
 5733TIP3    H138614   4.494   1.099  14.293 -1.3567  2.3301  0.9193
 5733TIP3    H238615   4.450   1.203  14.193 -2.8836 -0.0820 -0.9747
 5734TIP3   OH238616   1.897   3.455  12.059 -0.2062 -0.2606  0.2107
 5734TIP3    H138617   1.814   3.499  12.042 -0.7422 -0.0473  3.1783
 5734TIP3    H238618   1.919   3.413  11.976 -2.3197  1.2295 -1.1517
 5735TIP3   OH238619   1.715   1.274  12.728 -0.2020  0.4608 -0.1029
 5735TIP3    H138620   1.748   1.356  12.691 -0.1137  0.2163 -0.5717
 5735TIP3    H238621   1.624   1.293  12.752  0.2918  1.1711  1.3014
 5736TIP3   OH238622   5.461   2.784  16.330  0.3294  0.2704  0.0551
 5736TIP3    H138623   5.475   2.807  16.238  0.4802 -0.3009 -0.0671
 5736TIP3    H238624   5.517   2.843  16.379  0.7893  0.0978 -0.2612
 5737TIP3   OH238625   2.874   2.090  16.345 -0.3274 -0.4724  0.4314
 5737TIP3    H138626   2.896   2.135  16.427 -0.8759  0.5414  0.0262
 5737TIP3    H238627   2.880   2.158  16.278  0.4778 -1.3715 -0.4381
 5738TIP3   OH238628   6.432   4.243   0.216  0.2640  0.4402 -0.2346
 5738TIP3    H138629   6.420   4.311   0.283  1.2769 -0.7915  1.2267
 5738TIP3    H238630   6.517   4.204   0.237 -0.8872 -2.1642 -0.2551
 5739TIP3   OH238631   2.840   3.817   1.863  0.2472  0.5305 -0.0677
 5739TIP3    H138632   2.922   3.799   1.816  0.6078 -1.5348  1.2438
 5739TIP3    H238633   2.771   3.805   1.798  1.0128  2.7318 -1.2929
 5740TIP3   OH238634   5.513   5.796  16.696 -0.1585  0.4954 -0.0788
 5740TIP3    H138635   5.438   5.855  16.707  0.9079  1.8159  0.3361
 5740TIP3    H238636   5.557   5.830  16.618  1.9709  1.9716  1.6872
 5741TIP3   OH238637   4.193   6.079   3.868 -0.3210 -0.2333 -0.5369
 5741TIP3    H138638   4.279   6.070   3.910 -1.1776 -1.3785  1.0299
 5741TIP3    H238639   4.202   6.031   3.786  0.1714 -1.4175  0.1972
 5742TIP3   OH238640   2.349   2.020  15.819 -0.1899 -0.2668 -0.6941
 5742TIP3    H138641   2.411   1.969  15.871 -0.5997 -0.3725 -0.3110
 5742TIP3    H238642   2.390   2.026  15.733 -0.7661 -2.3662 -1.1281
 5743TIP3   OH238643   0.119   3.269   1.563 -0.0856  0.4299 -0.4400
 5743TIP3    H138644   0.054   3.268   1.634 -0.3665  0.8483 -0.6867
 5743TIP3    H238645   0.119   3.359   1.532 -0.6255  0.0460 -1.5802
 5744TIP3   OH238646   4.662   1.974   1.813  0.1262 -0.2237 -0.8821
 5744TIP3    H138647   4.569   1.952   1.810  0.0619  0.1961 -3.3781
 5744TIP3    H238648   4.706   1.894   1.841 -1.0672 -0.0924  1.4373
 5745TIP3   OH238649   1.274   4.436   2.335 -0.0002  0.1804 -0.1033
 5745TIP3    H138650   1.226   4.512   2.367 -0.2939  0.3785 -1.0027
 5745TIP3    H238651   1.258   4.435   2.240  2.0972  0.5105 -0.4951
 5746TIP3   OH238652   1.780   3.499   5.229  0.0343  0.1594 -0.1734
 5746TIP3    H138653   1.749   3.431   5.169 -2.1869  0.3243  0.7430
 5746TIP3    H238654   1.786   3.455   5.314 -1.0894  1.0065  0.3607
 5747TIP3   OH238655   5.610   0.570   2.224 -0.2152  0.1586 -0.0519
 5747TIP3    H138656   5.565   0.655   2.225 -0.7151 -0.1090  0.5119
 5747TIP3    H238657   5.543   0.507   2.250  0.1241 -0.4286 -0.6070
 5748TIP3   OH238658   2.060   3.371   5.597 -0.3449 -0.5252  0.0192
 5748TIP3    H138659   1.998   3.356   5.669 -2.3297  0.7270 -1.3935
 5748TIP3    H238660   2.113   3.445   5.627 -0.7293 -0.4352  0.4934
 5749TIP3   OH238661   3.202   3.859  13.785 -0.4843 -0.6470  0.6218
 5749TIP3    H138662   3.288   3.818  13.778 -0.2605 -0.1407  0.3441
 5749TIP3    H238663   3.198   3.890  13.875 -0.3477 -0.6091  0.6148
 5750TIP3   OH238664   4.731   6.767  16.797  0.2485 -0.0973 -0.2686
 5750TIP3    H138665   4.818   6.786  16.832 -1.0672  1.8377  2.0923
 5750TIP3    H238666   4.708   6.844  16.745 -1.0471  0.4632  1.1203
 5751TIP3   OH238667   2.990   2.927   1.343 -0.0463 -0.1180 -0.1467
 5751TIP3    H138668   2.906   2.902   1.383 -1.0514 -0.8811 -2.6318
 5751TIP3    H238669   2.984   3.023   1.335  0.4491  0.1299  2.0579
 5752TIP3   OH238670   0.918   3.622  11.891  0.1970  0.6649 -0.1300
 5752TIP3    H138671   0.993   3.564  11.907 -0.9815 -0.7058  0.5901
 5752TIP3    H238672   0.925   3.690  11.957  2.4754  2.2765 -1.9588
 5753TIP3   OH238673   5.310   3.730  12.517  0.2466  0.0821  0.1026
 5753TIP3    H138674   5.366   3.667  12.472  0.4474  0.7238 -0.5513
 5753TIP3    H238675   5.233   3.739  12.461 -0.3988 -0.5972  0.8676
 5754TIP3   OH238676   2.298   5.104   2.495 -0.2279  0.4297 -0.4141
 5754TIP3    H138677   2.370   5.079   2.437 -1.3643 -0.5682 -1.4225
 5754TIP3    H238678   2.341   5.141   2.572  1.3528  0.0035 -1.0719
 5755TIP3   OH238679   4.390   3.458   0.383 -0.1070  0.4285  0.4300
 5755TIP3    H138680   4.339   3.539   0.381  0.4071  0.8169  2.4427
 5755TIP3    H238681   4.422   3.448   0.293 -1.6472  1.5044 -0.2449
 5756TIP3   OH238682   5.984   2.259   1.264  0.4448  0.3166 -0.1060
 5756TIP3    H138683   5.947   2.281   1.350 -1.1110  4.1815 -1.6058
 5756TIP3    H238684   6.033   2.337   1.239  0.6027 -0.6339 -2.8741
 5757TIP3   OH238685   6.324   2.185  11.873 -0.7202  0.4447  0.7699
 5757TIP3    H138686   6.279   2.255  11.827  0.5423 -0.9115 -2.6563
 5757TIP3    H238687   6.262   2.111  11.871 -1.5234  1.0070  3.2183
 5758TIP3   OH238688   2.936   3.884  14.246  0.0470 -0.5871 -0.5609
 5758TIP3    H138689   3.028   3.865  14.262  0.0997  0.2676  0.2456
 5758TIP3    H238690   2.890   3.844  14.320  0.0583  1.3812  0.5551
 5759TIP3   OH238691   3.250   4.686  10.380  0.1242 -0.7313  0.6413
 5759TIP3    H138692   3.159   4.656  10.375 -0.4257  0.7949  1.1319
 5759TIP3    H238693   3.289   4.632  10.449 -0.8391 -0.3436  1.5038
 5760TIP3   OH238694   3.325   5.967  11.228  0.0558  0.1089  0.2060
 5760TIP3    H138695   3.388   6.024  11.184 -0.3393  0.8864  0.6329
 5760TIP3    H238696   3.364   5.951  11.314 -1.4535  2.5965  1.3942
 5761TIP3   OH238697   6.460   6.640   3.960 -0.0477  0.1504  0.0725
 5761TIP3    H138698   6.466   6.552   3.923 -1.4229 -0.0366  0.2655
 5761TIP3    H238699   6.527   6.690   3.915  0.0221 -0.7350 -0.8104
 5762TIP3   OH238700   6.726   3.853  14.230 -0.3992  0.0312 -0.1616
 5762TIP3    H138701   6.797   3.845  14.167 -0.5210 -0.5041 -0.2380
 5762TIP3    H238702   6.767   3.887  14.309 -0.0784 -0.1671 -0.2418
 5763TIP3   OH238703   1.567   6.236   5.840 -0.3274 -0.1558 -0.2302
 5763TIP3    H138704   1.506   6.301   5.804  1.3129  1.6510  0.1769
 5763TIP3    H238705   1.606   6.279   5.916  0.3122 -1.8755  0.4363
 5764TIP3   OH238706   4.728   6.541   3.171  0.0961 -0.4440  0.4297
 5764TIP3    H138707   4.656   6.600   3.149  1.4136  1.3724  0.9127
 5764TIP3    H238708   4.744   6.554   3.264  2.2118  0.4931 -0.0341
 5765TIP3   OH238709   5.734   1.489   4.050 -0.5264  0.2935  0.3779
 5765TIP3    H138710   5.737   1.427   3.977  1.5619  0.5735  0.1888
 5765TIP3    H238711   5.655   1.540   4.035 -0.8827 -0.5992 -0.9002
 5766TIP3   OH238712   1.584   4.389   6.710  0.3459 -0.3593 -0.7498
 5766TIP3    H138713   1.631   4.468   6.682  0.1060  0.1522  0.3111
 5766TIP3    H238714   1.520   4.374   6.640 -0.3656  1.0175 -0.3975
 5767TIP3   OH238715   1.739   3.950  16.597 -0.3687  0.1080  0.5452
 5767TIP3    H138716   1.659   4.002  16.606  1.1536  2.7699 -0.7072
 5767TIP3    H238717   1.804   3.996  16.650  1.0241 -0.4958 -0.6084
 5768TIP3   OH238718   5.530   4.678  14.621 -0.6169 -0.2547 -0.1549
 5768TIP3    H138719   5.578   4.742  14.674 -0.1034 -0.6782 -0.1059
 5768TIP3    H238720   5.593   4.648  14.556 -0.6906 -1.0892  0.1446
 5769TIP3   OH238721   0.607   6.475   2.618  0.4186 -0.4986  0.5387
 5769TIP3    H138722   0.614   6.516   2.532  2.8735 -0.3304  0.7943
 5769TIP3    H238723   0.622   6.547   2.680  1.6943 -1.2063  1.0504
 5770TIP3   OH238724   3.986   5.197   4.521  0.3891  0.1044 -0.3978
 5770TIP3    H138725   3.963   5.141   4.595  0.0220  1.0536  0.2149
 5770TIP3    H238726   3.903   5.236   4.494  0.7027  0.6842 -0.5410
 5771TIP3   OH238727   4.034   5.923  11.070  0.1753  0.4454  0.1314
 5771TIP3    H138728   4.099   5.986  11.099  0.6687  0.2863 -0.6187
 5771TIP3    H238729   4.084   5.843  11.054 -0.7158 -0.7311  2.9329
 5772TIP3   OH238730   4.518   0.397  13.518 -0.2007 -0.7595 -0.3666
 5772TIP3    H138731   4.538   0.308  13.490 -0.3149 -1.0179  0.3640
 5772TIP3    H238732   4.599   0.446  13.504 -0.4086 -0.7520 -1.6362
 5773TIP3   OH238733   0.054   4.121   5.375  0.2334  0.4592 -0.1051
 5773TIP3    H138734   0.017   4.043   5.416  0.2662 -0.7544 -2.2944
 5773TIP3    H238735   0.053   4.101   5.281 -1.2849  3.7359 -0.8630
 5774TIP3   OH238736   0.793   5.975  15.898  0.4327 -0.5002  0.0765
 5774TIP3    H138737   0.765   6.042  15.961  1.0285  1.5112 -1.7471
 5774TIP3    H238738   0.791   5.893  15.948 -1.5594  0.6672  2.0008
 5775TIP3   OH238739   0.820   1.824   1.051 -0.2597  0.0541 -0.8583
 5775TIP3    H138740   0.855   1.736   1.035  1.2085  0.8421 -2.1692
 5775TIP3    H238741   0.809   1.829   1.145 -2.4570 -2.3081 -0.9288
 5776TIP3   OH238742   5.444   5.740   4.253 -0.0013  0.0632  0.1600
 5776TIP3    H138743   5.393   5.720   4.174 -2.7858 -0.4227  2.0123
 5776TIP3    H238744   5.475   5.829   4.238 -1.7356  0.5321 -0.8760
 5777TIP3   OH238745   5.424   3.214  11.545 -0.0744 -0.1768 -0.1721
 5777TIP3    H138746   5.454   3.124  11.556 -0.0757 -0.2958 -1.1176
 5777TIP3    H238747   5.333   3.206  11.517 -1.2765  0.1983  3.3638
 5778TIP3   OH238748   3.941   2.288  15.144 -0.0415  0.6728 -0.7040
 5778TIP3    H138749   3.875   2.287  15.213 -1.3419  0.0419 -1.9326
 5778TIP3    H238750   3.890   2.291  15.063  1.4327 -0.6119 -1.6973
 5779TIP3   OH238751   2.957   2.160  12.677  0.5630 -0.5697 -0.0662
 5779TIP3    H138752   2.894   2.089  12.666 -1.3159  0.6566  2.1703
 5779TIP3    H238753   2.974   2.191  12.589 -0.9454 -1.8276 -0.8204
 5780TIP3   OH238754   5.062   0.796  13.340 -0.4988  0.1479  0.1597
 5780TIP3    H138755   4.998   0.864  13.359 -1.5408 -0.8857  0.4290
 5780TIP3    H238756   5.032   0.758  13.257 -0.5789 -0.7357  0.5927
 5781TIP3   OH238757   2.447   0.944  15.466 -0.4394  0.3251 -0.2776
 5781TIP3    H138758   2.382   0.943  15.535 -0.7144  0.8026 -0.5320
 5781TIP3    H238759   2.483   0.855  15.465 -0.3489  0.3546  0.5534
 5782TIP3   OH238760   6.382   3.444  14.429 -0.3699  0.1790 -0.1068
 5782TIP3    H138761   6.376   3.455  14.334  1.1777  0.3429 -0.2002
 5782TIP3    H238762   6.308   3.387  14.452 -1.1062  0.6475 -1.3199
 5783TIP3   OH238763   5.617   6.669   3.706 -0.3036 -0.4591  0.1427
 5783TIP3    H138764   5.643   6.589   3.662  0.8376 -0.9305  1.6098
 5783TIP3    H238765   5.538   6.698   3.661 -0.1741 -1.8776 -1.0106
 5784TIP3   OH238766   3.663   4.165   6.546 -0.0665 -0.1013  0.2780
 5784TIP3    H138767   3.583   4.217   6.542  0.5554  0.8269 -0.0776
 5784TIP3    H238768   3.715   4.194   6.471  0.0914 -1.5397 -0.1838
 5785TIP3   OH238769   5.511   1.192   6.050  0.5239  0.6898 -0.2716
 5785TIP3    H138770   5.567   1.240   6.111  0.3232  0.5721  0.0116
 5785TIP3    H238771   5.518   1.101   6.078 -0.7944  0.8289  0.5747
 5786TIP3   OH238772   4.246   6.224  14.204 -0.0843  0.0016  0.1638
 5786TIP3    H138773   4.302   6.280  14.151  1.0870 -0.8654  0.4614
 5786TIP3    H238774   4.166   6.213  14.152  1.2558 -1.2936 -1.6626
 5787TIP3   OH238775   3.724   0.303   0.304 -0.4570  0.2162 -0.0573
 5787TIP3    H138776   3.680   0.252   0.236 -1.0088 -0.6677  0.9562
 5787TIP3    H238777   3.752   0.238   0.369  1.6215  0.8560 -0.2792
 5788TIP3   OH238778   1.054   3.151  14.695  0.2451  0.4971 -0.0322
 5788TIP3    H138779   1.139   3.115  14.720 -0.4547 -1.8129 -0.8591
 5788TIP3    H238780   1.020   3.090  14.629 -3.1499 -0.0882  2.0880
 5789TIP3   OH238781   3.675   5.843   3.061 -0.0346  0.3759 -0.0397
 5789TIP3    H138782   3.609   5.899   3.018 -0.8577 -0.2380  0.4150
 5789TIP3    H238783   3.749   5.902   3.077 -0.8779  1.3294  0.4017
 5790TIP3   OH238784   2.728   0.213  16.077  0.4191 -0.3096 -0.6422
 5790TIP3    H138785   2.687   0.300  16.075  1.7437  0.2980 -2.5970
 5790TIP3    H238786   2.793   0.218  16.147  0.6133  0.3218 -0.8728
 5791TIP3   OH238787   4.190   2.699   3.328 -0.0356  0.4462  0.0170
 5791TIP3    H138788   4.191   2.605   3.314 -1.5805  0.4927 -0.5095
 5791TIP3    H238789   4.196   2.737   3.240  0.6622  0.8413  0.2313
 5792TIP3   OH238790   5.409   3.017  12.014  0.1343 -0.2317  0.0994
 5792TIP3    H138791   5.450   3.032  12.100  0.5587 -0.1134 -0.1194
 5792TIP3    H238792   5.390   3.105  11.981 -0.6083 -0.2983  0.3451
 5793TIP3   OH238793   5.312   2.566  14.994  0.6854 -0.1580  0.2600
 5793TIP3    H138794   5.280   2.655  14.981  3.2790  1.1768  2.7106
 5793TIP3    H238795   5.391   2.560  14.941  1.6358 -0.2976  1.6504
 5794TIP3   OH238796   5.849   3.500   1.894  0.5141  0.0148  0.1030
 5794TIP3    H138797   5.887   3.414   1.912 -0.5389 -0.5289 -0.2698
 5794TIP3    H238798   5.914   3.544   1.839  0.5326 -0.9844 -0.6872
 5795TIP3   OH238799   1.997   4.361   1.082  0.1334  0.5878 -0.4939
 5795TIP3    H138800   1.976   4.423   1.152  0.8484 -0.4892  0.7115
 5795TIP3    H238801   2.081   4.391   1.047 -0.9194  1.9741 -1.9053
 5796TIP3   OH238802   5.873   3.526  15.073 -0.3701 -0.5580  0.0713
 5796TIP3    H138803   5.837   3.438  15.057  1.1850 -1.6339  2.1445
 5796TIP3    H238804   5.797   3.581  15.088 -1.5291 -0.9851 -3.5268
 5797TIP3   OH238805   6.036   0.541   4.660 -0.3748  0.3845  0.4523
 5797TIP3    H138806   6.069   0.525   4.749  1.4343  2.9725  0.3030
 5797TIP3    H238807   6.114   0.557   4.608 -1.5121  0.1270 -1.3650
 5798TIP3   OH238808   2.187   4.415  15.990 -0.6819 -0.3032 -0.4059
 5798TIP3    H138809   2.169   4.395  16.082 -1.4332  0.2475 -0.4295
 5798TIP3    H238810   2.103   4.447  15.956  0.1789  1.6879 -0.7006
 5799TIP3   OH238811   1.401   2.621  14.574  0.4036 -0.5357 -0.3944
 5799TIP3    H138812   1.341   2.690  14.545 -1.1289 -1.7555 -0.1797
 5799TIP3    H238813   1.427   2.648  14.662 -2.6396 -1.7594  0.9472
 5800TIP3   OH238814   2.530   3.365   0.587 -0.4576 -0.1633  0.1392
 5800TIP3    H138815   2.583   3.322   0.520 -0.4438  0.0993 -0.0159
 5800TIP3    H238816   2.478   3.430   0.540 -0.3309  0.1319  0.4049
 5801TIP3   OH238817   2.935   5.106  15.011  0.2469  0.3526  0.0842
 5801TIP3    H138818   2.988   5.139  14.939  0.4839  0.8934  0.4953
 5801TIP3    H238819   2.997   5.095  15.083  0.0523 -0.3975  0.1389
 5802TIP3   OH238820   3.453   0.799   1.425  0.6046  0.0137 -0.3179
 5802TIP3    H138821   3.398   0.853   1.481 -0.4263 -0.0165 -1.2781
 5802TIP3    H238822   3.412   0.803   1.339  1.6609 -0.6548 -0.8756
 5803TIP3   OH238823   5.016   3.015  16.571 -0.2802  0.1692 -0.6235
 5803TIP3    H138824   4.985   3.072  16.501 -1.6282 -1.3982 -1.3433
 5803TIP3    H238825   5.068   2.948  16.525 -0.0035 -0.0607  0.0261
 5804TIP3   OH238826   4.292   2.672  11.097  0.5272 -0.4720  0.2864
 5804TIP3    H138827   4.387   2.664  11.090  0.5558  0.3092 -0.2565
 5804TIP3    H238828   4.259   2.660  11.008  0.2740  1.1775  0.1277
 5805TIP3   OH238829   1.944   1.863  16.681 -0.2071 -0.0310  0.0042
 5805TIP3    H138830   1.952   1.818  16.597 -0.2061  0.6927 -0.3828
 5805TIP3    H238831   1.999   1.941  16.672  0.6505 -0.4985  1.0566
 5806TIP3   OH238832   1.038   6.688   0.032 -0.5424 -0.1276 -0.0475
 5806TIP3    H138833   1.092   6.643   0.097  0.1697 -0.5143 -0.8923
 5806TIP3    H238834   1.097   6.701  -0.042 -0.7254  2.1942  0.1680
 5807TIP3   OH238835   3.852   3.107  16.755  0.1273  0.5009  0.3534
 5807TIP3    H138836   3.893   3.089  16.840 -0.3311  1.6283  0.8313
 5807TIP3    H238837   3.902   3.180  16.719 -0.4251  0.8026  0.1941
 5808TIP3   OH238838   3.009   4.670  12.722 -0.1453  0.0980 -0.5463
 5808TIP3    H138839   3.001   4.709  12.809  1.2183  0.6583 -0.6633
 5808TIP3    H238840   3.074   4.723  12.677  0.2738 -1.1024 -1.3950
 5809TIP3   OH238841   0.117   6.751   3.453 -0.1470  0.1780 -0.0873
 5809TIP3    H138842   0.102   6.793   3.368  0.3258 -1.3545 -0.9429
 5809TIP3    H238843   0.073   6.808   3.516 -0.0170  1.6301 -1.2918
 5810TIP3   OH238844   1.428   0.147  11.583  0.3182  0.0505  0.2254
 5810TIP3    H138845   1.493   0.078  11.579  0.8704  0.5804 -0.0730
 5810TIP3    H238846   1.380   0.130  11.664  0.1323 -0.9511 -0.0906
 5811TIP3   OH238847   6.407   1.339   2.195 -0.5712 -0.4366 -0.3458
 5811TIP3    H138848   6.345   1.296   2.136  0.1530 -1.1647 -0.5866
 5811TIP3    H238849   6.431   1.420   2.150  0.2576 -1.1635 -1.2289
 5812TIP3   OH238850   6.449   1.780  14.619  0.4209  0.6481  0.4142
 5812TIP3    H138851   6.504   1.749  14.691  1.2568  1.8361  0.3000
 5812TIP3    H238852   6.432   1.872  14.640 -1.1147  0.4297  0.1822
 5813TIP3   OH238853   1.709   1.166  12.979 -0.3568 -0.1870 -0.0637
 5813TIP3    H138854   1.740   1.181  12.890 -2.3304 -0.5650 -0.8343
 5813TIP3    H238855   1.720   1.072  12.992 -2.0073 -0.4851 -0.6872
 5814TIP3   OH238856   3.857   5.156   3.235 -0.3648 -0.4934  0.2985
 5814TIP3    H138857   3.823   5.123   3.317 -1.3288 -0.9508 -0.2790
 5814TIP3    H238858   3.812   5.239   3.222 -1.5391 -1.2524 -0.6261
 5815TIP3   OH238859   0.584   6.155  11.209  0.3893 -0.8568 -0.1922
 5815TIP3    H138860   0.641   6.136  11.283  1.5693  2.3740 -0.1634
 5815TIP3    H238861   0.645   6.165  11.135 -0.4820 -1.0630 -0.9416
 5816TIP3   OH238862   2.030   2.376   0.746 -0.4232 -0.2309  0.1895
 5816TIP3    H138863   1.956   2.354   0.802 -0.1940  1.1031  1.0323
 5816TIP3    H238864   2.049   2.468   0.766  0.1711  0.0260 -1.4854
 5817TIP3   OH238865   5.400   6.237   4.198  0.2642  0.6630  0.1754
 5817TIP3    H138866   5.436   6.286   4.272  2.5301 -0.2966 -0.2494
 5817TIP3    H238867   5.384   6.303   4.131  1.0746  1.1346  0.4358
 5818TIP3   OH238868   3.954   1.684  11.156 -0.0986 -0.0256 -0.2325
 5818TIP3    H138869   3.976   1.777  11.165 -0.3350  0.0619 -0.5227
 5818TIP3    H238870   3.938   1.673  11.062  2.6513 -0.9814 -0.6068
 5819TIP3   OH238871   6.112   4.605  13.853 -0.4947  0.0132  0.2725
 5819TIP3    H138872   6.127   4.599  13.759  2.1384 -0.1829  0.6583
 5819TIP3    H238873   6.184   4.555  13.892  0.2903  2.6962  2.4545
 5820TIP3   OH238874   2.213   2.101  10.977  0.1171  0.1294 -0.1020
 5820TIP3    H138875   2.177   2.180  10.936 -0.6655 -0.8244 -1.2881
 5820TIP3    H238876   2.301   2.126  11.003  0.0969  1.2180 -1.0425
 5821TIP3   OH238877   5.316   1.197   5.205 -0.2649 -0.0533  0.0329
 5821TIP3    H138878   5.377   1.138   5.160  0.2728  0.6948 -0.2372
 5821TIP3    H238879   5.309   1.273   5.147  1.9012  1.7530  2.0172
 5822TIP3   OH238880   2.673   6.504   1.535 -0.1467  0.8805 -0.2485
 5822TIP3    H138881   2.642   6.451   1.608 -1.2599  0.7728 -0.7923
 5822TIP3    H238882   2.769   6.501   1.543 -0.2409  0.3498  0.8250
 5823TIP3   OH238883   2.176   1.866  16.932 -0.0665  0.3106 -0.1679
 5823TIP3    H138884   2.129   1.783  16.923  1.3867 -0.5627  0.0313
 5823TIP3    H238885   2.107   1.933  16.936 -1.2846 -0.9501  0.4215
 5824TIP3   OH238886   1.585   6.673  15.285 -0.3420  0.5289  0.1502
 5824TIP3    H138887   1.595   6.760  15.248  2.0046  0.4648  0.5572
 5824TIP3    H238888   1.674   6.643  15.300 -0.9974 -2.8610 -2.1372
 5825TIP3   OH238889   1.931   2.612   5.525  0.4288 -0.6122  0.1636
 5825TIP3    H138890   2.013   2.616   5.574  1.3320  2.3052 -1.5140
 5825TIP3    H238891   1.956   2.588   5.436 -0.6280 -0.3736 -0.2093
 5826TIP3   OH238892   3.821   4.626   2.229  0.2550 -0.5148  0.5461
 5826TIP3    H138893   3.809   4.643   2.135  1.1422 -0.7200  0.3847
 5826TIP3    H238894   3.914   4.603   2.236 -0.2804 -2.5244  1.1750
 5827TIP3   OH238895   3.364   1.294  15.665  0.2650  0.2666 -0.0471
 5827TIP3    H138896   3.274   1.264  15.679  0.1338  0.9053  0.5428
 5827TIP3    H238897   3.354   1.386  15.639  0.7530  0.3691  0.1268
 5828TIP3   OH238898   1.330   2.610  13.161 -0.1975  0.0747 -0.1260
 5828TIP3    H138899   1.352   2.667  13.235  0.5480 -1.2597  0.6938
 5828TIP3    H238900   1.379   2.647  13.087  2.5589 -1.1188  1.0318
 5829TIP3   OH238901   2.244   3.481  13.660  0.2310 -0.5890 -0.3496
 5829TIP3    H138902   2.206   3.410  13.710 -1.4139 -0.8604 -1.9108
 5829TIP3    H238903   2.222   3.460  13.569 -0.2310  1.8466 -0.8350
 5830TIP3   OH238904   3.007   1.916   5.350 -0.0627  0.1736  0.1530
 5830TIP3    H138905   2.917   1.948   5.360 -0.1717 -0.1981  0.4079
 5830TIP3    H238906   3.062   1.987   5.383 -0.2243  0.7342 -0.7680
 5831TIP3   OH238907   5.703   5.365  14.931 -0.5783  0.7932  0.6325
 5831TIP3    H138908   5.610   5.359  14.949 -1.0906  1.4691 -1.5485
 5831TIP3    H238909   5.711   5.340  14.838  1.4918  0.0639  0.9620
 5832TIP3   OH238910   4.292   3.822   1.398  0.2521 -0.2581  0.1617
 5832TIP3    H138911   4.205   3.812   1.361  0.2637 -1.1382  0.3767
 5832TIP3    H238912   4.319   3.734   1.423  1.5879 -0.1497 -0.7908
 5833TIP3   OH238913   6.378   4.150  11.380 -0.1650 -0.3100  0.0316
 5833TIP3    H138914   6.393   4.233  11.427  1.0348 -0.0456 -0.7837
 5833TIP3    H238915   6.464   4.127  11.345 -0.7132 -1.3625 -0.6410
 5834TIP3   OH238916   0.039   5.935   5.172  0.1504 -0.0834 -0.3004
 5834TIP3    H138917   0.070   6.013   5.126 -0.8339  0.3317 -0.2676
 5834TIP3    H238918   0.059   5.950   5.264 -1.2622  0.7301 -0.1185
 5835TIP3   OH238919   5.345   5.382  15.717 -0.2785 -0.6370  0.1605
 5835TIP3    H138920   5.328   5.473  15.692 -0.4091 -0.8118 -0.3776
 5835TIP3    H238921   5.294   5.371  15.797  2.6820  0.8906  2.3860
 5836TIP3   OH238922   1.827   3.013  14.761  0.3086 -0.5531 -0.9912
 5836TIP3    H138923   1.860   3.013  14.671 -2.1497  0.7545 -1.9514
 5836TIP3    H238924   1.876   3.083  14.804  0.1404  0.1134 -1.8568
 5837TIP3   OH238925   4.723   4.100   2.145  0.2890 -0.1955 -0.1986
 5837TIP3    H138926   4.639   4.097   2.192  0.4300 -1.2892 -0.0027
 5837TIP3    H238927   4.699   4.096   2.052  0.0046  2.0558 -0.2384
 5838TIP3   OH238928   1.184   3.913   2.099  0.3194  0.5387 -0.5634
 5838TIP3    H138929   1.263   3.882   2.145 -0.2878 -2.2019 -1.2405
 5838TIP3    H238930   1.129   3.949   2.169  1.1672  0.2395  0.2791
 5839TIP3   OH238931   3.471   1.627  13.181 -0.1459  0.2968  0.6717
 5839TIP3    H138932   3.475   1.664  13.093 -0.5694 -0.6482  0.2465
 5839TIP3    H238933   3.514   1.692  13.237  0.2044  0.8586 -0.2467
 5840TIP3   OH238934   0.522   4.187  11.425  0.2901 -0.3238 -0.5131
 5840TIP3    H138935   0.610   4.169  11.392  0.4199 -1.1342  0.2694
 5840TIP3    H238936   0.506   4.119  11.490 -0.3579  0.6725  0.3875
 5841TIP3   OH238937   5.255   2.777  11.272 -0.3486 -0.2163  0.3811
 5841TIP3    H138938   5.267   2.698  11.324 -1.5362 -0.6873 -0.0460
 5841TIP3    H238939   5.225   2.745  11.187 -0.9270  0.7014  0.2373
 5842TIP3   OH238940   4.860   4.822  13.385  0.2184 -0.3657 -0.3429
 5842TIP3    H138941   4.839   4.852  13.297 -0.5994 -0.1198 -0.0618
 5842TIP3    H238942   4.949   4.854  13.400 -0.6237  1.9344 -0.0565
 5843TIP3   OH238943   1.737   0.105   2.037  0.3328 -0.2591 -0.2122
 5843TIP3    H138944   1.824   0.142   2.051  0.4920 -1.3034  1.7011
 5843TIP3    H238945   1.753   0.012   2.022 -0.1969  0.0890 -3.3281
 5844TIP3   OH238946   3.312   3.093  11.488 -0.3250 -0.1889  0.3065
 5844TIP3    H138947   3.313   3.003  11.457 -0.8309  0.4805 -1.6850
 5844TIP3    H238948   3.220   3.112  11.506 -0.1848 -0.1548  1.0200
 5845TIP3   OH238949   6.384   3.333   0.413 -0.0678  0.0210 -0.3233
 5845TIP3    H138950   6.420   3.421   0.401  1.0173 -0.3761 -0.0637
 5845TIP3    H238951   6.300   3.335   0.367 -0.2764  1.3360  0.0857
 5846TIP3   OH238952   2.832   2.513   1.687  0.1096  0.0249 -0.7499
 5846TIP3    H138953   2.832   2.556   1.772 -2.3277 -0.9037 -0.2484
 5846TIP3    H238954   2.867   2.425   1.706 -3.6876 -1.4146  0.0219
 5847TIP3   OH238955   2.127   3.773   3.240  0.0351 -0.5343 -0.0565
 5847TIP3    H138956   2.113   3.867   3.227  1.1180 -0.3847 -0.1490
 5847TIP3    H238957   2.044   3.742   3.276  0.4116  0.8680  2.1288
 5848TIP3   OH238958   3.630   5.935  16.083  0.9342  0.0060 -0.5618
 5848TIP3    H138959   3.671   6.009  16.128 -0.3988  1.2396 -1.3523
 5848TIP3    H238960   3.589   5.884  16.153  0.9393  0.5856 -0.1386
 5849TIP3   OH238961   0.229   3.206  16.137  0.1389 -0.2748 -0.7511
 5849TIP3    H138962   0.220   3.127  16.084  0.6891 -0.7158 -0.1993
 5849TIP3    H238963   0.141   3.242  16.142 -0.1565 -0.9760 -0.8298
 5850TIP3   OH238964   3.676   3.312  15.943  0.1013 -0.1320 -0.7435
 5850TIP3    H138965   3.756   3.264  15.923 -0.2858 -0.0801 -2.5046
 5850TIP3    H238966   3.702   3.404  15.942  0.4112 -0.1995  0.5847
 5851TIP3   OH238967   2.518   6.519   5.953  0.4388 -0.3553 -0.4584
 5851TIP3    H138968   2.580   6.562   5.895 -0.3146 -0.9049 -1.6994
 5851TIP3    H238969   2.565   6.507   6.036  1.6196  0.1726 -1.0538
 5852TIP3   OH238970   5.710   3.865  13.708  0.4672  0.7362  0.2191
 5852TIP3    H138971   5.626   3.835  13.744 -0.1577  1.9574 -0.2020
 5852TIP3    H238972   5.708   3.960  13.720  0.2168  1.1837 -3.0791
 5853TIP3   OH238973   1.807   1.056  12.224 -0.0057  0.9040 -0.3574
 5853TIP3    H138974   1.755   1.033  12.301  2.0225  1.0246  1.1159
 5853TIP3    H238975   1.767   1.137  12.191 -0.8009  0.9405  0.6755
 5854TIP3   OH238976   3.557   1.109   1.371  0.4559 -0.5017  0.3560
 5854TIP3    H138977   3.648   1.087   1.387  1.0041  0.7729 -0.9120
 5854TIP3    H238978   3.507   1.037   1.409  2.0824 -2.4072 -1.0420
 5855TIP3   OH238979   2.124   0.394  10.662 -0.4827  0.3442  0.2428
 5855TIP3    H138980   2.152   0.327  10.601  0.7397  0.6131  0.4927
 5855TIP3    H238981   2.170   0.473  10.634 -1.1098  0.8320  0.5702
 5856TIP3   OH238982   3.262   6.127   5.142  0.1765 -0.1349 -0.2841
 5856TIP3    H138983   3.188   6.075   5.109  0.4413 -0.9013  0.3097
 5856TIP3    H238984   3.299   6.169   5.064  0.4067 -1.4202 -0.8806
 5857TIP3   OH238985   1.116   3.097  11.407  0.6320  0.2433 -0.3215
 5857TIP3    H138986   1.121   3.002  11.394  1.5464  0.5492 -2.4485
 5857TIP3    H238987   1.160   3.112  11.491 -1.4395 -1.4050  1.1217
 5858TIP3   OH238988   0.381   5.381   4.395 -0.0595  0.0647 -0.1988
 5858TIP3    H138989   0.369   5.470   4.428 -1.1932  0.1925 -0.9586
 5858TIP3    H238990   0.301   5.362   4.346  1.1081 -0.5354 -1.9244
 5859TIP3   OH238991   2.624   4.536  11.757 -0.3195  0.1775 -0.4847
 5859TIP3    H138992   2.713   4.564  11.736 -0.3148  1.2044  0.8443
 5859TIP3    H238993   2.584   4.517  11.673  0.7560  0.9389 -1.1777
 5860TIP3   OH238994   0.573   6.519   0.856 -0.3234  0.5520  0.2061
 5860TIP3    H138995   0.654   6.467   0.859  0.3538  1.6359  1.5234
 5860TIP3    H238996   0.518   6.474   0.791  0.1589 -1.9241  1.4256
 5861TIP3   OH238997   1.033   4.423  14.097 -0.2126 -0.1604 -0.0740
 5861TIP3    H138998   1.061   4.381  14.178 -0.4275 -0.4256 -0.1405
 5861TIP3    H238999   0.965   4.484  14.124  1.2191  1.3369  0.2615
 5862TIP3   OH239000   5.014   3.085  13.852 -0.1000 -0.3287 -0.0725
 5862TIP3    H139001   4.946   3.039  13.903  0.4791 -0.0368  0.9806
 5862TIP3    H239002   5.080   3.018  13.834  0.1256 -0.2252  0.3507
 5863TIP3   OH239003   3.845   6.648  14.896  0.0679  0.4027  0.5210
 5863TIP3    H139004   3.780   6.639  14.966  0.8846  0.9579  1.3698
 5863TIP3    H239005   3.824   6.731  14.854  0.1027  0.4863  0.6668
 5864TIP3   OH239006   2.310   2.330   6.262  0.1177 -0.0600  0.3850
 5864TIP3    H139007   2.244   2.355   6.327 -0.0625  1.3912 -0.3537
 5864TIP3    H239008   2.390   2.375   6.291 -0.1064  1.0687 -0.7194
 5865TIP3   OH239009   3.340   4.623  11.169  0.2876 -0.1419 -0.6893
 5865TIP3    H139010   3.405   4.556  11.191  1.7083  2.0047  2.0446
 5865TIP3    H239011   3.265   4.603  11.226  0.2249 -0.1479 -0.7739
 5866TIP3   OH239012   4.601   0.694  14.166  0.6355  0.1083  0.4087
 5866TIP3    H139013   4.660   0.652  14.229  2.5066  0.3556 -1.1186
 5866TIP3    H239014   4.638   0.672  14.080 -1.4283  0.4090 -0.5951
 5867TIP3   OH239015   4.591   5.614  11.120 -0.2329 -0.0025 -0.2161
 5867TIP3    H139016   4.651   5.539  11.116 -1.2647 -0.8620  0.3719
 5867TIP3    H239017   4.567   5.630  11.029  4.3834  3.2460 -1.0782
 5868TIP3   OH239018   2.312   0.730   4.043 -0.2195 -0.1919 -0.2815
 5868TIP3    H139019   2.295   0.752   3.951 -0.1874 -0.1012 -0.2662
 5868TIP3    H239020   2.226   0.704   4.077 -0.1967 -0.4071 -0.3872
 5869TIP3   OH239021   4.961   4.641  12.319  0.2822 -0.0493 -0.1280
 5869TIP3    H139022   4.996   4.684  12.397  0.9607  0.3678 -0.6566
 5869TIP3    H239023   4.987   4.549  12.328  0.1697 -0.0480  0.2382
 5870TIP3   OH239024   4.141   4.234  16.135 -0.1637  0.1673 -0.3827
 5870TIP3    H139025   4.168   4.254  16.045 -0.4005  1.6988 -0.1236
 5870TIP3    H239026   4.122   4.140  16.134 -1.4148  0.4093 -2.2558
 5871TIP3   OH239027   6.273   5.544  16.909  0.8628 -0.1753 -0.0064
 5871TIP3    H139028   6.177   5.538  16.913  0.8279  0.3596  0.0215
 5871TIP3    H239029   6.290   5.610  16.841  1.1983  0.1693  0.4098
 5872TIP3   OH239030   4.847   5.694  16.928  0.1478  0.1922  0.4040
 5872TIP3    H139031   4.868   5.607  16.897 -2.5484 -0.8713  1.3579
 5872TIP3    H239032   4.891   5.701  17.013  0.3987 -0.2496  0.3061
 5873TIP3   OH239033   0.585   5.550  16.366 -0.1928  0.1371 -0.3308
 5873TIP3    H139034   0.578   5.483  16.298  1.6324  0.5756 -0.9657
 5873TIP3    H239035   0.565   5.503  16.448 -1.0809 -0.6819 -0.9990
 5874TIP3   OH239036   4.743   2.116  16.634 -0.3972  0.6117 -0.2288
 5874TIP3    H139037   4.664   2.094  16.584  0.2359  0.9521 -1.4024
 5874TIP3    H239038   4.718   2.103  16.725 -2.1262  1.7014 -0.5196
 5875TIP3   OH239039   2.745   3.918   5.300 -0.1811 -0.4742  0.0108
 5875TIP3    H139040   2.804   3.974   5.350  1.2246 -1.3532 -0.6612
 5875TIP3    H239041   2.690   3.876   5.366 -0.3764  0.6790  0.6035
 5876TIP3   OH239042   1.177   4.329  12.161  0.4676 -0.7744  0.0737
 5876TIP3    H139043   1.106   4.367  12.110  1.4756  1.7004  0.4194
 5876TIP3    H239044   1.144   4.328  12.251 -0.0288 -1.9148 -0.1187
 5877TIP3   OH239045   1.265   5.109  15.294 -0.3956  0.2122  0.3621
 5877TIP3    H139046   1.343   5.113  15.240  0.4211 -0.9130  1.4463
 5877TIP3    H239047   1.236   5.018  15.289  0.1759 -0.1127  2.4823
 5878TIP3   OH239048   3.046   4.186  17.101  0.8951 -0.1733  0.4335
 5878TIP3    H139049   2.983   4.256  17.114 -2.4337 -2.6265 -1.6807
 5878TIP3    H239050   3.084   4.170  17.187 -1.8250  0.9833  1.8754
 5879TIP3   OH239051   2.195   0.982  11.545 -0.0043  0.3013  0.0679
 5879TIP3    H139052   2.204   0.954  11.636  0.0196  0.5269  0.1344
 5879TIP3    H239053   2.231   1.070  11.543  0.2542  0.1888 -0.2216
 5880TIP3   OH239054   5.178   2.751   0.617  0.1405 -0.3996  0.3163
 5880TIP3    H139055   5.237   2.814   0.658 -1.4058  1.6569 -0.4841
 5880TIP3    H239056   5.095   2.762   0.664 -0.7879 -0.1861 -1.3288
 5881TIP3   OH239057   3.619   5.456   5.924  0.2471 -0.2008  0.2757
 5881TIP3    H139058   3.666   5.473   6.006  1.3879  0.8342 -0.5657
 5881TIP3    H239059   3.675   5.394   5.877  1.2516  1.6882 -1.1036
 5882TIP3   OH239060   1.525   5.003   4.996 -0.1119  0.2180  0.0178
 5882TIP3    H139061   1.544   5.095   5.014  1.6588 -0.1836  0.2846
 5882TIP3    H239062   1.514   4.998   4.901 -0.1121  0.6745 -0.0059
 5883TIP3   OH239063   5.127   6.770   2.854 -0.4528 -0.3114 -0.0906
 5883TIP3    H139064   5.143   6.676   2.856 -1.1708 -0.5961 -3.5538
 5883TIP3    H239065   5.213   6.810   2.866  0.0004 -1.4304  0.3984
 5884TIP3   OH239066   2.931   1.730   2.860  0.6350  1.0780  0.0739
 5884TIP3    H139067   2.870   1.723   2.786 -0.7474 -0.6794  1.3375
 5884TIP3    H239068   2.991   1.656   2.849 -1.3686 -0.9669  2.2390
 5885TIP3   OH239069   0.405   3.861   2.411  0.2190  0.1197 -0.2302
 5885TIP3    H139070   0.358   3.843   2.492  1.5549  0.4719  0.6391
 5885TIP3    H239071   0.337   3.886   2.348 -0.9312 -1.2501  0.4590
 5886TIP3   OH239072   5.486   0.256  11.757 -0.1640 -0.3964  0.2311
 5886TIP3    H139073   5.536   0.309  11.695 -1.3876  0.5247 -0.0093
 5886TIP3    H239074   5.461   0.318  11.826 -4.2854  0.1731 -1.6116
 5887TIP3   OH239075   5.861   5.902   5.673  0.0259  0.0705  0.0262
 5887TIP3    H139076   5.848   5.991   5.705  0.4683  0.0541  0.2664
 5887TIP3    H239077   5.955   5.897   5.653 -0.1209 -0.1287 -0.6390
 5888TIP3   OH239078   0.740   4.001   0.852 -0.0003  0.2565  0.7875
 5888TIP3    H139079   0.825   4.043   0.859  0.2385  0.4159 -2.1296
 5888TIP3    H239080   0.744   3.955   0.768 -2.6324 -0.0489  0.7966
 5889TIP3   OH239081   2.046   4.439  15.119 -0.6243  0.1175 -0.4370
 5889TIP3    H139082   2.124   4.397  15.156 -0.8120  0.0966 -0.0634
 5889TIP3    H239083   1.992   4.462  15.195 -0.8027  0.4911 -0.6712
 5890TIP3   OH239084   1.637   0.841   4.615 -0.7151  0.0827 -0.3545
 5890TIP3    H139085   1.589   0.758   4.612 -1.3548  0.4038  0.8469
 5890TIP3    H239086   1.581   0.903   4.569 -0.8956  0.1825  0.0016
 5891TIP3   OH239087   6.607   0.355  14.007 -0.3388  0.1122  0.3187
 5891TIP3    H139088   6.691   0.392  14.035 -0.0766  0.0680 -0.3992
 5891TIP3    H239089   6.563   0.426  13.961 -0.2182 -0.1903 -0.2756
 5892TIP3   OH239090   2.765   6.172   4.663 -0.0334 -0.1523 -0.3240
 5892TIP3    H139091   2.708   6.232   4.615 -1.0619 -1.1090 -0.3226
 5892TIP3    H239092   2.746   6.189   4.755  0.9526  0.7344 -0.2765
 5893TIP3   OH239093   6.673   4.504   5.053  0.0078  0.3244  0.0576
 5893TIP3    H139094   6.758   4.462   5.069 -0.5187  0.0544  2.2579
 5893TIP3    H239095   6.691   4.567   4.982  1.7920 -0.4719 -0.2300
 5894TIP3   OH239096   2.177   4.072   4.782 -0.6452 -0.0974 -0.2178
 5894TIP3    H139097   2.172   4.131   4.708 -0.3477 -1.4700 -1.3592
 5894TIP3    H239098   2.185   4.129   4.858  0.3425  1.2939 -1.3445
 5895TIP3   OH239099   1.682   1.486   6.215  0.6103  0.0707  0.2205
 5895TIP3    H139100   1.706   1.460   6.304  1.9960 -0.6261 -0.3516
 5895TIP3    H239101   1.635   1.410   6.179 -1.5134  0.9904  0.9278
 5896TIP3   OH239102   1.798   3.911  12.259  0.0852  0.1842 -0.5357
 5896TIP3    H139103   1.740   3.962  12.315 -0.3540  0.4859 -1.2596
 5896TIP3    H239104   1.870   3.971  12.238 -0.1323  0.3140 -0.9077
 5897TIP3   OH239105   4.905   5.401  12.231 -0.5369  0.2149 -0.6023
 5897TIP3    H139106   4.889   5.469  12.297  0.4414  0.2890 -0.4412
 5897TIP3    H239107   4.983   5.430  12.185  0.6803 -1.4686  0.3523
 5898TIP3   OH239108   0.139   0.973   2.241 -0.3010  0.5721 -0.0537
 5898TIP3    H139109   0.166   0.991   2.331  0.6403  0.2223 -0.2547
 5898TIP3    H239110   0.142   0.877   2.234  1.6245  0.6883 -1.0382
 5899TIP3   OH239111   5.232   4.636  11.971 -0.3728  0.0140 -0.7470
 5899TIP3    H139112   5.229   4.731  11.956  1.2697 -0.2635 -3.0515
 5899TIP3    H239113   5.214   4.597  11.886  2.2114 -1.7284 -0.5393
 5900TIP3   OH239114   5.786   2.272  14.049 -0.7722  0.2502  0.3506
 5900TIP3    H139115   5.719   2.259  14.117 -0.3579  0.3712  0.7803
 5900TIP3    H239116   5.836   2.348  14.078  0.1971 -0.4592  0.5499
 5901TIP3   OH239117   3.678   1.270   4.167  0.4252  0.4378 -0.1885
 5901TIP3    H139118   3.688   1.234   4.255 -0.4607 -0.0665 -0.2841
 5901TIP3    H239119   3.674   1.364   4.180  0.1057  0.3576  0.3377
 5902TIP3   OH239120   4.513   3.642  13.232 -0.4425  0.1353  0.0100
 5902TIP3    H139121   4.570   3.631  13.307 -0.9783 -0.4863  0.3355
 5902TIP3    H239122   4.561   3.700  13.173  0.0192  0.5437  0.7859
 5903TIP3   OH239123   3.361   5.132   3.154 -0.3951  0.6131 -0.7693
 5903TIP3    H139124   3.360   5.162   3.063 -2.0193  0.7912 -0.7026
 5903TIP3    H239125   3.274   5.153   3.187  0.1273  0.3867  0.7814
 5904TIP3   OH239126   3.073   2.769   0.961  0.0863 -0.2202  0.2223
 5904TIP3    H139127   3.081   2.726   0.876  1.3986  0.8642 -0.2079
 5904TIP3    H239128   2.986   2.744   0.992 -0.4650 -0.5045 -1.5041
 5905TIP3   OH239129   2.139   1.543  15.429 -0.0837 -0.0595  0.0268
 5905TIP3    H139130   2.171   1.616  15.482  0.9994 -0.5734  0.1076
 5905TIP3    H239131   2.179   1.556  15.343  0.7992 -1.0152  0.2872
 5906TIP3   OH239132   3.768   2.416  16.781 -0.4119  0.2760  1.1500
 5906TIP3    H139133   3.766   2.496  16.729 -0.4518  0.5367  1.5528
 5906TIP3    H239134   3.677   2.386  16.783 -0.4628  0.4361  1.3254
 5907TIP3   OH239135   4.207   3.773  13.433  0.1923 -0.1875  0.3107
 5907TIP3    H139136   4.253   3.840  13.383 -0.7536 -0.7462 -1.3675
 5907TIP3    H239137   4.277   3.720  13.472  0.9522  0.2443 -0.4468
 5908TIP3   OH239138   2.983   0.583  14.903 -0.2149 -0.1405 -0.0945
 5908TIP3    H139139   2.903   0.589  14.955 -1.0077  0.3714 -1.3393
 5908TIP3    H239140   3.053   0.580  14.967 -1.2399 -0.7563  1.0241
 5909TIP3   OH239141   2.798   5.021   2.966 -0.5041  0.1848  0.4726
 5909TIP3    H139142   2.864   4.967   2.923 -0.4333  0.3317  0.3969
 5909TIP3    H239143   2.761   4.964   3.034 -1.1742 -0.3009 -0.2982
 5910TIP3   OH239144   0.957   1.111   1.210  0.1583  0.4227 -0.4174
 5910TIP3    H139145   0.870   1.148   1.218 -0.3739 -1.0519  0.8810
 5910TIP3    H239146   0.977   1.117   1.116 -1.0379  1.4164 -0.6164
 5911TIP3   OH239147   4.614   0.671  14.641  0.0009  0.5254 -0.0099
 5911TIP3    H139148   4.521   0.648  14.633 -0.0772  0.6042  0.6855
 5911TIP3    H239149   4.639   0.700  14.553 -0.3975 -0.3617 -0.4243
 5912TIP3   OH239150   4.104   3.638  15.728 -0.1922  0.8799  0.3430
 5912TIP3    H139151   4.060   3.556  15.705  0.5130  0.1440  1.5889
 5912TIP3    H239152   4.169   3.613  15.794  1.1469  2.1696 -0.4533
 5913TIP3   OH239153   1.517   4.415   5.172  0.2185  0.3644  0.2712
 5913TIP3    H139154   1.467   4.333   5.176  0.0358  0.1414 -3.9574
 5913TIP3    H239155   1.605   4.388   5.148  0.6087  1.2686  0.6756
 5914TIP3   OH239156   3.022   5.041  16.884 -0.2161 -0.8772 -0.4476
 5914TIP3    H139157   3.023   5.104  16.813  1.1560 -0.7494 -0.3288
 5914TIP3    H239158   2.995   4.958  16.843 -0.2138 -0.6271 -0.9489
 5915TIP3   OH239159   2.267   3.413   3.847 -0.3867  0.1835 -0.3896
 5915TIP3    H139160   2.242   3.483   3.907 -1.1223  0.2816 -0.8076
 5915TIP3    H239161   2.315   3.351   3.902  3.0493  2.4785 -0.6162
 5916TIP3   OH239162   0.015   0.492  14.725 -0.0815 -0.3514 -0.3785
 5916TIP3    H139163   0.071   0.415  14.721  1.6858  0.8776  0.1552
 5916TIP3    H239164   0.062   0.554  14.780 -1.4998  1.1029 -0.7378
 5917TIP3   OH239165   2.011   2.935   0.049 -0.1419  0.5795 -0.3707
 5917TIP3    H139166   2.028   2.935  -0.045  0.9105  0.2170 -0.1819
 5917TIP3    H239167   1.948   3.006   0.061  1.6826  2.3627 -1.0063
 5918TIP3   OH239168   3.482   3.362   2.898 -0.1865 -0.7308 -0.2508
 5918TIP3    H139169   3.532   3.283   2.878  0.3074 -0.4147 -0.2664
 5918TIP3    H239170   3.466   3.403   2.813  0.8431 -0.0372 -0.1167
 5919TIP3   OH239171   1.074   6.430  13.080 -0.0216 -0.2150  0.4686
 5919TIP3    H139172   1.044   6.513  13.043 -1.9423 -1.3533 -0.5443
 5919TIP3    H239173   1.159   6.414  13.038 -0.7370  0.0686 -1.0791
 5920TIP3   OH239174   3.728   1.937   4.396 -0.0448  0.7055  0.0641
 5920TIP3    H139175   3.794   1.881   4.438  1.9865  2.8827 -0.1371
 5920TIP3    H239176   3.774   1.978   4.323 -2.9683 -1.3942 -3.1222
 5921TIP3   OH239177   5.214   2.971  17.037 -0.2905  0.1208  0.6661
 5921TIP3    H139178   5.127   3.004  17.061 -1.2021 -1.6338 -0.1488
 5921TIP3    H239179   5.252   3.040  16.983 -1.7423  0.3246 -0.1155
 5922TIP3   OH239180   0.217   2.833  11.467 -0.7595  0.2883 -0.1284
 5922TIP3    H139181   0.167   2.776  11.408  0.0754 -0.2175 -0.3538
 5922TIP3    H239182   0.251   2.902  11.410  1.1873 -0.9499 -0.5103
 5923TIP3   OH239183   2.638   1.979   1.983  0.5761 -0.5474 -0.1814
 5923TIP3    H139184   2.637   1.946   1.893  0.3879 -1.2504  0.0797
 5923TIP3    H239185   2.731   1.989   2.004  0.6448 -1.2483 -0.1381
 5924TIP3   OH239186   3.477   5.719  15.764  0.7383  0.3474 -0.0196
 5924TIP3    H139187   3.448   5.697  15.675  2.6557  0.5095 -0.6997
 5924TIP3    H239188   3.451   5.810  15.776  0.7117  0.4055 -0.5176
 5925TIP3   OH239189   4.171   2.019  12.012 -0.1904 -0.1652 -0.2804
 5925TIP3    H139190   4.216   1.990  11.933 -0.1391  0.6496 -0.5583
 5925TIP3    H239191   4.221   1.981  12.084 -0.2292 -0.9044 -0.6348
 5926TIP3   OH239192   2.348   6.758   3.061  0.2840  0.3455  0.3164
 5926TIP3    H139193   2.306   6.719   2.984  1.1860  1.8394 -0.9710
 5926TIP3    H239194   2.357   6.685   3.122 -0.1403 -0.9711 -1.1360
 5927TIP3   OH239195   2.663   4.891   1.925  0.0090 -0.6056 -0.3717
 5927TIP3    H139196   2.712   4.812   1.902 -0.3534 -0.4749 -1.6255
 5927TIP3    H239197   2.690   4.910   2.015  1.5587 -1.0556 -0.7234
 5928TIP3   OH239198   3.173   2.356   0.306  0.2058  0.5452  0.7738
 5928TIP3    H139199   3.223   2.414   0.249  0.3673 -0.1578  0.1974
 5928TIP3    H239200   3.228   2.345   0.384  0.6379  0.3177  0.4350
 5929TIP3   OH239201   5.488   2.031  16.452 -0.0159  0.5523  0.2900
 5929TIP3    H139202   5.581   2.014  16.460 -0.1917  0.0268  1.2735
 5929TIP3    H239203   5.463   1.993  16.368  0.4480 -0.2239  0.5108
 5930TIP3   OH239204   3.191   0.026   1.783  0.2901  0.1948 -0.1968
 5930TIP3    H139205   3.208  -0.065   1.759  0.9627 -0.2806  2.0049
 5930TIP3    H239206   3.123   0.021   1.850 -0.8806  1.4373 -1.2563
 5931TIP3   OH239207   5.256   2.257   0.696  0.0405  0.4617 -0.7214
 5931TIP3    H139208   5.327   2.217   0.746 -0.5674 -0.9034 -0.9276
 5931TIP3    H239209   5.215   2.318   0.758  0.2600 -0.0807 -0.0356
 5932TIP3   OH239210   0.761   4.595  11.029 -0.2236 -0.1670 -0.1878
 5932TIP3    H139211   0.802   4.591  11.115 -0.5492 -2.1685 -0.1052
 5932TIP3    H239212   0.705   4.673  11.032 -0.0910 -0.1289  1.3382
 5933TIP3   OH239213   2.832   1.025   6.510  0.2970  0.4240  0.4851
 5933TIP3    H139214   2.819   1.117   6.533 -1.5092  0.1344  0.6645
 5933TIP3    H239215   2.921   1.005   6.540  1.4410  2.6190 -1.2696
 5934TIP3   OH239216   5.548   0.683   0.152  0.2702 -0.5851  0.2112
 5934TIP3    H139217   5.508   0.630   0.083  1.0341 -1.2214  0.2520
 5934TIP3    H239218   5.608   0.624   0.197  2.3324  0.6968 -0.7423
 5935TIP3   OH239219   4.354   2.243  15.552  0.3525  0.2177  0.3330
 5935TIP3    H139220   4.432   2.200  15.517  1.0270  2.3683 -0.9066
 5935TIP3    H239221   4.280   2.197  15.511  0.9825 -1.1591  0.7289
 5936TIP3   OH239222   2.348   1.213  13.044  0.7644 -0.0348  0.1844
 5936TIP3    H139223   2.265   1.200  13.090  2.0303  2.2780  3.2591
 5936TIP3    H239224   2.348   1.306  13.021  2.2151 -0.1745 -0.4015
 5937TIP3   OH239225   3.555   0.550  14.131  0.2019  0.0583 -0.6146
 5937TIP3    H139226   3.469   0.509  14.144  1.1621 -1.4649  1.3013
 5937TIP3    H239227   3.537   0.627  14.077 -2.1309 -1.1074 -1.5998
 5938TIP3   OH239228   6.230   0.874   0.674 -0.1694  0.1125  0.7846
 5938TIP3    H139229   6.207   0.942   0.611 -0.2633 -0.7085 -0.0748
 5938TIP3    H239230   6.199   0.793   0.634 -0.9025 -0.3360  2.2314
 5939TIP3   OH239231   1.459   4.530  16.335  0.7088 -0.4126  0.2798
 5939TIP3    H139232   1.459   4.451  16.282  1.1381 -0.0316 -0.2828
 5939TIP3    H239233   1.403   4.592  16.288  1.1391 -0.0539  0.2289
 5940TIP3   OH239234   4.144   3.675   1.228 -0.0050  0.1902 -0.1479
 5940TIP3    H139235   4.205   3.620   1.179  0.5748  1.5903 -1.0458
 5940TIP3    H239236   4.153   3.762   1.187 -1.6239  0.7118  0.5828
 5941TIP3   OH239237   3.090   1.138   1.505 -0.1866 -0.4553  0.7949
 5941TIP3    H139238   3.002   1.111   1.531 -0.9470 -0.0037 -1.2638
 5941TIP3    H239239   3.087   1.233   1.504  0.5488 -0.4180  1.3893
 5942TIP3   OH239240   3.140   6.694   3.195  0.0330 -0.4588 -0.1385
 5942TIP3    H139241   3.060   6.735   3.161 -0.6036 -1.2412  0.4111
 5942TIP3    H239242   3.113   6.655   3.277  0.7590 -1.5830 -0.4332
 5943TIP3   OH239243   2.713   5.212  14.731  0.3442 -0.2512  0.4072
 5943TIP3    H139244   2.772   5.136  14.731  1.5917  0.7061 -0.2514
 5943TIP3    H239245   2.760   5.278  14.781 -0.4252  0.3254  0.3652
 5944TIP3   OH239246   1.023   2.457   0.157  0.1897 -0.1637  0.3314
 5944TIP3    H139247   1.079   2.380   0.151  0.6485  0.0590  1.5092
 5944TIP3    H239248   1.043   2.494   0.243  0.7462  1.8764 -0.6497
 5945TIP3   OH239249   5.250   5.974  13.481 -0.0405  0.0206  0.4448
 5945TIP3    H139250   5.295   6.058  13.469 -0.0049 -0.1736 -0.8412
 5945TIP3    H239251   5.299   5.913  13.426  0.4090 -1.0265  1.9726
 5946TIP3   OH239252   0.352   3.484  16.809  0.9063  0.6850  0.1701
 5946TIP3    H139253   0.411   3.518  16.876  1.4618 -0.6178  0.3574
 5946TIP3    H239254   0.266   3.519  16.832  0.8505 -0.8058  2.3196
 5947TIP3   OH239255   3.447   5.217   2.895  0.6596 -0.6504 -0.0914
 5947TIP3    H139256   3.516   5.272   2.932 -0.8825 -0.0169  1.9783
 5947TIP3    H239257   3.405   5.272   2.829 -0.5028  0.4856  1.5631
 5948TIP3   OH239258   1.349   1.675  15.087  0.0446  0.4804  0.4413
 5948TIP3    H139259   1.403   1.753  15.103  0.7253  0.1684 -0.2901
 5948TIP3    H239260   1.304   1.694  15.005  0.6464 -0.1206 -0.0360
 5949TIP3   OH239261   1.533   0.702  16.393 -0.1955 -0.5334  0.1523
 5949TIP3    H139262   1.614   0.746  16.417 -0.7704 -0.0035  1.1965
 5949TIP3    H239263   1.553   0.608  16.401 -0.0829 -0.3838  1.7956
 5950TIP3   OH239264   0.005   5.873  11.532 -0.1123  0.2409  0.2104
 5950TIP3    H139265  -0.033   5.904  11.615 -0.6470 -0.0043  0.0553
 5950TIP3    H239266   0.045   5.789  11.554  1.0756  0.8911  0.5607
 5951TIP3   OH239267   6.739   1.988   5.039  0.2110 -0.2059 -0.1727
 5951TIP3    H139268   6.773   1.990   5.129  0.1585  1.4267 -0.1831
 5951TIP3    H239269   6.656   2.035   5.044 -0.2616 -0.9413 -0.9050
 5952TIP3   OH239270   3.469   1.908   4.948 -0.3517  0.3715 -0.1722
 5952TIP3    H139271   3.407   1.962   4.899 -1.3811 -0.3170  0.3540
 5952TIP3    H239272   3.441   1.917   5.039 -1.5067 -2.2423 -0.2170
 5953TIP3   OH239273   2.778   5.937  17.096  0.0216  0.4056  0.0375
 5953TIP3    H139274   2.862   5.982  17.096  0.8326 -1.0641  0.3418
 5953TIP3    H239275   2.726   5.983  17.162 -0.1029  2.5157 -1.4751
 5954TIP3   OH239276   0.444   5.561  15.141 -0.6559 -0.1905 -0.2339
 5954TIP3    H139277   0.366   5.571  15.195 -0.9866 -1.1223 -0.5275
 5954TIP3    H239278   0.489   5.485  15.178 -0.6467 -0.5551 -0.9797
 5955TIP3   OH239279   1.344   5.945   4.601  0.0019 -0.8897 -0.4225
 5955TIP3    H139280   1.307   5.894   4.529 -1.2581 -0.6527  0.0341
 5955TIP3    H239281   1.268   5.970   4.654  0.8084 -0.2195  0.4413
 5956TIP3   OH239282   6.092   2.080  12.858 -0.3648  0.8154 -0.2631
 5956TIP3    H139283   6.112   1.995  12.896  1.6449  1.2695 -0.2307
 5956TIP3    H239284   6.055   2.131  12.930 -1.0316  0.1604 -0.1384
 5957TIP3   OH239285   4.958   6.761   5.215  0.2664 -0.0510 -0.3062
 5957TIP3    H139286   4.892   6.803   5.271  1.3787  0.9632  0.2808
 5957TIP3    H239287   4.932   6.786   5.126 -2.0876 -2.4979 -0.3650
 5958TIP3   OH239288   1.883   5.230  13.302 -0.0692 -0.2771  0.2673
 5958TIP3    H139289   1.857   5.216  13.211 -0.6787 -0.5402  0.4789
 5958TIP3    H239290   1.976   5.250  13.298 -0.4469  1.3840 -0.5665
 5959TIP3   OH239291   4.474   5.356  16.795 -0.2439  0.0299  0.5906
 5959TIP3    H139292   4.550   5.397  16.753  0.4511 -1.3134  0.5011
 5959TIP3    H239293   4.445   5.291  16.731 -2.0456  1.1501  0.2364
 5960TIP3   OH239294   3.634   0.555   6.060 -0.2030 -0.0275 -0.0637
 5960TIP3    H139295   3.722   0.592   6.054 -0.3688  0.1113 -1.7708
 5960TIP3    H239296   3.644   0.481   6.120  0.6637  1.1824  1.3122
 5961TIP3   OH239297   5.801   2.376  10.842  0.5053 -0.0163  0.2459
 5961TIP3    H139298   5.802   2.431  10.920 -2.5506  1.6727 -0.7898
 5961TIP3    H239299   5.737   2.308  10.863 -0.9039  0.8916 -1.0250
 5962TIP3   OH239300   5.763   0.005  15.736  0.7762 -0.5636 -0.0441
 5962TIP3    H139301   5.818   0.025  15.811  1.0643  0.8336 -0.6166
 5962TIP3    H239302   5.738  -0.087  15.748  2.3021 -0.8811  0.8010
 5963TIP3   OH239303   5.876   0.694  11.013 -0.2581  0.4296  0.5622
 5963TIP3    H139304   5.842   0.772  10.970 -0.8222  1.5893  3.0029
 5963TIP3    H239305   5.798   0.653  11.053  0.0698 -1.2458 -0.4355
 5964TIP3   OH239306   2.883   6.103   1.872  0.1778  0.2247 -0.0245
 5964TIP3    H139307   2.797   6.143   1.864  0.6796  1.4530  0.5736
 5964TIP3    H239308   2.883   6.032   1.808 -0.8333  1.0194 -0.9189
 5965TIP3   OH239309   6.380   2.414   1.303  0.2800 -0.2043  0.7765
 5965TIP3    H139310   6.452   2.422   1.240 -0.0375 -1.7380  0.1970
 5965TIP3    H239311   6.393   2.327   1.343 -0.0495  0.3740  2.1789
 5966TIP3   OH239312   5.555   5.864  14.771 -0.0028  0.6668  0.3123
 5966TIP3    H139313   5.640   5.900  14.744  0.9411 -1.1429  0.8424
 5966TIP3    H239314   5.535   5.798  14.704 -1.3551  1.6006 -0.2206
 5967TIP3   OH239315   3.595   1.317  15.791 -0.8066  0.4663 -0.6203
 5967TIP3    H139316   3.511   1.280  15.764 -0.8737 -0.4396  0.7757
 5967TIP3    H239317   3.615   1.274  15.874  0.6705  1.2389 -0.5497
 5968TIP3   OH239318   6.199   0.776   4.186  0.1540 -0.9338 -0.4058
 5968TIP3    H139319   6.244   0.858   4.165  2.0316 -1.6530  0.6607
 5968TIP3    H239320   6.106   0.798   4.183  0.6625  1.8212  2.0848
 5969TIP3   OH239321   6.339   0.630   2.494 -0.7454  0.3079 -0.1317
 5969TIP3    H139322   6.334   0.662   2.403 -0.8896  1.4952  0.2893
 5969TIP3    H239323   6.248   0.613   2.517 -0.9128  1.8904  0.4446
 5970TIP3   OH239324   0.364   3.331   0.373  0.0978  0.4950  0.1002
 5970TIP3    H139325   0.342   3.273   0.300  1.7707  0.3429 -0.3193
 5970TIP3    H239326   0.345   3.280   0.451 -0.3352  0.1119 -0.2548
 5971TIP3   OH239327   6.737   2.863  12.185  0.5301 -0.3642 -0.7150
 5971TIP3    H139328   6.780   2.894  12.105 -1.1714  0.7709 -1.2329
 5971TIP3    H239329   6.644   2.861  12.162  0.1930 -1.7500  0.6958
 5972TIP3   OH239330   3.947   2.543  12.320  0.4859 -0.2043 -0.8004
 5972TIP3    H139331   3.900   2.462  12.298  0.4390 -1.4203  3.2882
 5972TIP3    H239332   4.035   2.513  12.346  0.6881  1.1047  0.0800
 5973TIP3   OH239333   1.077   4.484   4.013  0.5618 -0.7283 -0.1998
 5973TIP3    H139334   1.009   4.482   4.080 -0.0193  0.3048 -0.7475
 5973TIP3    H239335   1.091   4.392   3.991 -1.5710 -0.8985 -0.9888
 5974TIP3   OH239336   6.491   2.665  11.541  0.1618 -0.1434  0.1973
 5974TIP3    H139337   6.461   2.753  11.565  0.7410  0.0990  0.0449
 5974TIP3    H239338   6.585   2.675  11.527  0.2979 -0.8705  0.5663
 5975TIP3   OH239339   5.202   4.316   3.213  0.1369  0.3689  0.3909
 5975TIP3    H139340   5.199   4.316   3.309  0.5303 -2.7324  0.4376
 5975TIP3    H239341   5.126   4.264   3.186 -0.7935  2.4042 -1.0654
 5976TIP3   OH239342   0.537   6.527  15.694  0.6641  0.0756 -0.0926
 5976TIP3    H139343   0.590   6.480  15.630  1.0855  0.7003 -0.2043
 5976TIP3    H239344   0.452   6.481  15.694  0.6595  0.0906 -1.0981
 5977TIP3   OH239345   4.988   1.185   5.652  0.3462  0.3618  0.3640
 5977TIP3    H139346   5.075   1.219   5.633  1.0922 -0.3971  2.2446
 5977TIP3    H239347   5.004   1.110   5.709 -1.5230 -0.0902  0.3270
 5978TIP3   OH239348   2.139   0.562  12.546  0.0065 -0.9503 -0.3616
 5978TIP3    H139349   2.160   0.532  12.458  0.2769 -1.7101 -0.0519
 5978TIP3    H239350   2.131   0.481  12.597  2.5063 -0.4449  0.8947
 5979TIP3   OH239351   1.623   4.329   4.610  0.5919 -0.1025  0.2026
 5979TIP3    H139352   1.553   4.388   4.639  0.9254  1.4557 -2.0072
 5979TIP3    H239353   1.578   4.262   4.558  0.5804 -0.0062  0.0905
 5980TIP3   OH239354   3.108   5.540   2.051 -0.1434  0.1421  0.3115
 5980TIP3    H139355   3.046   5.495   2.108 -2.4349  2.9389  0.1556
 5980TIP3    H239356   3.137   5.616   2.103  0.4848  0.7403 -0.8961
 5981TIP3   OH239357   0.890   6.058   5.689 -0.0895  0.7428 -0.4528
 5981TIP3    H139358   0.884   6.142   5.643 -2.2082  0.3329 -0.9566
 5981TIP3    H239359   0.946   6.004   5.633  1.7865  1.9763  0.1669
 5982TIP3   OH239360   1.706   2.528  15.225  0.3496  0.2700 -0.0663
 5982TIP3    H139361   1.699   2.433  15.239 -0.0759  0.2211 -0.6002
 5982TIP3    H239362   1.790   2.551  15.262  0.1575 -0.2104  0.6821
 5983TIP3   OH239363   2.651   3.476  13.825  0.1912  0.4499  0.3625
 5983TIP3    H139364   2.666   3.559  13.871  2.1138 -0.1149  0.8062
 5983TIP3    H239365   2.718   3.475  13.757 -1.2081  0.2377 -1.0474
 5984TIP3   OH239366   0.332   4.563  14.458  0.1008 -0.1469 -0.4964
 5984TIP3    H139367   0.377   4.639  14.422  0.2770 -0.1788 -0.3416
 5984TIP3    H239368   0.336   4.497  14.389  1.1518 -0.4918 -0.1117
 5985TIP3   OH239369   1.941   5.701  13.807 -0.1592  0.1205 -0.0911
 5985TIP3    H139370   2.026   5.657  13.806 -0.3497 -0.2540 -1.3775
 5985TIP3    H239371   1.922   5.717  13.714 -0.9443  1.2623  0.2572
 5986TIP3   OH239372   1.947   0.092   0.882  0.2776  0.5055  0.0092
 5986TIP3    H139373   1.978   0.157   0.945 -1.3142 -0.1124  1.4847
 5986TIP3    H239374   2.026   0.045   0.856  1.1419  1.6228  0.5768
 5987TIP3   OH239375   5.150   1.477  16.310 -0.2056  0.2133 -0.4660
 5987TIP3    H139376   5.060   1.478  16.342 -0.1938  1.4836 -0.4447
 5987TIP3    H239377   5.198   1.532  16.371  0.2334  0.9745 -1.4718
 5988TIP3   OH239378   4.255   0.659  14.262  0.2101  0.0449 -0.5904
 5988TIP3    H139379   4.291   0.593  14.202  1.6992  0.0647  0.2395
 5988TIP3    H239380   4.284   0.742  14.226  1.6140  0.0300  0.4362
 5989TIP3   OH239381   2.593   6.558   2.312  0.0204  0.0679  0.9186
 5989TIP3    H139382   2.664   6.567   2.376  1.4618 -0.1048 -0.6159
 5989TIP3    H239383   2.571   6.465   2.315  2.0372 -0.5026 -0.8255
 5990TIP3   OH239384   2.744   6.337  12.573  0.0687 -0.2408 -0.1288
 5990TIP3    H139385   2.817   6.309  12.518  0.8929 -0.2396  0.9608
 5990TIP3    H239386   2.696   6.400  12.519  1.6570  0.8077 -0.3315
 5991TIP3   OH239387   4.846   1.017   4.733 -1.0089 -0.4348  0.2843
 5991TIP3    H139388   4.807   1.066   4.806 -0.3649  1.8372 -0.8383
 5991TIP3    H239389   4.936   1.051   4.728 -1.3529  0.1809 -2.2034
 5992TIP3   OH239390   1.007   5.936   3.135  0.2578 -0.2896  0.1786
 5992TIP3    H139391   1.069   6.001   3.168 -1.0973  0.9066  0.3742
 5992TIP3    H239392   1.056   5.854   3.137  2.1035  0.7602 -0.3914
 5993TIP3   OH239393   2.418   3.163   3.896 -0.3593  0.0907  0.1028
 5993TIP3    H139394   2.395   3.097   3.961  1.1503 -0.6468 -0.0880
 5993TIP3    H239395   2.508   3.143   3.873 -0.8555  0.3753 -2.1896
 5994TIP3   OH239396   1.549   0.798  12.296  0.6800 -0.2057 -0.3316
 5994TIP3    H139397   1.509   0.859  12.234  0.3649 -0.3284 -0.2465
 5994TIP3    H239398   1.563   0.850  12.375 -2.5418 -1.0312  0.8762
 5995TIP3   OH239399   1.375   6.780  16.822  0.6008  0.1127 -0.5748
 5995TIP3    H139400   1.464   6.804  16.849  0.5361  1.4469 -1.5081
 5995TIP3    H239401   1.383   6.690  16.790  1.5736  0.1589 -0.4713
 5996TIP3   OH239402   5.141   3.745   5.552  0.0494 -0.0771 -0.5889
 5996TIP3    H139403   5.110   3.657   5.529 -1.3914  0.2814 -0.1048
 5996TIP3    H239404   5.223   3.755   5.504 -0.3884 -1.2238 -1.6059
 5997TIP3   OH239405   4.488   5.831  10.893  0.2695  0.3853  0.0784
 5997TIP3    H139406   4.561   5.772  10.874 -0.7317 -1.7098  2.4165
 5997TIP3    H239407   4.412   5.774  10.901 -0.7175  1.9242  2.5744
 5998TIP3   OH239408   5.587   3.205   3.570 -0.0647 -0.3564 -0.4607
 5998TIP3    H139409   5.517   3.146   3.543  0.5247 -0.8614 -0.9319
 5998TIP3    H239410   5.667   3.153   3.560  0.5561  0.8039 -1.7974
 5999TIP3   OH239411   3.501   0.490   4.205  0.2734 -0.0501  0.6065
 5999TIP3    H139412   3.486   0.440   4.285 -0.2152 -0.9213 -0.0249
 5999TIP3    H239413   3.517   0.424   4.137 -1.1545  0.6055 -0.3907
 6000TIP3   OH239414   0.204   2.504  16.846  0.1951 -0.0947 -0.3145
 6000TIP3    H139415   0.228   2.533  16.935  0.3871 -2.6306  0.4964
 6000TIP3    H239416   0.158   2.421  16.860  1.8849 -1.4702 -2.6988
 6001TIP3   OH239417   2.176   0.668  14.835 -0.0350 -0.8969  0.0799
 6001TIP3    H139418   2.205   0.577  14.840  2.2696 -0.1819 -0.0437
 6001TIP3    H239419   2.167   0.695  14.927 -0.4936 -1.1646  0.1162
 6002TIP3   OH239420   6.552   4.197   3.736  0.8300 -0.6494 -0.6756
 6002TIP3    H139421   6.558   4.252   3.814  0.3214 -0.7802 -0.5413
 6002TIP3    H239422   6.475   4.142   3.751  0.8363 -0.8038 -1.1902
 6003TIP3   OH239423   4.327   0.406   2.945  0.2394  0.0950  0.9753
 6003TIP3    H139424   4.415   0.440   2.962  0.2090 -0.4904  2.4219
 6003TIP3    H239425   4.274   0.441   3.017 -0.6241  0.1517  0.3127
 6004TIP3   OH239426   4.533   0.574  13.267 -0.4149 -0.3397 -0.1478
 6004TIP3    H139427   4.509   0.653  13.219 -0.7414 -0.0826  0.4394
 6004TIP3    H239428   4.452   0.523  13.271 -0.6495  0.1067  1.0204
 6005TIP3   OH239429   4.206   3.632   2.964 -0.3774 -0.2813  0.2603
 6005TIP3    H139430   4.211   3.676   3.048 -1.1661  0.5721 -0.1387
 6005TIP3    H239431   4.277   3.670   2.912  0.6585 -1.4176  0.8105
 6006TIP3   OH239432   0.367   5.785  12.788  0.4659 -0.1592  0.2945
 6006TIP3    H139433   0.355   5.873  12.822 -1.1499 -0.2971  0.1393
 6006TIP3    H239434   0.370   5.729  12.866  1.0544 -0.0132  0.3754
 6007TIP3   OH239435   6.669   2.713   0.166 -0.2381 -0.3076 -0.0744
 6007TIP3    H139436   6.574   2.714   0.164 -0.2912 -0.9016  1.5176
 6007TIP3    H239437   6.696   2.772   0.095 -1.7847  0.9908  0.4106
 6008TIP3   OH239438   0.786   6.219  14.821 -0.8590  0.0647  0.2162
 6008TIP3    H139439   0.770   6.179  14.736 -1.4464 -0.5500  0.6051
 6008TIP3    H239440   0.816   6.146  14.877 -0.7795  0.3968  0.6118
 6009TIP3   OH239441   4.887   2.800   1.987 -0.0526 -0.2402  0.0727
 6009TIP3    H139442   4.943   2.767   2.058 -0.4042  1.0858  0.9833
 6009TIP3    H239443   4.940   2.867   1.944  0.4155 -1.5062 -1.3661
 6010TIP3   OH239444   2.376   0.181   2.525  0.2082  0.0423  0.3152
 6010TIP3    H139445   2.425   0.164   2.605  0.4142 -0.1385  0.1511
 6010TIP3    H239446   2.442   0.184   2.456  0.1177  0.9510  0.2595
 6011TIP3   OH239447   5.187   2.154   2.829 -0.3588  0.0512 -0.0378
 6011TIP3    H139448   5.165   2.137   2.920  1.2344 -0.3723  0.2836
 6011TIP3    H239449   5.282   2.154   2.826 -0.3671 -1.7038 -2.0082
 6012TIP3   OH239450   2.423   6.761  11.350 -0.0988 -0.4269  0.2368
 6012TIP3    H139451   2.404   6.716  11.432 -0.3754 -0.1433  0.3289
 6012TIP3    H239452   2.349   6.822  11.338  1.2405  1.4111  1.1211
 6013TIP3   OH239453   0.075   6.760   4.828  0.3944  0.3405 -0.6888
 6013TIP3    H139454   0.034   6.763   4.915  0.1782  3.7488 -0.8422
 6013TIP3    H239455   0.001   6.756   4.767  0.5597 -3.2123 -0.7625
 6014TIP3   OH239456   1.183   2.159   5.415  0.9927  0.6920 -0.1523
 6014TIP3    H139457   1.213   2.250   5.413  0.5282  0.8588  0.3536
 6014TIP3    H239458   1.208   2.128   5.502  2.4737 -0.1261 -0.8408
 6015TIP3   OH239459   0.137   3.228   4.018 -0.2210 -0.1189  0.0244
 6015TIP3    H139460   0.140   3.283   4.096  0.5203 -0.0861 -0.0188
 6015TIP3    H239461   0.220   3.181   4.018  0.5529  1.1769 -1.6485
 6016TIP3   OH239462   5.860   1.572  17.088 -0.4362  0.2437 -0.4747
 6016TIP3    H139463   5.878   1.528  17.171 -0.1417  1.1245 -0.0701
 6016TIP3    H239464   5.770   1.604  17.097 -0.6022 -0.1370 -0.7192
 6017TIP3   OH239465   0.312   5.378   2.826  0.1029 -0.4260  0.2964
 6017TIP3    H139466   0.313   5.302   2.884 -0.0848 -1.4191 -0.9875
 6017TIP3    H239467   0.223   5.380   2.791  0.0364  0.5363  0.5244
 6018TIP3   OH239468   4.263   2.886   4.211  0.4896  0.0074 -0.1690
 6018TIP3    H139469   4.260   2.796   4.242  0.3845 -0.7550 -2.3068
 6018TIP3    H239470   4.355   2.912   4.221  0.8078 -0.8295 -0.8754
 6019TIP3   OH239471   2.698   3.931   0.641 -0.2060 -0.3871 -0.0004
 6019TIP3    H139472   2.711   3.971   0.727 -1.9152  0.2186 -0.0056
 6019TIP3    H239473   2.636   3.860   0.657 -0.6539 -0.1713 -0.7673
 6020TIP3   OH239474   5.342   4.799   4.312  0.1861  0.2904 -0.6131
 6020TIP3    H139475   5.248   4.815   4.312  0.1652  0.1729 -0.2780
 6020TIP3    H239476   5.351   4.712   4.275  0.2043  0.5291 -1.1783
 6021TIP3   OH239477   5.143   2.095   0.497 -0.0867  0.0542 -0.2660
 6021TIP3    H139478   5.180   2.133   0.577 -1.6463  0.2005  0.4052
 6021TIP3    H239479   5.206   2.029   0.470 -0.4654 -1.3570  2.1790
 6022TIP3   OH239480   0.701   3.897  17.172 -0.3466 -0.3499  0.5153
 6022TIP3    H139481   0.623   3.914  17.118 -0.3291 -0.8301  0.3310
 6022TIP3    H239482   0.769   3.873  17.109  0.0231  0.3297  0.6567
 6023TIP3   OH239483   1.523   4.149  14.517 -0.0669 -0.8436  0.1795
 6023TIP3    H139484   1.582   4.110  14.582 -0.0632 -0.2874  0.5147
 6023TIP3    H239485   1.504   4.236  14.552  1.0368 -0.0020 -1.2488
 6024TIP3   OH239486   6.092   4.307  16.106  0.2316 -0.4107  0.0419
 6024TIP3    H139487   6.122   4.359  16.032  2.4606 -2.3592 -0.4925
 6024TIP3    H239488   6.154   4.328  16.177 -1.7140  1.2344  1.2907
 6025TIP3   OH239489   0.818   0.446   3.113 -0.1573 -0.3589 -0.4570
 6025TIP3    H139490   0.842   0.524   3.163 -0.2144 -0.8117  0.2840
 6025TIP3    H239491   0.895   0.427   3.059  0.3612 -0.5770  0.3548
 6026TIP3   OH239492   4.747   2.015  12.040  0.2028 -0.1877  0.1898
 6026TIP3    H139493   4.767   2.000  11.948  0.5598  0.2720  0.1918
 6026TIP3    H239494   4.651   2.014  12.044  0.1597  0.9944 -0.3934
 6027TIP3   OH239495   3.636   6.603   5.018  0.9063  0.1508  0.8312
 6027TIP3    H139496   3.577   6.633   5.087 -0.0667 -0.5267  0.3085
 6027TIP3    H239497   3.662   6.683   4.972 -0.8571  0.3130  0.0850
 6028TIP3   OH239498   3.333   5.869   4.641  0.4378 -0.0454  0.4011
 6028TIP3    H139499   3.281   5.938   4.599 -1.3914 -0.9755  1.0714
 6028TIP3    H239500   3.419   5.908   4.653 -0.3734  1.8874  0.1665
 6029TIP3   OH239501   6.622   1.569   2.365 -0.1312 -0.2348 -0.5049
 6029TIP3    H139502   6.692   1.634   2.377 -0.2779 -0.3399  0.9984
 6029TIP3    H239503   6.665   1.496   2.320 -0.0755  1.0733 -2.6676
 6030TIP3   OH239504   5.347   5.076   1.336 -0.2494 -0.5148  0.5659
 6030TIP3    H139505   5.329   5.130   1.413 -1.5786 -0.7422  0.4326
 6030TIP3    H239506   5.328   4.987   1.364  0.0650 -0.6893  0.2229
 6031TIP3   OH239507   4.817   2.874  16.971 -0.0361 -0.6120  0.3462
 6031TIP3    H139508   4.844   2.954  16.927  1.7731 -0.0629  2.3753
 6031TIP3    H239509   4.780   2.903  17.054  2.2676 -1.9196  1.8971
 6032TIP3   OH239510   3.399   5.933  16.449  0.3503  0.2991  0.1520
 6032TIP3    H139511   3.350   5.871  16.503  0.9880  0.8351  1.3602
 6032TIP3    H239512   3.357   6.018  16.466  1.0319  0.5884  0.3878
 6033TIP3   OH239513   4.165   1.996   2.852  0.1568  0.3974  0.2740
 6033TIP3    H139514   4.116   2.031   2.927 -1.4638 -2.2392  0.5148
 6033TIP3    H239515   4.245   1.960   2.891  0.5688  1.3699  0.3597
 6034TIP3   OH239516   4.774   4.723  14.514  0.0858 -0.2225 -0.1155
 6034TIP3    H139517   4.804   4.814  14.517  0.5610 -0.3774 -0.0960
 6034TIP3    H239518   4.703   4.720  14.578  0.2168  0.0824  0.0481
 6035TIP3   OH239519   0.724   0.037  16.433 -0.6463 -0.3380 -0.3633
 6035TIP3    H139520   0.775   0.086  16.369  0.5353 -0.8921  0.1417
 6035TIP3    H239521   0.669   0.103  16.475 -2.1176 -0.0973 -2.5446
 6036TIP3   OH239522   6.043   5.216   3.879 -0.3020  0.8147  0.6535
 6036TIP3    H139523   6.130   5.253   3.892  0.4124 -0.0568 -1.4806
 6036TIP3    H239524   6.034   5.207   3.784 -2.6550  0.7336  0.8336
 6037TIP3   OH239525   4.304   4.663  17.220 -0.1761 -0.4608  0.2599
 6037TIP3    H139526   4.254   4.738  17.253 -0.1176  0.5255 -1.8067
 6037TIP3    H239527   4.395   4.684  17.240 -0.2689 -0.5526  0.7753
 6038TIP3   OH239528   3.218   2.056   0.158  0.3476  0.5480 -0.2297
 6038TIP3    H139529   3.274   2.101   0.221 -0.6125  1.4034  0.0368
 6038TIP3    H239530   3.166   2.126   0.118 -2.2920 -0.4710  1.3097
 6039TIP3   OH239531   1.273   3.251   3.732  0.0301 -0.2206  0.1177
 6039TIP3    H139532   1.287   3.342   3.757 -2.5873  0.6055 -1.2481
 6039TIP3    H239533   1.292   3.248   3.638 -0.6269 -0.8942 -0.0027
 6040TIP3   OH239534   3.878   0.018   4.472  0.5506 -0.3685  0.5068
 6040TIP3    H139535   3.935   0.029   4.547  1.8994  0.4772 -0.6218
 6040TIP3    H239536   3.858   0.107   4.443 -1.1729 -0.6485  0.7471
 6041TIP3   OH239537   1.812   3.052   5.225  0.2121 -0.2127 -0.1244
 6041TIP3    H139538   1.849   2.991   5.290 -1.2817 -1.3558 -0.3333
 6041TIP3    H239539   1.880   3.118   5.214  0.3367  0.2615  2.9438
 6042TIP3   OH239540   4.640   3.305   6.157 -0.6116  0.0637 -0.1087
 6042TIP3    H139541   4.613   3.384   6.202 -1.5350 -0.2910 -0.0250
 6042TIP3    H239542   4.717   3.275   6.204  0.0388  1.1857 -0.4478
 6043TIP3   OH239543   4.551   6.235   0.709 -0.1001 -0.4347  0.7043
 6043TIP3    H139544   4.471   6.189   0.733 -0.3653 -0.8200 -0.8576
 6043TIP3    H239545   4.568   6.294   0.783 -0.9567 -1.4615  1.7437
 6044TIP3   OH239546   4.197   6.772   4.663 -0.1137  0.5589 -0.3985
 6044TIP3    H139547   4.285   6.745   4.639  0.2490 -1.4762  2.8828
 6044TIP3    H239548   4.209   6.834   4.735 -1.3322  1.0146 -0.5705
 6045TIP3   OH239549   1.060   5.131  13.085 -0.3304  0.2288  0.0834
 6045TIP3    H139550   0.971   5.105  13.109  0.1043 -2.2619 -0.8629
 6045TIP3    H239551   1.052   5.224  13.061 -2.4381  0.3475  1.1373
 6046TIP3   OH239552   0.930   4.555   3.070 -0.3154  0.3495 -0.1510
 6046TIP3    H139553   0.846   4.578   3.110 -1.9951 -1.5635 -2.4121
 6046TIP3    H239554   0.927   4.459   3.063  2.7115  0.1253  1.0636
 6047TIP3   OH239555   2.954   1.926   6.137  0.0082 -0.3793  0.4048
 6047TIP3    H139556   2.991   2.001   6.092 -0.1534 -0.9049 -0.6257
 6047TIP3    H239557   2.911   1.963   6.215  1.0128  0.4347  0.5738
 6048TIP3   OH239558   2.090   5.255   3.180  0.4315  0.5534  0.2776
 6048TIP3    H139559   2.076   5.300   3.097 -0.9825 -0.0071  0.2040
 6048TIP3    H239560   2.162   5.194   3.162  0.1293  0.4284 -0.5383
 6049TIP3   OH239561   5.586   5.781  12.621  0.6394 -0.0710  0.3010
 6049TIP3    H139562   5.680   5.798  12.614  0.9650 -1.6187  0.7304
 6049TIP3    H239563   5.573   5.697  12.577 -0.8033  0.8731 -1.1389
 6050TIP3   OH239564   2.977   6.201   0.245  0.1502 -0.1817  0.1661
 6050TIP3    H139565   2.968   6.177   0.337  0.0320 -1.3880 -0.1564
 6050TIP3    H239566   2.888   6.196   0.209 -0.2660  2.9572  0.6028
 6051TIP3   OH239567   4.530   6.192  10.584  0.0678  0.3639 -0.7194
 6051TIP3    H139568   4.600   6.151  10.533  0.0387  0.6586 -1.0005
 6051TIP3    H239569   4.479   6.118  10.619  0.9832  0.1304  0.1484
 6052TIP3   OH239570   1.188   1.572  16.945 -0.3424  0.4107  0.6932
 6052TIP3    H139571   1.224   1.503  16.889  0.2100  0.0778  1.4578
 6052TIP3    H239572   1.111   1.533  16.986 -1.9281  1.2736 -1.3069
 6053TIP3   OH239573   2.648   4.630  12.056 -0.4093  0.0274 -0.6915
 6053TIP3    H139574   2.676   4.637  11.964  1.1413 -1.6665 -0.3837
 6053TIP3    H239575   2.685   4.707  12.099  0.1233  0.0483 -1.1824
 6054TIP3   OH239576   4.906   1.560  15.816  0.0299 -0.0746  0.5790
 6054TIP3    H139577   4.955   1.485  15.784 -2.4111 -1.0234 -1.0773
 6054TIP3    H239578   4.946   1.581  15.900  3.1485 -0.8645 -0.6667
 6055TIP3   OH239579   1.619   4.008   3.150  0.2707 -0.1578  0.1140
 6055TIP3    H139580   1.572   3.987   3.231  0.3780 -0.3856  0.1170
 6055TIP3    H239581   1.712   3.993   3.172  0.3654  0.4615  0.1651
 6056TIP3   OH239582   0.277   3.016   1.333  0.4316  0.0893 -0.4501
 6056TIP3    H139583   0.213   3.080   1.303 -1.0373 -1.0321  0.2097
 6056TIP3    H239584   0.359   3.065   1.341 -1.2088  2.5464  2.5761
 6057TIP3   OH239585   6.763   6.445   6.083 -0.0355  0.1361  0.1479
 6057TIP3    H139586   6.827   6.374   6.096  0.5172  0.4006 -1.0912
 6057TIP3    H239587   6.693   6.425   6.146  1.5187  0.1546  1.9271
 6058TIP3   OH239588   6.687   4.129   0.345  0.2729  0.0409 -0.4831
 6058TIP3    H139589   6.755   4.082   0.298  0.8450  0.0127  0.3729
 6058TIP3    H239590   6.733   4.178   0.413 -0.7609 -1.6947  1.5241
 6059TIP3   OH239591   0.348   0.617   1.898  0.8515  0.2124  0.1101
 6059TIP3    H139592   0.291   0.652   1.829  1.2724  0.9711  0.1438
 6059TIP3    H239593   0.336   0.676   1.972  0.7078 -0.3683  0.5595
 6060TIP3   OH239594   6.067   3.064  12.418  0.6019 -0.3347 -0.0859
 6060TIP3    H139595   6.034   3.080  12.506 -0.5251 -0.3215 -0.5015
 6060TIP3    H239596   6.148   3.115  12.413  0.1536  0.4568  0.6042
 6061TIP3   OH239597   3.899   3.164  12.510  0.6403  0.2944  0.1259
 6061TIP3    H139598   3.833   3.153  12.443  1.6887  1.3643 -1.1004
 6061TIP3    H239599   3.855   3.141  12.592 -0.3324 -2.1237 -1.0269
 6062TIP3   OH239600   3.213   4.334   5.438  0.1261 -0.0551  0.2730
 6062TIP3    H139601   3.215   4.251   5.392  0.5648  0.0861  0.0384
 6062TIP3    H239602   3.255   4.396   5.379 -1.7492  0.7031 -0.3029
 6063TIP3   OH239603   0.644   4.402  15.854  0.1231 -0.7106  0.3912
 6063TIP3    H139604   0.626   4.492  15.882 -0.4209 -0.2413 -1.4008
 6063TIP3    H239605   0.720   4.375  15.906  0.1020  0.6852  1.1541
 6064TIP3   OH239606   6.220   3.790  11.675 -0.4344 -0.0187  0.3186
 6064TIP3    H139607   6.250   3.864  11.622  0.5432 -2.0432 -2.0575
 6064TIP3    H239608   6.170   3.830  11.746 -0.1312  2.8999 -1.0402
 6065TIP3   OH239609   1.714   6.265  11.568 -0.4664 -0.0626  0.2646
 6065TIP3    H139610   1.795   6.279  11.520 -0.6256 -0.9224 -0.2535
 6065TIP3    H239611   1.665   6.202  11.516 -0.8506 -0.6367  1.3048
 6066TIP3   OH239612   4.417   3.414   0.113 -0.0521  0.2810  0.6030
 6066TIP3    H139613   4.488   3.368   0.069  0.9226 -0.2592  2.6913
 6066TIP3    H239614   4.437   3.507   0.099  0.8162  0.1288  0.7926
 6067TIP3   OH239615   0.218   1.257   2.127  0.2340  0.0996 -0.6240
 6067TIP3    H139616   0.285   1.289   2.066 -0.5938  1.0448 -1.0376
 6067TIP3    H239617   0.190   1.174   2.090  1.7657 -0.7185 -0.0114
 6068TIP3   OH239618   5.561   2.595  14.300  0.5178 -0.0654  0.2990
 6068TIP3    H139619   5.609   2.518  14.329 -1.2233 -1.6069 -0.7603
 6068TIP3    H239620   5.560   2.654  14.375 -0.3561 -2.2033  2.0105
 6069TIP3   OH239621   3.488   6.772   0.774 -0.1849  0.2716  0.6002
 6069TIP3    H139622   3.500   6.863   0.800  1.1250  0.2317  0.1755
 6069TIP3    H239623   3.469   6.775   0.681 -1.5668  0.1843  0.8565
 6070TIP3   OH239624   0.230   3.807  11.932  0.3230 -0.3929  0.2413
 6070TIP3    H139625   0.300   3.819  11.996  1.8267 -2.0419 -1.0629
 6070TIP3    H239626   0.150   3.803  11.985  1.6021 -2.4918  2.1233
 6071TIP3   OH239627   1.607   4.057  11.851 -0.2133 -0.7573 -0.1356
 6071TIP3    H139628   1.519   4.020  11.842 -0.5544  0.1070 -0.4220
 6071TIP3    H239629   1.665   3.989  11.816 -0.6973 -1.6497  0.7697
 6072TIP3   OH239630   0.027   2.442   2.184 -0.1365 -0.4291  0.4472
 6072TIP3    H139631   0.025   2.468   2.092  1.0082  0.1997  0.5911
 6072TIP3    H239632  -0.011   2.517   2.230 -2.7317 -1.6091  0.3224
 6073TIP3   OH239633   1.484   5.496   5.254  0.2332  0.7180 -0.0151
 6073TIP3    H139634   1.425   5.563   5.289  0.6833  0.5701  1.0540
 6073TIP3    H239635   1.476   5.423   5.315  1.7147  0.8093  0.3092
 6074TIP3   OH239636   1.136   0.821   4.990  0.1393 -0.1837 -0.2100
 6074TIP3    H139637   1.057   0.774   4.961  1.0691 -1.9860  0.1089
 6074TIP3    H239638   1.106   0.872   5.066 -1.1327  0.6083 -1.2099
 6075TIP3   OH239639   0.363   3.946  13.988 -0.2324  0.1601 -0.1600
 6075TIP3    H139640   0.298   3.876  14.000 -1.4414  1.6698  2.7619
 6075TIP3    H239641   0.414   3.946  14.068  1.3573  1.0414 -1.1436
 6076TIP3   OH239642   4.723   3.940   5.700  0.2262 -0.6890 -0.2719
 6076TIP3    H139643   4.705   3.995   5.776 -3.1006 -1.6261 -0.2847
 6076TIP3    H239644   4.736   4.002   5.628  0.6974  0.1440  0.5215
 6077TIP3   OH239645   0.897   5.885   0.508  0.4120 -0.0211 -0.0916
 6077TIP3    H139646   0.890   5.896   0.413  0.1651  0.2130 -0.0477
 6077TIP3    H239647   0.898   5.975   0.542 -3.7084 -0.1050  0.4405
 6078TIP3   OH239648   6.432   0.527   3.183 -0.3255  0.1678  0.0800
 6078TIP3    H139649   6.429   0.613   3.141  1.6955 -1.2593 -3.1618
 6078TIP3    H239650   6.499   0.536   3.252 -0.8661  1.4417  0.4581
 6079TIP3   OH239651   5.459   2.470   3.525 -0.2918 -0.1117 -0.2228
 6079TIP3    H139652   5.444   2.389   3.572 -0.9215  1.1702  1.8590
 6079TIP3    H239653   5.384   2.525   3.547  0.0315  0.9648 -1.7422
 6080TIP3   OH239654   2.764   4.657   0.825 -0.1032  0.5015 -0.8460
 6080TIP3    H139655   2.744   4.732   0.881 -1.1918  1.1783 -2.1181
 6080TIP3    H239656   2.788   4.696   0.741 -0.4359 -0.5628 -1.4386
 6081TIP3   OH239657   3.018   5.754  13.447 -0.4654  0.0724 -0.1031
 6081TIP3    H139658   2.979   5.837  13.419  1.2487  1.0807  0.3812
 6081TIP3    H239659   3.094   5.781  13.500 -0.7375 -1.7937  1.2860
 6082TIP3   OH239660   6.000   4.045  16.112  0.6098  0.2002  0.1767
 6082TIP3    H139661   6.034   4.134  16.113  1.0616  0.0792 -1.7500
 6082TIP3    H239662   6.068   3.994  16.066 -0.2032 -0.8777  0.1515
 6083TIP3   OH239663   5.927   1.141   6.202 -0.2965 -0.3416  0.1295
 6083TIP3    H139664   5.922   1.188   6.285  0.5817  0.0279 -0.0173
 6083TIP3    H239665   6.005   1.087   6.210 -0.3413 -0.4807 -0.3632
 6084TIP3   OH239666   1.975   0.188  17.069  0.1769 -0.5936 -0.3589
 6084TIP3    H139667   1.893   0.223  17.032  0.4315 -0.7697 -1.1060
 6084TIP3    H239668   1.948   0.115  17.123 -0.3537  0.6544  1.0913
 6085TIP3   OH239669   4.844   1.623  13.065  0.0142 -0.2798 -0.1496
 6085TIP3    H139670   4.874   1.651  12.979  1.6882  2.1072  1.1360
 6085TIP3    H239671   4.885   1.685  13.126 -1.0368 -1.9719  2.3697
 6086TIP3   OH239672   2.624   1.063  13.274 -0.1474 -0.2273 -0.3076
 6086TIP3    H139673   2.710   1.071  13.314  0.4167  0.0380 -1.5274
 6086TIP3    H239674   2.631   1.113  13.192 -1.5419  0.0245 -0.2880
 6087TIP3   OH239675   5.376   5.687   5.558 -0.3429  0.3040 -0.5699
 6087TIP3    H139676   5.302   5.643   5.517 -0.8300  0.7325 -0.1636
 6087TIP3    H239677   5.436   5.617   5.582 -1.7586 -0.2821  1.3690
 6088TIP3   OH239678   5.180   4.734  12.499 -0.0513  0.3956  0.8463
 6088TIP3    H139679   5.183   4.827  12.477 -1.3882  0.8775  2.5704
 6088TIP3    H239680   5.247   4.694  12.444 -2.4236  1.6751 -3.1937
 6089TIP3   OH239681   4.455   1.905  14.917  0.1010  0.3898 -0.5186
 6089TIP3    H139682   4.517   1.964  14.959  0.3381  0.7459 -1.3569
 6089TIP3    H239683   4.508   1.853  14.857 -0.2476 -0.0469 -0.4521
 6090TIP3   OH239684   0.072   3.464   5.745  0.0038 -0.3389  0.2044
 6090TIP3    H139685   0.097   3.539   5.691  0.6038 -0.7335 -0.0745
 6090TIP3    H239686   0.099   3.487   5.833 -0.5933  0.1316  0.2666
 6091TIP3   OH239687   0.448   0.307  15.623  0.2991 -0.1768 -0.2667
 6091TIP3    H139688   0.408   0.230  15.663 -2.0762  0.6372 -0.9721
 6091TIP3    H239689   0.448   0.373  15.692  3.6476 -1.1797  0.7757
 6092TIP3   OH239690   1.231   1.418   6.425 -0.5353 -0.2437 -0.6073
 6092TIP3    H139691   1.140   1.422   6.455  0.1095 -3.0697  2.0194
 6092TIP3    H239692   1.279   1.474   6.487 -0.1861 -0.5710 -0.5796
 6093TIP3   OH239693   6.093   0.487   5.609 -0.5091 -0.1072 -0.6288
 6093TIP3    H139694   6.007   0.494   5.650 -1.1990 -0.8199 -1.9399
 6093TIP3    H239695   6.101   0.394   5.586  0.9709 -0.2105  0.2542
 6094TIP3   OH239696   0.274   1.157   4.896 -0.0454  0.0947 -0.6274
 6094TIP3    H139697   0.341   1.120   4.839 -0.9489 -0.0453 -1.5873
 6094TIP3    H239698   0.191   1.137   4.854 -0.8185 -1.3211  1.4880
 6095TIP3   OH239699   6.718   2.250  14.567  0.2307  0.0728 -0.1939
 6095TIP3    H139700   6.765   2.188  14.624 -0.6830  1.8425  2.5716
 6095TIP3    H239701   6.784   2.316  14.546 -0.3479  1.2590  1.6793
 6096TIP3   OH239702   2.147   1.196   5.520  0.2797  0.1582 -0.1130
 6096TIP3    H139703   2.110   1.265   5.575  1.6077  0.1193  0.8755
 6096TIP3    H239704   2.211   1.152   5.576 -0.6297 -1.9758 -0.6853
 6097TIP3   OH239705   5.064   3.349   3.778  0.1701 -0.2644 -0.4061
 6097TIP3    H139706   5.022   3.292   3.843  0.3191 -1.0853 -1.0211
 6097TIP3    H239707   5.120   3.407   3.829  1.3159 -1.7886  0.0995
 6098TIP3   OH239708   5.874   0.781  16.541 -0.1393  0.6666 -0.1338
 6098TIP3    H139709   5.943   0.753  16.600 -1.9219  0.5899  1.9520
 6098TIP3    H239710   5.915   0.848  16.486  2.0169 -0.5197 -0.0139
 6099TIP3   OH239711   6.000   1.536   0.221  0.2706  0.3117 -0.3981
 6099TIP3    H139712   5.980   1.629   0.228 -0.1794  0.0968  1.5048
 6099TIP3    H239713   6.016   1.508   0.311 -0.2735 -1.5933 -0.8688
 6100TIP3   OH239714   0.275   3.904   5.047  0.5232 -0.1803 -0.0235
 6100TIP3    H139715   0.332   3.980   5.056  0.6107 -0.2608  0.0958
 6100TIP3    H239716   0.224   3.921   4.968 -2.2554  1.8832  2.0897
 6101TIP3   OH239717   1.731   1.641   4.790 -0.3552  0.9707  0.2103
 6101TIP3    H139718   1.725   1.564   4.732 -1.8343  0.2438  1.3133
 6101TIP3    H239719   1.805   1.621   4.847 -0.2380  0.7329 -0.0186
 6102TIP3   OH239720   6.409   2.681  14.748  0.8727 -0.4003  0.1685
 6102TIP3    H139721   6.429   2.689  14.841 -0.9912 -0.0108  0.5651
 6102TIP3    H239722   6.376   2.767  14.723 -1.1206 -1.2466 -0.2106
 6103TIP3   OH239723   0.687   5.282  13.200 -0.1507 -0.4802 -0.5295
 6103TIP3    H139724   0.728   5.198  13.183  0.8388 -0.1885  0.3509
 6103TIP3    H239725   0.638   5.302  13.120  0.4848 -1.3679 -1.1458
 6104TIP3   OH239726   3.460   5.176   4.437 -0.5955  0.1512  0.4830
 6104TIP3    H139727   3.429   5.096   4.395 -1.1130  0.3097  0.5633
 6104TIP3    H239728   3.521   5.146   4.504  0.0159 -0.1183 -0.1884
 6105TIP3   OH239729   4.663   2.343  15.518 -0.2944 -0.2632  0.1124
 6105TIP3    H139730   4.637   2.373  15.605 -1.3417 -0.2093 -0.2126
 6105TIP3    H239731   4.586   2.298  15.484  0.2311 -0.6057 -0.6431
 6106TIP3   OH239732   2.975   3.111  14.370  0.6558 -0.1264  0.2688
 6106TIP3    H139733   3.048   3.126  14.311  0.2815 -0.2459 -0.2282
 6106TIP3    H239734   2.902   3.086  14.313  0.1607  0.2312  0.7311
 6107TIP3   OH239735   0.052   2.333  11.140  0.2771 -0.1546 -0.1840
 6107TIP3    H139736   0.047   2.426  11.162 -0.1677 -0.2780  0.2339
 6107TIP3    H239737  -0.029   2.295  11.174  1.1186 -0.9706  0.9822
 6108TIP3   OH239738   6.727   3.431   3.601  0.0996  0.3836  0.1158
 6108TIP3    H139739   6.742   3.338   3.615 -0.8189  0.4429  1.5733
 6108TIP3    H239740   6.800   3.474   3.645 -0.9190  0.4341  1.8115
 6109TIP3   OH239741   5.083   0.435   0.421  0.2957  0.3967 -0.1202
 6109TIP3    H139742   5.171   0.443   0.458  0.7870  1.3267 -1.4548
 6109TIP3    H239743   5.062   0.342   0.430  2.0992 -0.1417 -1.3269
 6110TIP3   OH239744   4.135   6.425  12.109 -0.0568  0.1091  0.5405
 6110TIP3    H139745   4.223   6.417  12.071 -0.0408  1.9296  0.1651
 6110TIP3    H239746   4.119   6.339  12.149  0.6785 -1.2274 -1.9394
 6111TIP3   OH239747   5.926   3.748  14.213 -0.2083  0.2503  0.3752
 6111TIP3    H139748   5.946   3.782  14.300  2.0061  3.6132 -1.3480
 6111TIP3    H239749   6.000   3.690  14.192 -0.2277  0.2464  0.3159
 6112TIP3   OH239750   4.070   2.274  13.504  0.0132 -0.4910  0.1242
 6112TIP3    H139751   4.016   2.350  13.483 -1.0807 -0.5696  2.4725
 6112TIP3    H239752   4.136   2.307  13.566  2.9862 -0.3125 -2.9847
 6113TIP3   OH239753   6.209   5.652  14.852 -0.1007 -0.0432  0.4925
 6113TIP3    H139754   6.209   5.688  14.763  1.2606 -0.4176  0.3246
 6113TIP3    H239755   6.183   5.560  14.840  0.6070 -0.2394  0.4005
 6114TIP3   OH239756   4.925   1.419   3.956 -0.5182  0.3481  1.2500
 6114TIP3    H139757   4.906   1.370   4.037 -2.3187 -0.5665  0.3056
 6114TIP3    H239758   4.985   1.362   3.908 -2.3309 -0.8373  0.3144
 6115TIP3   OH239759   2.809   3.870  13.851 -0.4864  0.0929 -0.2011
 6115TIP3    H139760   2.809   3.891  13.758  2.6401 -0.1550 -0.3144
 6115TIP3    H239761   2.790   3.954  13.894 -2.1465  0.1682 -1.0286
 6116TIP3   OH239762   4.243   3.066  11.729  0.1167  0.4872  0.0016
 6116TIP3    H139763   4.284   3.085  11.814  0.6158  1.3388 -0.4225
 6116TIP3    H239764   4.217   3.152  11.696  1.0732  0.2946 -1.2824
 6117TIP3   OH239765   0.920   2.114   4.660  0.1649 -0.0956 -0.4714
 6117TIP3    H139766   0.990   2.055   4.689  0.4358  0.8371  0.8125
 6117TIP3    H239767   0.947   2.143   4.573 -0.9759 -3.4457 -2.0442
 6118TIP3   OH239768   0.427   2.035  16.454  0.0966 -0.9031 -0.0568
 6118TIP3    H139769   0.429   2.080  16.370 -0.5975  1.0586  0.9566
 6118TIP3    H239770   0.469   2.096  16.515  1.1097 -2.5432  0.9283
 6119TIP3   OH239771   0.004   0.969  14.803  0.7622 -0.1227 -0.0261
 6119TIP3    H139772  -0.019   0.900  14.741  0.3840  0.8229 -0.9467
 6119TIP3    H239773  -0.072   0.978  14.859  0.7561 -0.3578  0.0027
 6120TIP3   OH239774   2.636   5.088  16.937  0.6861  0.0218  0.3473
 6120TIP3    H139775   2.585   5.069  16.858  1.2384 -1.2306  0.2848
 6120TIP3    H239776   2.637   5.184  16.942 -1.0636  0.0817 -0.0359
 6121TIP3   OH239777   4.180   2.251  14.890  0.0806  0.0977  0.1981
 6121TIP3    H139778   4.229   2.256  14.972  0.3232  2.6695 -0.0712
 6121TIP3    H239779   4.098   2.297  14.908  0.7386  1.9376 -1.4030
 6122TIP3   OH239780   1.509   0.108   2.198 -0.3315 -0.0343 -0.7572
 6122TIP3    H139781   1.572   0.119   2.127  1.9868 -0.4961  1.1967
 6122TIP3    H239782   1.484   0.016   2.194  1.7455 -0.6619  0.6313
 6123TIP3   OH239783   1.260   5.213   3.740  0.4231  0.1891  0.5599
 6123TIP3    H139784   1.176   5.259   3.743 -0.1288 -0.8281  0.9694
 6123TIP3    H239785   1.314   5.266   3.681 -1.1805 -0.2374 -1.3752
 6124TIP3   OH239786   4.609   2.097   4.913  0.0780  0.0858  0.4189
 6124TIP3    H139787   4.611   2.122   5.005 -2.3277 -0.2366  0.5711
 6124TIP3    H239788   4.588   2.004   4.913  0.2358  0.0446 -0.4515
 6125TIP3   OH239789   1.744   4.792  12.968  0.7747  0.1319 -0.0994
 6125TIP3    H139790   1.712   4.798  12.878  1.6696 -0.0405 -0.4316
 6125TIP3    H239791   1.756   4.698  12.983 -0.0183  0.1177  0.4265
 6126TIP3   OH239792   3.346   4.917  15.310 -0.5788  0.1911  0.4411
 6126TIP3    H139793   3.440   4.935  15.308 -0.6426  0.4102 -1.4182
 6126TIP3    H239794   3.336   4.837  15.258 -1.5590  0.8907 -0.4702
 6127TIP3   OH239795   4.152   2.478  11.235 -0.4327  0.1427  0.1513
 6127TIP3    H139796   4.063   2.512  11.247 -0.4954 -0.5071  1.6781
 6127TIP3    H239797   4.181   2.516  11.152 -2.3245 -0.0812 -0.6369
 6128TIP3   OH239798   5.252   0.160   3.722 -0.0754 -0.0994 -0.8241
 6128TIP3    H139799   5.334   0.172   3.674  0.8194 -3.1677 -0.1790
 6128TIP3    H239800   5.275   0.174   3.814  0.2159 -2.8295 -0.4375
 6129TIP3   OH239801   5.052   4.767   0.750 -0.1057 -0.2450 -0.2086
 6129TIP3    H139802   5.085   4.821   0.678  2.1082  0.5439  1.3193
 6129TIP3    H239803   4.972   4.811   0.778  0.0921  0.5761 -0.8891
 6130TIP3   OH239804   2.170   4.849  11.676 -0.1005 -0.6431  0.1302
 6130TIP3    H139805   2.098   4.805  11.721  0.0596 -1.0168  0.0175
 6130TIP3    H239806   2.247   4.831  11.730 -0.4389  1.4889  1.3941
 6131TIP3   OH239807   0.302   5.732  15.432  0.1727 -0.1372 -0.4681
 6131TIP3    H139808   0.247   5.799  15.472  0.2956  0.7246 -1.7453
 6131TIP3    H239809   0.248   5.693  15.364  1.1694  0.8205 -1.8399
 6132TIP3   OH239810   4.645   6.692   2.252 -0.4470  0.1373 -0.2882
 6132TIP3    H139811   4.567   6.746   2.265  1.0072  2.2486 -0.0453
 6132TIP3    H239812   4.672   6.665   2.340 -0.5256 -0.0441 -0.3195
 6133TIP3   OH239813   1.694   4.519  16.738  0.1327 -0.0885  0.4447
 6133TIP3    H139814   1.779   4.536  16.698 -0.3395 -0.5919 -0.7887
 6133TIP3    H239815   1.680   4.594  16.796  0.2399  1.3427 -1.3139
 6134TIP3   OH239816   0.646   5.593  11.346 -0.4166 -0.1462 -0.2180
 6134TIP3    H139817   0.706   5.522  11.364 -0.6774 -0.5061 -0.7440
 6134TIP3    H239818   0.658   5.611  11.252 -0.1106  0.7184 -0.0139
 6135TIP3   OH239819   5.384   4.312   0.524  0.4141  0.2055  0.3402
 6135TIP3    H139820   5.348   4.321   0.436 -3.0443  1.1295  1.7333
 6135TIP3    H239821   5.342   4.233   0.559  0.7092  0.5886  1.5930
 6136TIP3   OH239822   1.742   3.183  15.477  0.0384  0.0882 -1.0603
 6136TIP3    H139823   1.740   3.197  15.572 -0.9167  1.9358 -1.3215
 6136TIP3    H239824   1.718   3.091  15.466  1.5733 -0.5350  0.5481
 6137TIP3   OH239825   5.193   2.266  16.870 -0.5897  0.2238  0.3009
 6137TIP3    H139826   5.174   2.201  16.802 -1.1726  0.2257  0.4591
 6137TIP3    H239827   5.159   2.226  16.951  1.6877 -0.5706  0.9139
 6138TIP3   OH239828   4.517   6.749   6.652 -0.8602 -0.1950  0.1646
 6138TIP3    H139829   4.531   6.678   6.589  0.2294 -0.7155  0.9844
 6138TIP3    H239830   4.603   6.788   6.664 -1.0888 -0.0078  1.2347
 6139TIP3   OH239831   0.944   2.840  11.723  0.8296 -0.3557  0.4375
 6139TIP3    H139832   1.037   2.837  11.697  0.6777 -0.0114 -0.1592
 6139TIP3    H239833   0.904   2.767  11.677  0.5844  0.1841 -0.2273
 6140TIP3   OH239834   6.169   2.145   6.666 -0.1413 -0.2698  0.0733
 6140TIP3    H139835   6.238   2.206   6.693  1.6567 -2.1340 -0.2036
 6140TIP3    H239836   6.178   2.138   6.571 -1.2353  0.0754 -0.0660
 6141TIP3   OH239837   4.149   4.748  14.267 -0.0005  0.7715 -0.0147
 6141TIP3    H139838   4.158   4.794  14.351 -0.7964 -0.2860  0.6577
 6141TIP3    H239839   4.114   4.662  14.291  0.8744  0.0426 -1.3256
 6142TIP3   OH239840   4.034   0.093   4.945  0.4485  0.3526 -0.3554
 6142TIP3    H139841   4.062   0.002   4.939  1.4235  0.6852 -0.9843
 6142TIP3    H239842   4.114   0.144   4.936  0.0123  1.2635  0.7866
 6143TIP3   OH239843   4.756   0.554  13.941 -0.2300 -0.0477 -0.5654
 6143TIP3    H139844   4.831   0.593  13.985 -2.0214  1.5960  1.1235
 6143TIP3    H239845   4.766   0.580  13.849 -0.1118  2.4013  0.0986
 6144TIP3   OH239846   5.801   1.087  12.684  0.2060 -0.1550 -0.3498
 6144TIP3    H139847   5.875   1.035  12.715  0.2302 -0.1404 -0.3832
 6144TIP3    H239848   5.724   1.030  12.696  0.0550  0.2906  0.8582
 6145TIP3   OH239849   6.076   3.589  16.765 -0.3469  0.5681  0.4597
 6145TIP3    H139850   6.124   3.510  16.741  2.5893  2.8212 -1.4071
 6145TIP3    H239851   6.026   3.611  16.687 -0.8242  0.8001  0.8287
 6146TIP3   OH239852   5.529   2.372   1.553 -0.4912  0.1523 -0.2959
 6146TIP3    H139853   5.566   2.284   1.560  0.6330  0.5648 -0.9473
 6146TIP3    H239854   5.505   2.396   1.642  2.6752  0.6718  0.4720
 6147TIP3   OH239855   3.427   2.125  14.023 -0.2441  0.6585  0.3418
 6147TIP3    H139856   3.359   2.066  14.057  0.3440 -0.4645 -0.3884
 6147TIP3    H239857   3.432   2.105  13.930  0.4419  1.3785  0.2207
 6148TIP3   OH239858   2.239   6.097   3.094  0.2363 -0.3849 -0.2070
 6148TIP3    H139859   2.277   6.182   3.074 -0.7476 -0.2441 -1.5093
 6148TIP3    H239860   2.314   6.039   3.108  0.9028  0.6444  0.5076
 6149TIP3   OH239861   4.819   1.423   2.870 -0.2659  0.5176  0.0043
 6149TIP3    H139862   4.879   1.353   2.895  0.5395  0.7600 -1.2288
 6149TIP3    H239863   4.740   1.377   2.839  0.1311  0.1545 -0.4803
 6150TIP3   OH239864   5.249   3.657   4.227  0.0260 -0.1428  0.2055
 6150TIP3    H139865   5.156   3.680   4.231 -0.0410 -0.4668  0.6995
 6150TIP3    H239866   5.249   3.562   4.211  0.2670 -0.1634  0.3232
 6151TIP3   OH239867   2.516   4.003   3.361 -0.0573 -0.6084  0.3460
 6151TIP3    H139868   2.550   4.080   3.407  0.1419 -0.5819  0.1545
 6151TIP3    H239869   2.593   3.948   3.347  0.2138  0.2119 -1.5845
 6152TIP3   OH239870   4.099   5.329   3.268 -0.1049  0.5023 -0.2411
 6152TIP3    H139871   4.074   5.333   3.176 -0.1316  1.6158 -0.1979
 6152TIP3    H239872   4.070   5.243   3.298  0.1837  0.0100 -1.3496
 6153TIP3   OH239873   1.791   4.069   1.495 -0.0633  0.0349 -0.9608
 6153TIP3    H139874   1.878   4.099   1.468 -0.3831 -0.9764 -3.2563
 6153TIP3    H239875   1.731   4.116   1.437 -0.8223 -1.6582 -1.5752
 6154TIP3   OH239876   1.557   5.344  12.075  0.1349 -0.4715 -0.4301
 6154TIP3    H139877   1.611   5.385  12.008 -0.5690 -1.3293 -1.5448
 6154TIP3    H239878   1.467   5.370  12.054 -0.2365 -1.8793 -0.6700
 6155TIP3   OH239879   2.927   3.135   4.471 -0.5634  0.8304  0.0125
 6155TIP3    H139880   2.959   3.090   4.393  0.9666  1.9751 -0.0356
 6155TIP3    H239881   2.850   3.085   4.497 -0.7036  0.0415 -1.8406
 6156TIP3   OH239882   4.604   4.752  14.746  0.3677 -0.1160 -0.3271
 6156TIP3    H139883   4.599   4.740  14.841  0.8608 -0.0289 -0.2910
 6156TIP3    H239884   4.527   4.805  14.725 -0.1881 -0.8202 -0.0859
 6157TIP3   OH239885   1.984   5.877  16.306  0.1645 -0.2041  0.3803
 6157TIP3    H139886   2.016   5.919  16.386  0.1418  2.4374 -0.9661
 6157TIP3    H239887   2.062   5.838  16.266  0.2081 -1.3598  1.5477
 6158TIP3   OH239888   2.091   1.742   4.394  0.2316  0.5798  0.1785
 6158TIP3    H139889   2.173   1.703   4.422  0.0627 -0.2963 -0.5218
 6158TIP3    H239890   2.046   1.765   4.475 -0.0461 -1.4802  0.6447
 6159TIP3   OH239891   3.410   0.891  15.398  0.2165 -0.0462  0.2600
 6159TIP3    H139892   3.418   0.915  15.490  0.3325  2.1298 -0.2756
 6159TIP3    H239893   3.432   0.971  15.351  0.8888 -1.3410 -1.6863
 6160TIP3   OH239894   6.588   6.041   5.896 -0.3168  0.0569  0.0781
 6160TIP3    H139895   6.658   6.036   5.831 -1.6535  0.9850 -1.4594
 6160TIP3    H239896   6.634   6.054   5.979  1.3776 -0.5075 -0.7487
 6161TIP3   OH239897   0.257   6.241   1.197  0.2877 -0.3498 -0.1133
 6161TIP3    H139898   0.220   6.163   1.155  0.2421 -0.3534 -0.0667
 6161TIP3    H239899   0.181   6.286   1.233  0.1234  0.6271 -1.6565
 6162TIP3   OH239900   4.410   1.045  11.516 -0.0745  0.2333 -0.1212
 6162TIP3    H139901   4.319   1.069  11.498 -0.3069 -0.3779  0.2556
 6162TIP3    H239902   4.461   1.115  11.474 -0.5804 -1.2794 -3.4078
 6163TIP3   OH239903   3.454   3.994   6.235 -0.0836 -0.0471  0.5065
 6163TIP3    H139904   3.438   3.899   6.240 -3.3540  0.4575  0.5585
 6163TIP3    H239905   3.430   4.026   6.322  2.1333  0.7156  0.8695
 6164TIP3   OH239906   4.466   0.668   5.572 -0.1489 -0.0759 -0.6209
 6164TIP3    H139907   4.400   0.635   5.511 -0.4886  0.1792 -0.3908
 6164TIP3    H239908   4.530   0.598   5.577 -1.1713 -0.9590  0.3238
 6165TIP3   OH239909   1.900   4.103   5.558 -0.2173  0.1725 -0.5508
 6165TIP3    H139910   1.947   4.179   5.594 -0.9052  0.0735  0.5774
 6165TIP3    H239911   1.969   4.046   5.524  0.2576  1.8990 -2.6673
 6166TIP3   OH239912   5.366   2.077   4.414  0.3350  0.4473 -0.1712
 6166TIP3    H139913   5.440   2.039   4.366  1.3019 -0.7583  2.2090
 6166TIP3    H239914   5.288   2.041   4.370  1.2186 -2.1815  0.2959
 6167TIP3   OH239915   1.978   1.901  13.266  0.5641  0.3452  0.0319
 6167TIP3    H139916   2.073   1.897  13.273  0.3877 -0.4471  2.5226
 6167TIP3    H239917   1.957   1.994  13.281  0.7836  0.0374  2.4381
 6168TIP3   OH239918   6.054   3.290   1.854  0.2749  0.2148  0.1800
 6168TIP3    H139919   6.116   3.361   1.840  0.4160 -0.0247 -0.4074
 6168TIP3    H239920   6.107   3.221   1.895  0.6401 -0.3970 -1.3133
 6169TIP3   OH239921   3.876   3.128  11.467  0.3573  0.9749 -0.2728
 6169TIP3    H139922   3.781   3.135  11.476  0.3777  0.9073 -0.0126
 6169TIP3    H239923   3.911   3.175  11.543  0.4991 -1.5889  1.3079
 6170TIP3   OH239924   3.491   1.320  16.095  0.2856 -0.1459 -0.1643
 6170TIP3    H139925   3.396   1.316  16.083  0.1460  1.2961  0.3790
 6170TIP3    H239926   3.503   1.343  16.187  1.1231  1.1498 -0.5803
 6171TIP3   OH239927   3.311   6.055  16.901  0.5244 -0.4022  0.0732
 6171TIP3    H139928   3.300   6.149  16.915 -0.7768 -0.2533 -1.7751
 6171TIP3    H239929   3.294   6.016  16.987  2.7693  1.1522  1.2780
 6172TIP3   OH239930   5.957   4.971   3.223 -0.0722  0.0038 -0.1331
 6172TIP3    H139931   5.889   4.918   3.264  3.1307 -3.3295  1.1346
 6172TIP3    H239932   5.949   4.954   3.130  0.9326 -2.8802  0.2581
 6173TIP3   OH239933   3.337   1.390  14.260 -0.0149 -0.2609  0.0573
 6173TIP3    H139934   3.314   1.418  14.172  3.1435  3.1250  0.2122
 6173TIP3    H239935   3.271   1.430  14.317 -1.6628 -1.9063 -0.6535
 6174TIP3   OH239936   3.140   0.235  15.490 -0.3498  0.1927  0.0938
 6174TIP3    H139937   3.219   0.181  15.492 -2.0678 -2.5089 -1.1497
 6174TIP3    H239938   3.141   0.284  15.572  2.3184 -0.1988  0.3205
 6175TIP3   OH239939   3.304   5.737  13.811  0.3615 -0.5998 -0.1068
 6175TIP3    H139940   3.304   5.771  13.900  0.8107 -0.1896 -0.2597
 6175TIP3    H239941   3.254   5.656  13.816  0.1233 -0.4186  0.4583
 6176TIP3   OH239942   1.082   3.169   2.217 -0.4321  0.2831  0.1531
 6176TIP3    H139943   1.148   3.102   2.202 -0.2475  0.7961 -1.4787
 6176TIP3    H239944   1.126   3.236   2.270 -0.4671 -0.6316  1.3462
 6177TIP3   OH239945   0.615   5.906  13.036 -0.3276 -0.0618 -0.7747
 6177TIP3    H139946   0.629   5.915  12.942  0.4914 -2.7817 -0.9715
 6177TIP3    H239947   0.565   5.825  13.045  0.8450 -0.6211  1.1869
 6178TIP3   OH239948   4.131   2.448   6.573 -0.1585  0.1379 -0.7034
 6178TIP3    H139949   4.158   2.458   6.664  1.6655  0.1725 -1.2217
 6178TIP3    H239950   4.118   2.353   6.562  0.2660  0.0585 -0.5565
 6179TIP3   OH239951   2.922   4.623   5.794  0.0320 -0.4878 -0.1427
 6179TIP3    H139952   2.943   4.700   5.741  0.2056  0.4091  1.1996
 6179TIP3    H239953   2.838   4.644   5.834  1.3495  0.2278  2.4010
 6180TIP3   OH239954   1.294   5.259   0.451  0.0479 -0.3373 -0.6253
 6180TIP3    H139955   1.229   5.205   0.406  1.7965 -2.5034 -0.6832
 6180TIP3    H239956   1.302   5.219   0.538  0.4838  0.5812 -0.2369
 6181TIP3   OH239957   5.735   6.512  11.184  0.2358 -0.2135  0.2395
 6181TIP3    H139958   5.723   6.563  11.104  0.7447 -1.5563 -0.7040
 6181TIP3    H239959   5.823   6.474  11.176 -0.4378 -1.8811  0.5468
 6182TIP3   OH239960   3.082   0.948  12.486 -0.0153 -0.3737 -0.1912
 6182TIP3    H139961   3.143   0.920  12.418 -1.3658 -0.2550 -1.4657
 6182TIP3    H239962   3.040   0.867  12.515  1.1445 -0.5310  1.0998
 6183TIP3   OH239963   4.375   6.123  12.286 -0.3005  0.3171  0.1123
 6183TIP3    H139964   4.414   6.124  12.373 -1.4431 -0.4768  0.6502
 6183TIP3    H239965   4.450   6.119  12.226  0.4555 -1.8582  1.1467
 6184TIP3   OH239966   1.089   6.166   1.305 -0.4393 -0.0586 -0.3416
 6184TIP3    H139967   1.116   6.250   1.343  0.8694  0.0350 -1.4598
 6184TIP3    H239968   1.018   6.136   1.362 -0.0495  1.1848  0.8296
 6185TIP3   OH239969   5.333   3.602   3.779 -0.7906  0.0587  0.1058
 6185TIP3    H139970   5.388   3.612   3.857 -1.0460  1.0420  0.1675
 6185TIP3    H239971   5.245   3.584   3.814 -1.0474  1.1990  0.0711
 6186TIP3   OH239972   1.079   3.712   0.791  0.7448  0.1642 -0.1960
 6186TIP3    H139973   1.114   3.784   0.843  0.6443  0.2766 -0.2825
 6186TIP3    H239974   1.124   3.718   0.707  0.1758  0.5986 -0.4716
 6187TIP3   OH239975   1.155   4.181  15.527 -0.1462  0.0259  0.6399
 6187TIP3    H139976   1.096   4.108  15.546 -0.2339  0.0314  0.4009
 6187TIP3    H239977   1.237   4.139  15.501 -1.3444 -0.1162 -3.3052
 6188TIP3   OH239978   6.089   1.183  13.666  0.0876  0.0883  0.0688
 6188TIP3    H139979   6.116   1.107  13.717  0.0979 -0.5752 -0.9067
 6188TIP3    H239980   6.082   1.254  13.730  1.0920 -0.4788  0.8214
 6189TIP3   OH239981   3.981   2.963  15.704  0.3182  0.0199 -0.2089
 6189TIP3    H139982   4.002   2.870  15.692 -0.4460 -0.0695 -0.8537
 6189TIP3    H239983   3.978   2.999  15.615  1.2270  0.8011  0.0662
 6190TIP3   OH239984   1.177   0.364  12.038  0.5116  0.1289 -0.1645
 6190TIP3    H139985   1.181   0.449  11.994 -2.6103  0.2326 -0.4146
 6190TIP3    H239986   1.147   0.384  12.127 -0.0878 -0.6680 -0.1721
 6191TIP3   OH239987   1.874   5.726  15.780 -0.1180 -0.4483  1.0761
 6191TIP3    H139988   1.939   5.735  15.710 -1.2586 -0.0630  0.0415
 6191TIP3    H239989   1.907   5.655  15.834  0.2962 -1.4301 -0.4298
 6192TIP3   OH239990   6.697   1.487   5.506 -0.3698  0.0544  0.1495
 6192TIP3    H139991   6.652   1.404   5.492  0.7825 -0.5009 -0.3135
 6192TIP3    H239992   6.628   1.554   5.496 -1.1007 -0.7826 -0.4362
 6193TIP3   OH239993   6.273   0.778   4.849  0.0951 -0.2650 -0.0943
 6193TIP3    H139994   6.261   0.810   4.759 -1.8982  1.1827  0.6440
 6193TIP3    H239995   6.365   0.794   4.868  0.0025  1.6115 -1.0815
 6194TIP3   OH239996   1.704   5.508   5.041  0.5640 -0.3067 -0.8724
 6194TIP3    H139997   1.701   5.597   5.005 -1.0016  0.0049  0.0022
 6194TIP3    H239998   1.638   5.508   5.110  2.4233 -1.3586  0.9649
 6195TIP3   OH239999   1.857   5.027   0.486  0.8473 -0.0531  0.8872
 6195TIP3    H140000   1.831   5.106   0.439  0.4999 -0.5655  0.2063
 6195TIP3    H240001   1.933   4.994   0.438  1.0050 -0.1241  1.1834
 6196TIP3   OH240002   1.446   2.428   2.926 -0.9015 -0.0246  0.8248
 6196TIP3    H140003   1.463   2.411   2.833 -1.0429  0.1603  0.7649
 6196TIP3    H240004   1.435   2.341   2.965 -1.3100 -0.0858  0.5778
 6197TIP3   OH240005   0.686   0.225  14.776 -0.0353  0.4949 -0.4528
 6197TIP3    H140006   0.666   0.139  14.739 -0.9731  0.2142  0.6929
 6197TIP3    H240007   0.710   0.279  14.700 -0.3936 -0.5077 -1.2807
 6198TIP3   OH240008   3.301   0.964  13.898  0.4162 -0.0361  0.2420
 6198TIP3    H140009   3.293   1.029  13.968  0.1460  0.9370 -0.6810
 6198TIP3    H240010   3.301   1.016  13.817  1.0808 -1.1268 -0.4590
 6199TIP3   OH240011   3.404   3.358   0.780 -0.5386  0.0076 -0.1377
 6199TIP3    H140012   3.472   3.295   0.805  0.1003  0.9586  0.5265
 6199TIP3    H240013   3.322   3.311   0.795 -0.1456  0.0237  2.3866
 6200TIP3   OH240014   1.982   1.708  10.297 -0.5099 -0.4357 -0.1327
 6200TIP3    H140015   1.895   1.670  10.309 -0.9895  1.2928  2.3501
 6200TIP3    H240016   2.043   1.637  10.313 -1.4408 -1.3005 -0.4028
 6201TIP3   OH240017   2.101   3.981  14.487  0.3436 -0.1236  0.0747
 6201TIP3    H140018   2.170   3.959  14.425  0.6828  2.0523 -0.3483
 6201TIP3    H240019   2.075   4.070  14.464  0.3325  0.6710  2.9314
 6202TIP3   OH240020   0.706   2.845  13.670 -0.0846  0.7281  0.2410
 6202TIP3    H140021   0.647   2.911  13.634 -1.0861 -0.2788  0.0023
 6202TIP3    H240022   0.672   2.762  13.637  1.3262  0.1134  0.3036
 6203TIP3   OH240023   5.663   2.523   0.037  0.6129  0.0287 -0.1810
 6203TIP3    H140024   5.656   2.529   0.132  1.6712  0.0889 -0.0952
 6203TIP3    H240025   5.751   2.556   0.017  1.6986 -3.0306 -0.8420
 6204TIP3   OH240026   6.597   6.014  14.470 -0.3782  0.8358 -0.1531
 6204TIP3    H140027   6.666   6.034  14.533 -2.0833 -0.9041  2.4264
 6204TIP3    H240028   6.641   5.970  14.398  1.0927 -1.6087  2.1324
 6205TIP3   OH240029   4.178   4.414  16.747 -0.6598 -0.0903  0.1719
 6205TIP3    H140030   4.216   4.332  16.777 -1.5106 -0.4981  0.1479
 6205TIP3    H240031   4.182   4.409  16.651  1.0846  0.7487  0.1955
 6206TIP3   OH240032   5.662   5.487  10.685  0.2909  0.5747 -0.0051
 6206TIP3    H140033   5.694   5.454  10.769  1.5461  3.1175  0.5760
 6206TIP3    H240034   5.581   5.533  10.708 -0.8055 -1.0336 -0.6144
 6207TIP3   OH240035   4.493   3.620   5.213 -0.1008 -0.3169 -0.0250
 6207TIP3    H140036   4.587   3.605   5.223  0.1620  0.2581 -1.5249
 6207TIP3    H240037   4.454   3.576   5.289  1.4599  0.4597  1.2743
 6208TIP3   OH240038   0.375   6.548   5.554  0.3103  0.1404 -0.1680
 6208TIP3    H140039   0.345   6.564   5.464 -1.2918  1.4921  0.5732
 6208TIP3    H240040   0.429   6.470   5.548 -0.5596 -0.3393 -2.1635
 6209TIP3   OH240041   4.921   4.653   0.099  0.4491 -0.0952  0.3882
 6209TIP3    H140042   4.900   4.655   0.006  0.3379 -3.3841  0.2683
 6209TIP3    H240043   4.836   4.663   0.143  0.2739 -0.3832  0.1144
 6210TIP3   OH240044   1.563   4.491   0.178  0.1687  0.2579 -0.4780
 6210TIP3    H140045   1.599   4.578   0.191  0.5645 -0.2172  1.7807
 6210TIP3    H240046   1.510   4.475   0.256  0.1702 -1.5593 -0.8261
 6211TIP3   OH240047   2.663   0.352   2.532  0.1060 -0.4842 -0.1350
 6211TIP3    H140048   2.693   0.262   2.520 -0.0911 -0.5767  0.0594
 6211TIP3    H240049   2.692   0.376   2.620  0.1253 -0.3715 -0.1716
 6212TIP3   OH240050   1.310   4.782  11.144 -0.1292  0.0762 -0.5658
 6212TIP3    H140051   1.386   4.724  11.140  0.5751  0.9525  0.1539
 6212TIP3    H240052   1.343   4.868  11.119 -0.4305  0.8941  1.7216
 6213TIP3   OH240053   5.310   0.612   4.625 -0.2607 -0.2928  0.1879
 6213TIP3    H140054   5.266   0.690   4.658 -1.5248 -0.5586 -0.8542
 6213TIP3    H240055   5.244   0.543   4.629  0.1063 -0.7384 -1.2304
 6214TIP3   OH240056   4.706   6.338   5.798  0.0335 -0.2596 -0.2778
 6214TIP3    H140057   4.636   6.288   5.840  1.3343 -0.1411  2.1004
 6214TIP3    H240058   4.682   6.430   5.814  0.3012 -0.2075 -0.1772
 6215TIP3   OH240059   4.953   6.596  12.762  0.1210 -0.6014  0.1088
 6215TIP3    H140060   5.045   6.622  12.765 -0.3249  0.9805  0.2529
 6215TIP3    H240061   4.911   6.645  12.832 -0.8724 -1.1877 -0.0567
 6216TIP3   OH240062   2.047   6.693  11.208 -0.8968 -0.1658  0.0182
 6216TIP3    H140063   2.110   6.675  11.138 -0.3636 -0.2360  0.5180
 6216TIP3    H240064   1.971   6.639  11.185 -1.1017  0.5495 -1.0273
 6217TIP3   OH240065   6.670   4.241  13.765  0.5085 -0.2118  0.1441
 6217TIP3    H140066   6.655   4.152  13.797  1.0450 -0.7882 -1.1815
 6217TIP3    H240067   6.758   4.238  13.727  0.6384  0.9653  0.3392
 6218TIP3   OH240068   1.433   1.196   1.598  0.0856  0.8281  0.0452
 6218TIP3    H140069   1.370   1.241   1.542  0.4704  0.9103 -0.3307
 6218TIP3    H240070   1.492   1.265   1.628 -0.8168  0.9765  1.5140
 6219TIP3   OH240071   6.623   1.774  10.710  0.1443 -0.2142 -0.4413
 6219TIP3    H140072   6.602   1.681  10.704 -0.0221 -0.1348 -1.1618
 6219TIP3    H240073   6.541   1.816  10.734 -0.2099 -0.0585 -1.8878
 6220TIP3   OH240074   5.796   5.767  14.046 -0.2969  0.3078 -0.4098
 6220TIP3    H140075   5.721   5.798  14.097  0.5865 -1.4487  2.0471
 6220TIP3    H240076   5.872   5.811  14.085  0.2564 -0.0007 -1.1151
 6221TIP3   OH240077   2.565   0.186   2.199  0.4205  0.1314  0.2348
 6221TIP3    H140078   2.623   0.118   2.166 -0.4995 -1.2005  1.2991
 6221TIP3    H240079   2.625   0.252   2.236  1.3094 -2.9212  4.6558
 6222TIP3   OH240080   5.162   4.622   4.907  0.4700  0.2965  0.3203
 6222TIP3    H140081   5.180   4.715   4.890 -1.3328  0.4851 -0.6497
 6222TIP3    H240082   5.133   4.620   4.998 -1.0487  0.9303 -0.1364
 6223TIP3   OH240083   4.733   3.206  11.446  0.2921  0.4666  0.0136
 6223TIP3    H140084   4.676   3.181  11.519 -0.4845 -0.4774 -0.8913
 6223TIP3    H240085   4.723   3.135  11.383  2.1529  0.5060 -0.3578
 6224TIP3   OH240086   1.912   6.465  11.068  0.4638  0.2932  0.0363
 6224TIP3    H140087   1.942   6.391  11.121 -0.2940  0.1559  0.2672
 6224TIP3    H240088   1.907   6.430  10.979 -2.7605 -0.7770  0.5845
 6225TIP3   OH240089   1.915   0.765   0.273 -0.3087  0.3905 -0.0348
 6225TIP3    H140090   1.886   0.683   0.312  1.4970  0.4770  1.6272
 6225TIP3    H240091   2.009   0.751   0.256 -0.2336  1.7157 -0.7420
 6226TIP3   OH240092   3.978   1.438  16.863  0.2745 -0.3745  0.7229
 6226TIP3    H140093   4.053   1.460  16.807  0.0676 -1.1317  0.1407
 6226TIP3    H240094   3.902   1.475  16.818 -0.1072 -2.3907 -0.3857
 6227TIP3   OH240095   1.936   6.589   2.614  0.5260 -0.1891  0.1648
 6227TIP3    H140096   1.956   6.552   2.700  1.5232  0.2435  0.1237
 6227TIP3    H240097   2.015   6.639   2.590 -0.1313  0.5199 -0.5516
 6228TIP3   OH240098   0.664   3.852   2.562  0.3323  0.1575 -0.4227
 6228TIP3    H140099   0.740   3.842   2.504  1.6639  0.0283  1.2772
 6228TIP3    H240100   0.617   3.769   2.555  1.0154 -0.2183 -0.6045
 6229TIP3   OH240101   0.560   1.251  14.585 -0.0963 -0.0383 -0.3869
 6229TIP3    H140102   0.497   1.235  14.514 -1.4520  2.2099  0.2782
 6229TIP3    H240103   0.630   1.187  14.569 -1.4945 -1.1227 -2.4001
 6230TIP3   OH240104   3.016   5.329  10.981 -0.1216  0.3091 -0.1882
 6230TIP3    H140105   2.941   5.323  11.041  0.6596  1.4808  0.9249
 6230TIP3    H240106   3.092   5.316  11.036  0.5092 -1.3158 -1.3939
 6231TIP3   OH240107   4.274   0.962   4.515  0.1463 -0.2396 -0.2670
 6231TIP3    H140108   4.309   0.874   4.503  1.7819  0.1292  1.6206
 6231TIP3    H240109   4.343   1.010   4.561 -0.9000  1.9080 -0.8390
 6232TIP3   OH240110   4.000   1.345  15.226 -0.0638  0.1665 -0.0693
 6232TIP3    H140111   4.083   1.346  15.179 -0.7429 -0.5159 -1.2963
 6232TIP3    H240112   3.964   1.257  15.211 -0.6448  0.1922  1.0930
 6233TIP3   OH240113   6.500   2.365   2.166 -0.0262  0.0531 -0.1401
 6233TIP3    H140114   6.534   2.282   2.135  1.1427  1.6901 -3.5561
 6233TIP3    H240115   6.406   2.360   2.149 -0.0639 -0.7861  0.2810
 6234TIP3   OH240116   4.073   6.489  12.934 -0.2730 -0.3687  0.3151
 6234TIP3    H140117   4.067   6.436  12.854  1.4889  0.6779 -0.5410
 6234TIP3    H240118   4.001   6.551  12.926  0.9266  0.8615 -1.3447
 6235TIP3   OH240119   4.869   0.144   5.454  0.2008  0.0288  0.1914
 6235TIP3    H140120   4.786   0.098   5.466 -1.0348  1.7802 -1.3434
 6235TIP3    H240121   4.848   0.217   5.396  2.6764  0.9281  0.3556
 6236TIP3   OH240122   3.518   0.630  13.193 -0.0092  1.0360  0.6731
 6236TIP3    H140123   3.542   0.639  13.285  1.0679 -1.4069  0.6625
 6236TIP3    H240124   3.600   0.612  13.148 -0.9335 -0.8124 -0.3269
 6237TIP3   OH240125   1.445   1.796  16.890  0.0090  0.1553 -0.4399
 6237TIP3    H140126   1.472   1.772  16.802  0.0313 -0.6514 -0.2218
 6237TIP3    H240127   1.349   1.793  16.887  0.0149 -2.8186  0.3173
 6238TIP3   OH240128   4.268   3.320   1.360  0.0523 -0.2231 -0.1444
 6238TIP3    H140129   4.292   3.344   1.270 -0.1882  0.5831  0.0052
 6238TIP3    H240130   4.188   3.267   1.350 -1.7108  2.3876 -0.2162
 6239TIP3   OH240131   5.488   4.883   2.858 -0.2752 -0.1096 -0.3196
 6239TIP3    H140132   5.557   4.818   2.874  0.0117  0.5067  0.9698
 6239TIP3    H240133   5.416   4.832   2.821  0.9611 -0.7252 -1.9623
 6240TIP3   OH240134   2.818   5.668  11.631  0.2936  0.1697 -0.1338
 6240TIP3    H140135   2.733   5.630  11.609 -0.6816  0.2565  3.2128
 6240TIP3    H240136   2.831   5.646  11.723  2.7720  2.2725  0.0785
 6241TIP3   OH240137   3.657   2.259   4.710 -0.4415 -0.2880 -0.7091
 6241TIP3    H140138   3.588   2.306   4.757  0.7716 -0.7425  1.5948
 6241TIP3    H240139   3.739   2.295   4.745  0.4906 -1.6570 -1.4260
 6242TIP3   OH240140   2.083   2.425  12.853 -0.2999  0.3089 -0.1955
 6242TIP3    H140141   2.091   2.418  12.948 -1.1387 -1.3114 -0.2206
 6242TIP3    H240142   2.172   2.415  12.820 -0.1268 -0.0115  0.3687
 6243TIP3   OH240143   2.307   6.702  14.566 -0.1181 -0.1813 -0.3456
 6243TIP3    H140144   2.216   6.675  14.578 -0.3414  1.2059  1.2038
 6243TIP3    H240145   2.335   6.734  14.652  1.9847 -1.0230 -0.6747
 6244TIP3   OH240146   2.071   5.902  16.715  0.2684 -0.1803  0.0298
 6244TIP3    H140147   2.079   5.961  16.641  0.1398  2.0263  1.7110
 6244TIP3    H240148   1.980   5.872  16.712 -0.4198  1.7796  0.6329
 6245TIP3   OH240149   6.376   0.366  16.975 -0.1903 -0.5187 -0.1417
 6245TIP3    H140150   6.381   0.296  17.040  1.4996 -0.4536 -0.1558
 6245TIP3    H240151   6.340   0.441  17.022 -0.2268 -0.8566  0.3757
 6246TIP3   OH240152   4.123   0.474   1.034 -0.2455  0.0288 -0.0187
 6246TIP3    H140153   4.210   0.437   1.048 -0.7678 -1.3541 -0.3453
 6246TIP3    H240154   4.139   0.565   1.011  1.0761 -0.0294  0.6439
 6247TIP3   OH240155   3.986   6.010  12.007  0.3570  0.3380 -0.8575
 6247TIP3    H140156   4.010   6.049  11.923 -1.0632 -1.7690 -2.2772
 6247TIP3    H240157   4.029   5.924  12.006 -0.1813  0.0512  0.3149
 6248TIP3   OH240158   4.725   2.426  13.959 -0.6770  0.2082  0.5888
 6248TIP3    H140159   4.740   2.359  14.026 -0.5309  0.7922  1.1525
 6248TIP3    H240160   4.713   2.507  14.009  0.0052  0.7543 -0.1142
 6249TIP3   OH240161   2.090   0.168  12.216 -0.4539 -0.1043  0.1847
 6249TIP3    H140162   2.126   0.182  12.129 -1.2377 -0.9922 -0.2848
 6249TIP3    H240163   2.123   0.082  12.243 -1.9774 -0.8034 -0.1401
 6250TIP3   OH240164   0.651   6.267  15.235 -0.7994 -0.4201  0.6535
 6250TIP3    H140165   0.718   6.223  15.182 -0.4582 -0.4085  1.0684
 6250TIP3    H240166   0.574   6.271  15.179  0.4349  2.2220 -0.9284
 6251TIP3   OH240167   1.801   0.756   0.579 -0.5885 -0.1630 -0.4239
 6251TIP3    H140168   1.798   0.686   0.514 -0.5378  0.3064 -0.9332
 6251TIP3    H240169   1.864   0.819   0.544 -2.5473  1.3777 -1.2142
 6252TIP3   OH240170   2.166   5.666   5.884  0.0703  0.4794 -0.0462
 6252TIP3    H140171   2.092   5.637   5.937  0.1879 -1.2127 -0.7843
 6252TIP3    H240172   2.143   5.640   5.795  0.4509  2.1601 -0.6589
 6253TIP3   OH240173   6.031   1.168   2.885 -0.3845 -0.0096  0.3158
 6253TIP3    H140174   6.111   1.198   2.841 -0.5030 -0.1629 -0.0006
 6253TIP3    H240175   6.056   1.164   2.978  0.8923 -2.9284 -0.0874
 6254TIP3   OH240176   1.422   6.601   0.672 -0.1110 -0.0213  0.3294
 6254TIP3    H140177   1.337   6.623   0.709 -0.7981  0.4457 -1.5004
 6254TIP3    H240178   1.411   6.610   0.577  1.0698 -2.9978 -0.1645
 6255TIP3   OH240179   1.574   0.400  16.814  0.5524 -0.0060 -0.3889
 6255TIP3    H140180   1.628   0.393  16.893 -1.2392  0.1823  0.8772
 6255TIP3    H240181   1.601   0.326  16.760  1.9091 -0.0462  0.3057
 6256TIP3   OH240182   0.128   0.212  13.404 -0.1188  0.1332 -0.0300
 6256TIP3    H140183   0.061   0.146  13.388 -0.4874  0.8412 -1.4983
 6256TIP3    H240184   0.204   0.180  13.355 -0.4888  1.0813 -1.2561
 6257TIP3   OH240185   3.292   4.636   2.875 -0.3577  0.4408 -0.3214
 6257TIP3    H140186   3.268   4.673   2.960 -0.6028 -2.3198  0.8601
 6257TIP3    H240187   3.359   4.570   2.895  0.3701  0.5013 -2.3868
 6258TIP3   OH240188   0.443   4.223   0.752  0.1171  0.7514 -0.0039
 6258TIP3    H140189   0.364   4.277   0.762 -0.6549 -0.1981 -0.7904
 6258TIP3    H240190   0.447   4.205   0.658 -0.2336 -1.4358  0.3843
 6259TIP3   OH240191   3.234   0.240  11.444 -0.5352  0.0860  0.3708
 6259TIP3    H140192   3.296   0.174  11.476  0.5947  1.0355  0.1941
 6259TIP3    H240193   3.290   0.313  11.417 -1.6113  0.1088 -1.8520
 6260TIP3   OH240194   1.321   6.530   4.633  0.3185 -0.6756 -0.0751
 6260TIP3    H140195   1.361   6.455   4.588  1.9551  1.1811 -1.8366
 6260TIP3    H240196   1.292   6.588   4.562  2.0165  1.8607  1.1981
 6261TIP3   OH240197   0.577   1.792   0.875  0.6576 -0.1399  0.0448
 6261TIP3    H140198   0.516   1.856   0.913  0.7286 -0.1129  0.1139
 6261TIP3    H240199   0.657   1.802   0.926  0.3949 -0.8760  0.6211
 6262TIP3   OH240200   0.143   0.831   0.337 -0.3922 -0.3187  0.2135
 6262TIP3    H140201   0.050   0.852   0.347  0.3296  2.4115  1.4968
 6262TIP3    H240202   0.176   0.824   0.426  0.8776 -0.2686 -0.2500
 6263TIP3   OH240203   3.633   0.295   5.411  0.4094  0.2790  0.2891
 6263TIP3    H140204   3.710   0.274   5.358  0.2884 -0.3729  0.3627
 6263TIP3    H240205   3.634   0.229   5.481  0.1418  0.6613  0.6500
 6264TIP3   OH240206   0.659   5.608   3.890 -0.8450  0.1036 -0.0112
 6264TIP3    H140207   0.651   5.703   3.896 -1.0170  0.1107 -0.3256
 6264TIP3    H240208   0.615   5.586   3.808  2.7739  0.1808 -2.0478
 6265TIP3   OH240209   2.885   0.388   0.024 -0.2683  0.0520  0.2707
 6265TIP3    H140210   2.897   0.298   0.054  1.0122  0.1985  0.2405
 6265TIP3    H240211   2.891   0.441   0.103  0.3230  0.2123  0.1220
 6266TIP3   OH240212   4.402   6.695  12.255  0.0435 -0.7995  0.1513
 6266TIP3    H140213   4.464   6.736  12.315  1.0079 -0.5151 -1.0170
 6266TIP3    H240214   4.411   6.601  12.273 -0.4894 -0.6635  1.2102
 6267TIP3   OH240215   3.402   3.576  11.578 -0.2461 -0.2098  0.2759
 6267TIP3    H140216   3.433   3.492  11.545 -0.4188  0.1191 -0.7352
 6267TIP3    H240217   3.315   3.558  11.614  0.3232 -0.7561  1.4193
 6268TIP3   OH240218   5.345   5.355  13.350 -0.4155  0.1688  0.3443
 6268TIP3    H140219   5.369   5.421  13.415 -0.1427  1.0727 -0.6650
 6268TIP3    H240220   5.334   5.274  13.400  0.3900  0.7271  1.4174
 6269TIP3   OH240221   4.073   0.265  11.090  0.0210  0.4116  0.2212
 6269TIP3    H140222   4.086   0.334  11.025  1.0763 -0.1669 -0.1963
 6269TIP3    H240223   4.027   0.308  11.162 -1.6990  0.9092 -1.1543
 6270TIP3   OH240224   5.934   0.358  11.550 -0.1012 -0.0349 -0.0932
 6270TIP3    H140225   5.896   0.322  11.470  1.2405  0.1328 -0.8244
 6270TIP3    H240226   5.940   0.283  11.609 -1.3763 -0.1001 -0.0383
 6271TIP3   OH240227   4.706   5.625   0.158 -0.0277 -0.1738  0.5155
 6271TIP3    H140228   4.748   5.547   0.120  0.5000  0.5286 -0.3599
 6271TIP3    H240229   4.660   5.592   0.235  1.2200 -1.1450  0.8654
 6272TIP3   OH240230   6.285   5.878  12.346 -0.1491 -0.0599  0.8875
 6272TIP3    H140231   6.318   5.812  12.408 -2.1586 -0.3573  1.6897
 6272TIP3    H240232   6.357   5.941  12.337  0.2733 -0.1526  3.3259
 6273TIP3   OH240233   5.683   6.036   2.215 -0.8152 -0.4112  0.2981
 6273TIP3    H140234   5.699   6.130   2.205 -0.2148 -0.1181  3.6824
 6273TIP3    H240235   5.591   6.031   2.242 -0.8548 -0.8215  0.0891
 6274TIP3   OH240236   5.160   2.212  14.669 -0.2536 -0.4896 -0.2187
 6274TIP3    H140237   5.114   2.245  14.747 -0.6725 -2.2517  0.3017
 6274TIP3    H240238   5.251   2.208  14.696  0.4716  3.8539 -1.5331
 6275TIP3   OH240239   6.694   0.835   3.968  0.4788 -0.3482 -0.3635
 6275TIP3    H140240   6.602   0.850   3.945  0.6433 -0.6388 -1.2071
 6275TIP3    H240241   6.734   0.922   3.966  0.3999 -0.3213 -0.7640
 6276TIP3   OH240242   3.273   3.290   0.474 -0.2668  0.3893 -0.4843
 6276TIP3    H140243   3.219   3.339   0.537  0.5522 -1.0517  1.4042
 6276TIP3    H240244   3.239   3.201   0.478 -0.8513  0.4691 -2.8831
 6277TIP3   OH240245   0.115   4.492  16.189 -0.0124 -0.6591  0.5223
 6277TIP3    H140246   0.046   4.524  16.248  0.2925 -0.7290  0.9120
 6277TIP3    H240247   0.082   4.514  16.102  0.2207  0.7940  0.7830
 6278TIP3   OH240248   6.543   1.379  12.723  0.0325  0.7617  0.2253
 6278TIP3    H140249   6.463   1.327  12.728  0.2025  0.4825  0.0346
 6278TIP3    H240250   6.577   1.381  12.813 -0.6475  1.6053  0.4729
 6279TIP3   OH240251   6.126   4.848  17.232 -0.3957  0.2904 -0.2157
 6279TIP3    H140252   6.039   4.817  17.204  0.6731 -1.1661 -2.0143
 6279TIP3    H240253   6.184   4.773  17.216  1.3726  1.6008 -0.0030
 6280TIP3   OH240254   6.431   1.752   3.352  0.0112 -0.5077  0.3379
 6280TIP3    H140255   6.453   1.799   3.432 -0.4395 -0.8095  0.6450
 6280TIP3    H240256   6.410   1.663   3.381  1.3354 -1.0424 -0.2865
 6281TIP3   OH240257   6.424   0.295  11.014  0.5936  0.1602  0.3142
 6281TIP3    H140258   6.385   0.371  11.057  0.2101  0.1150  0.0391
 6281TIP3    H240259   6.350   0.240  10.991  0.7076  0.8047 -1.6205
 6282TIP3   OH240260   1.505   2.674  13.816  0.6691  0.3289 -0.1365
 6282TIP3    H140261   1.436   2.720  13.768  2.8691  0.7280 -3.0266
 6282TIP3    H240262   1.520   2.727  13.894 -1.8652  0.5348  0.2538
 6283TIP3   OH240263   5.251   4.847   2.760  0.3366 -0.1002 -0.3034
 6283TIP3    H140264   5.155   4.853   2.757  0.2657 -1.4426 -1.2496
 6283TIP3    H240265   5.279   4.867   2.670  1.0816  2.2030  0.4208
 6284TIP3   OH240266   5.841   1.774  11.628  0.6063  0.2224  0.0457
 6284TIP3    H140267   5.819   1.738  11.714  2.7164  0.9733  0.9410
 6284TIP3    H240268   5.913   1.719  11.598  0.3571  0.4338 -0.9327
 6285TIP3   OH240269   2.826   0.649   3.138  0.4355 -0.2609 -1.0454
 6285TIP3    H140270   2.806   0.739   3.163  2.5921 -0.0440  0.0340
 6285TIP3    H240271   2.786   0.596   3.207 -0.7352 -0.1416 -1.6198
 6286TIP3   OH240272   6.430   1.112   3.118  0.1471  0.1048  0.2202
 6286TIP3    H140273   6.501   1.156   3.071  0.1362  0.0538  0.1565
 6286TIP3    H240274   6.403   1.176   3.185 -0.3141  0.4627 -0.3025
 6287TIP3   OH240275   5.424   4.105  12.380 -0.0713  0.6150  0.0546
 6287TIP3    H140276   5.416   4.106  12.285 -1.2062  0.5269  0.1415
 6287TIP3    H240277   5.343   4.144  12.412  0.6038  1.2964  0.9734
 6288TIP3   OH240278   4.889   2.190  17.104 -0.3886  0.2210 -0.5623
 6288TIP3    H140279   4.951   2.122  17.076  0.9790  1.1622  0.1659
 6288TIP3    H240280   4.941   2.269  17.111 -1.6638  1.0190  0.1380
 6289TIP3   OH240281   2.073   6.240   1.475 -0.2644  0.3054  0.5004
 6289TIP3    H140282   2.017   6.302   1.429  0.8345  0.4610 -0.6567
 6289TIP3    H240283   2.012   6.173   1.509 -1.3893  1.7149  1.3109
 6290TIP3   OH240284   5.434   0.241  13.145  0.5435 -0.3512 -0.3268
 6290TIP3    H140285   5.425   0.296  13.067 -0.1301  0.9607  0.6581
 6290TIP3    H240286   5.355   0.188  13.147  0.9962 -1.0526 -1.0510
 6291TIP3   OH240287   1.176   0.893   3.947 -0.0935  0.7006  0.1662
 6291TIP3    H140288   1.239   0.821   3.950 -1.7763 -0.8796 -1.5119
 6291TIP3    H240289   1.230   0.973   3.948  1.7684 -0.5243  2.8661
 6292TIP3   OH240290   0.873   4.562   2.790 -0.4483 -0.3365  0.8906
 6292TIP3    H140291   0.838   4.616   2.861 -0.3126 -0.9809  1.4496
 6292TIP3    H240292   0.855   4.472   2.816  0.5951 -0.6297  0.6420
 6293TIP3   OH240293   4.230   2.950   2.849 -0.2980 -0.0564  0.5508
 6293TIP3    H140294   4.239   3.039   2.815 -0.6889 -0.3381 -0.3091
 6293TIP3    H240295   4.285   2.897   2.790 -1.7480 -0.6959 -0.2473
 6294TIP3   OH240296   0.137   5.799  13.140  0.3253 -0.0569 -0.4671
 6294TIP3    H140297   0.052   5.804  13.184  0.5286  1.6634 -0.2297
 6294TIP3    H240298   0.200   5.823  13.208  0.8223  0.5786 -1.1437
 6295TIP3   OH240299   0.152   5.772   0.039  0.0951  0.0570 -0.4581
 6295TIP3    H140300   0.226   5.711   0.048 -0.9048 -0.7180  3.2279
 6295TIP3    H240301   0.085   5.722  -0.007  0.0926 -0.9072  0.5704
 6296TIP3   OH240302   6.256   3.471  11.231 -0.0135  0.3952  0.3741
 6296TIP3    H140303   6.346   3.498  11.213 -0.2432  0.2719 -1.0115
 6296TIP3    H240304   6.261   3.375  11.237 -0.0214  0.4000  0.4544
 6297TIP3   OH240305   4.566   0.580  14.900 -0.5705  0.0115  0.0862
 6297TIP3    H140306   4.590   0.487  14.893  2.6773  0.8293 -0.7774
 6297TIP3    H240307   4.579   0.614  14.812  0.8523  1.7979  0.9473
 6298TIP3   OH240308   6.048   1.736  11.023  0.3152  0.4459 -0.2765
 6298TIP3    H140309   6.102   1.755  11.100 -1.9764 -1.6627  1.9346
 6298TIP3    H240310   6.055   1.642  11.011 -1.5385  0.3652 -0.9405
 6299TIP3   OH240311   6.685   0.619  11.449 -0.2135  0.5232 -0.1013
 6299TIP3    H140312   6.620   0.556  11.418  2.1121 -2.0980  0.1225
 6299TIP3    H240313   6.719   0.659  11.369 -1.2380  1.0321 -0.2868
 6300TIP3   OH240314   4.799   3.274   5.589 -0.8309  0.0419  0.1877
 6300TIP3    H140315   4.752   3.262   5.507 -3.0173 -2.3262  1.7034
 6300TIP3    H240316   4.874   3.214   5.583  0.1266  1.3101 -0.8355
 6301TIP3   OH240317   4.051   2.649   5.425  0.5151  0.1638  0.1460
 6301TIP3    H140318   3.992   2.718   5.395 -0.1373 -0.5047 -0.1159
 6301TIP3    H240319   4.115   2.695   5.479  0.8088  1.1515 -1.0268
 6302TIP3   OH240320   0.661   3.999  16.081  0.3022 -0.9898  0.2260
 6302TIP3    H140321   0.728   3.984  16.148  0.3823  1.0860  0.6560
 6302TIP3    H240322   0.699   3.965  16.000  2.3304  1.0282  0.2639
 6303TIP3   OH240323   3.766   3.011   5.024  0.1843  0.3389  0.3107
 6303TIP3    H140324   3.834   3.010   4.956  1.8201 -0.8510  1.9382
 6303TIP3    H240325   3.798   3.072   5.090  0.4715 -1.4201  1.8506
 6304TIP3   OH240326   1.238   4.575   5.766 -0.3480 -0.2224 -0.3790
 6304TIP3    H140327   1.162   4.616   5.725 -0.9436  0.7193  1.5958
 6304TIP3    H240328   1.219   4.481   5.761  0.2697 -0.2221 -3.4657
 6305TIP3   OH240329   2.262   4.664   4.844 -0.1929  0.8779 -0.2976
 6305TIP3    H140330   2.196   4.638   4.908  0.4434  0.1914  0.0782
 6305TIP3    H240331   2.315   4.730   4.889  0.5519  0.0454  0.0492
 6306TIP3   OH240332   1.743   3.230   4.202 -0.2362 -0.2595 -0.2314
 6306TIP3    H140333   1.837   3.235   4.184 -0.1032 -0.3169  0.4211
 6306TIP3    H240334   1.731   3.285   4.279 -0.6438 -0.6912  0.0159
 6307TIP3   OH240335   3.512   4.331  12.255  0.3423 -0.5125  0.3752
 6307TIP3    H140336   3.497   4.371  12.169 -0.3892 -2.8647 -0.6236
 6307TIP3    H240337   3.440   4.364  12.309 -1.6145 -2.2685 -1.0865
 6308TIP3   OH240338   4.654   2.297   1.411  0.5371  0.4171  0.1946
 6308TIP3    H140339   4.584   2.301   1.346  0.0320 -0.1788  0.6919
 6308TIP3    H240340   4.646   2.380   1.459 -0.1801  0.1226  0.5979
 6309TIP3   OH240341   4.126   2.675  13.657  0.2390 -0.8010  0.0278
 6309TIP3    H140342   4.173   2.757  13.675  1.4389 -1.0630 -1.8190
 6309TIP3    H240343   4.066   2.698  13.586  1.1446 -1.6998 -1.0417
 6310TIP3   OH240344   4.789   3.009   5.036  0.8006 -0.3647 -0.4021
 6310TIP3    H140345   4.883   2.992   5.036  0.8593 -0.0797  0.7426
 6310TIP3    H240346   4.750   2.925   5.056  0.8746 -0.1765  0.5285
 6311TIP3   OH240347   2.495   2.248   1.434 -0.1160  0.2652 -0.2734
 6311TIP3    H140348   2.530   2.293   1.357 -2.0411  0.9193 -0.8017
 6311TIP3    H240349   2.572   2.215   1.480  0.9924 -1.8175 -3.4902
 6312TIP3   OH240350   2.423   1.527  14.588 -0.3623  0.2092  0.2245
 6312TIP3    H140351   2.363   1.562  14.522  0.0921 -1.7153 -1.2751
 6312TIP3    H240352   2.379   1.449  14.621  0.4534 -0.1310  0.5224
 6313TIP3   OH240353   6.153   4.036   1.993 -0.1125 -1.0487  0.1116
 6313TIP3    H140354   6.158   4.046   2.089 -1.1224 -0.0915  0.0846
 6313TIP3    H240355   6.124   3.946   1.980 -0.0016 -1.1777  0.7090
 6314TIP3   OH240356   5.192   0.904  16.248 -0.1017 -0.2474  0.2244
 6314TIP3    H140357   5.219   0.966  16.316 -0.1000 -1.2821  1.1708
 6314TIP3    H240358   5.239   0.934  16.170  2.0472 -0.6723  1.2983
 6315TIP3   OH240359   2.200   4.501   0.509 -0.1192  0.1499  0.1981
 6315TIP3    H140360   2.294   4.510   0.492 -0.1840 -0.5268 -0.5131
 6315TIP3    H240361   2.158   4.561   0.447 -0.3070 -1.6987 -1.5073
 6316TIP3   OH240362   1.367   0.375  16.479 -0.3461  0.0224  0.2798
 6316TIP3    H140363   1.325   0.387  16.564  0.7376  1.6539  0.6278
 6316TIP3    H240364   1.368   0.281  16.465  0.3262 -0.3360  2.5330
 6317TIP3   OH240365   0.048   5.555  14.969  0.6302  0.5445  0.1978
 6317TIP3    H140366   0.040   5.605  14.888  1.6549 -1.3206 -1.0874
 6317TIP3    H240367  -0.018   5.486  14.962 -0.8287  1.6763  1.9937
 6318TIP3   OH240368   5.327   0.962  17.060  0.4431  0.2415 -0.4242
 6318TIP3    H140369   5.311   0.892  17.122  1.5704 -1.7605 -2.3336
 6318TIP3    H240370   5.242   0.978  17.018  0.2590 -0.2399 -0.2342
 6319TIP3   OH240371   0.627   0.396  12.944 -0.7775 -0.1337 -0.5116
 6319TIP3    H140372   0.542   0.374  12.984 -1.3238  0.1084 -1.5137
 6319TIP3    H240373   0.609   0.476  12.894  0.4320  0.8325  0.5694
 6320TIP3   OH240374   2.962   3.906  15.934  0.2645  0.0628 -0.0096
 6320TIP3    H140375   2.894   3.966  15.903  0.7119  1.4210  1.5836
 6320TIP3    H240376   3.019   3.959  15.988  1.4602 -1.5149  0.3254
 6321TIP3   OH240377   4.631   6.082  12.170  0.4558 -0.3085 -0.3529
 6321TIP3    H140378   4.714   6.121  12.200  0.4566  0.1052 -0.8847
 6321TIP3    H240379   4.646   6.063  12.077 -0.1541  0.0539 -0.5278
 6322TIP3   OH240380   2.060   0.201  14.801  0.3282 -0.0419  0.0701
 6322TIP3    H140381   2.072   0.295  14.820  0.3226 -0.4449  2.1769
 6322TIP3    H240382   1.965   0.187  14.809 -0.0152  0.2595 -2.7831
 6323TIP3   OH240383   1.139   0.066  13.187 -0.3916  0.1883 -0.0747
 6323TIP3    H140384   1.077   0.139  13.189 -0.0365  0.4696  1.2967
 6323TIP3    H240385   1.192   0.077  13.266 -0.8998 -2.0461  0.6116
 6324TIP3   OH240386   4.367   6.246   2.007  0.4370  0.5435 -0.6017
 6324TIP3    H140387   4.461   6.246   1.990  0.5672 -1.2045  0.0547
 6324TIP3    H240388   4.328   6.211   1.927  0.2802  1.7574 -1.0761
 6325TIP3   OH240389   4.503   4.327   2.891 -0.1750 -0.2161  0.8347
 6325TIP3    H140390   4.521   4.415   2.923 -0.0782  0.7664 -1.8420
 6325TIP3    H240391   4.417   4.333   2.850 -1.2919 -1.9950  2.7934
 6326TIP3   OH240392   2.208   1.959  16.415 -0.3478  0.2913 -0.0023
 6326TIP3    H140393   2.156   1.882  16.394  0.3305 -0.8969  2.4812
 6326TIP3    H240394   2.157   2.005  16.482  0.6985  0.2934  0.8221
 6327TIP3   OH240395   5.376   3.084   0.136  0.4433  0.3236  0.7549
 6327TIP3    H140396   5.448   3.124   0.087  0.8212  1.1799  1.9869
 6327TIP3    H240397   5.386   2.990   0.120 -0.8320  0.6960 -2.6841
 6328TIP3   OH240398   3.112   0.287   5.636  0.3219  0.0216  0.0126
 6328TIP3    H140399   3.079   0.202   5.605 -0.1734  0.1824  0.1003
 6328TIP3    H240400   3.075   0.351   5.575 -1.4468  0.4445  1.4837
 6329TIP3   OH240401   1.704   2.019  17.205 -0.4586  0.1078 -0.2886
 6329TIP3    H140402   1.785   1.974  17.180  0.2916  1.3198 -0.0779
 6329TIP3    H240403   1.698   2.007  17.300 -1.3811 -1.3501 -0.5153
 6330TIP3   OH240404   3.333   5.267  15.993 -0.0748 -0.0841 -0.5811
 6330TIP3    H140405   3.388   5.329  15.946  0.6268 -0.1037  0.1972
 6330TIP3    H240406   3.394   5.213  16.042 -0.7360 -0.7806 -0.5213
 6331TIP3   OH240407   0.670   6.631   3.626 -0.4591 -1.0559 -0.4539
 6331TIP3    H140408   0.583   6.646   3.589 -1.4173  0.4036  2.2614
 6331TIP3    H240409   0.686   6.537   3.611 -1.9305 -1.0811 -2.0879
 6332TIP3   OH240410   0.739   0.033   2.979 -0.7690 -0.0524  0.6469
 6332TIP3    H140411   0.692   0.046   3.062 -0.7903  0.4739  0.5550
 6332TIP3    H240412   0.829   0.012   3.006 -0.6184  0.7572  0.8011
 6333TIP3   OH240413   1.050   2.143  12.721 -0.6111 -0.6077 -0.1538
 6333TIP3    H140414   1.055   2.215  12.784  1.8676 -1.1310  0.3367
 6333TIP3    H240415   1.026   2.184  12.638 -0.5149  0.5882  0.4070
 6334TIP3   OH240416   6.380   6.698  13.744 -0.4472 -0.0676 -0.2690
 6334TIP3    H140417   6.370   6.699  13.839  0.0339  2.2542 -0.2049
 6334TIP3    H240418   6.357   6.787  13.717  1.5493 -0.0619 -2.0745
 6335TIP3   OH240419   4.319   6.475  16.344 -0.3687  0.0773 -0.0336
 6335TIP3    H140420   4.374   6.512  16.413 -2.1491  3.3273 -0.2149
 6335TIP3    H240421   4.380   6.454  16.273  0.9544  1.2263  0.7288
 6336TIP3   OH240422   2.032   6.112  12.454 -0.4567  0.3296  0.1388
 6336TIP3    H140423   2.097   6.171  12.417  0.1209 -0.1321  0.4120
 6336TIP3    H240424   2.043   6.119  12.549 -1.9463  1.5179  0.2445
 6337TIP3   OH240425   6.473   6.677   2.517  0.1185 -0.3037  0.8703
 6337TIP3    H140426   6.548   6.618   2.515 -0.4574 -1.0479  0.9063
 6337TIP3    H240427   6.510   6.762   2.538  0.7124 -1.0305  2.8991
 6338TIP3   OH240428   3.151   2.207   2.223  0.5563 -0.5396 -0.1501
 6338TIP3    H140429   3.209   2.163   2.285  2.5511  2.0099 -0.1434
 6338TIP3    H240430   3.209   2.241   2.155 -1.1708  0.2707 -1.2713
 6339TIP3   OH240431   1.996   1.820   4.958  0.1383 -0.0138  0.1266
 6339TIP3    H140432   2.058   1.793   5.026  0.1293 -1.8679 -0.5612
 6339TIP3    H240433   1.912   1.821   5.003  0.4007  0.6140  0.6032
 6340TIP3   OH240434   5.415   2.535  16.637 -0.1399  0.0929  0.5474
 6340TIP3    H140435   5.414   2.491  16.721  0.5098  1.2249  1.1637
 6340TIP3    H240436   5.487   2.597  16.643  1.0546 -1.0353 -1.4870
 6341TIP3   OH240437   4.582   3.435  13.072  0.0686  0.3876  0.0091
 6341TIP3    H140438   4.515   3.419  13.006  0.7024 -0.4985 -0.4231
 6341TIP3    H240439   4.542   3.499  13.131 -0.5776  1.0321 -1.1053
 6342TIP3   OH240440   4.093   3.262  13.016  0.3513 -0.2321 -0.2468
 6342TIP3    H140441   4.103   3.167  13.015  0.3880 -0.2274 -0.3573
 6342TIP3    H240442   4.172   3.294  12.970  0.4307 -0.1420 -0.0458
 6343TIP3   OH240443   0.917   4.355   0.551  0.2301  0.7598  0.4509
 6343TIP3    H140444   0.862   4.308   0.614  1.1177  0.2064  0.8257
 6343TIP3    H240445   0.910   4.303   0.471 -1.4908  1.8751 -0.1316
 6344TIP3   OH240446   5.020   3.927   2.700 -0.3537  0.6027  0.0740
 6344TIP3    H140447   5.057   3.996   2.644  1.0488 -1.1130 -1.1635
 6344TIP3    H240448   4.960   3.879   2.643  1.5908 -1.5819 -0.2362
 6345TIP3   OH240449   5.736   4.103   5.207 -0.4222 -0.0724 -0.2652
 6345TIP3    H140450   5.694   4.165   5.147 -0.5106  0.3199  0.2053
 6345TIP3    H240451   5.709   4.131   5.294 -0.8659 -1.0660 -0.0690
 6346TIP3   OH240452   0.221   2.416   1.289  0.0353 -0.4343  0.4362
 6346TIP3    H140453   0.203   2.510   1.282  0.5364 -0.1298  2.8047
 6346TIP3    H240454   0.315   2.411   1.306  0.2581 -1.4542 -1.0256
 6347TIP3   OH240455   0.306   3.515  14.512 -0.1135  0.0392  0.2568
 6347TIP3    H140456   0.371   3.572  14.554 -0.0214  0.3080 -0.2448
 6347TIP3    H240457   0.224   3.535  14.557 -0.1696  0.8966 -0.2183
 6348TIP3   OH240458   1.602   4.078   1.239  0.1953  0.3757 -0.2018
 6348TIP3    H140459   1.599   4.174   1.237  1.3821  0.4041 -1.3323
 6348TIP3    H240460   1.629   4.053   1.150  1.1160 -0.9504  0.4305
 6349TIP3   OH240461   3.438   1.947   1.827  0.5552 -0.0390  0.2400
 6349TIP3    H140462   3.439   1.861   1.870  1.2922 -0.0370  0.2483
 6349TIP3    H240463   3.510   1.995   1.870  0.5451  0.3648 -0.1926
 6350TIP3   OH240464   2.978   2.527  11.930  0.1664 -0.1570 -0.7203
 6350TIP3    H140465   2.935   2.488  12.006 -0.3819 -0.3826 -1.1373
 6350TIP3    H240466   3.018   2.607  11.963  1.4953 -1.1830  0.1968
 6351TIP3   OH240467   1.510   4.180  10.597  0.6702  0.4036  0.4878
 6351TIP3    H140468   1.498   4.220  10.511 -1.9656  0.4095  0.8262
 6351TIP3    H240469   1.489   4.087  10.583  0.7335  0.3079  1.0150
 6352TIP3   OH240470   2.541   1.958  14.869  0.2115 -0.5997  0.0262
 6352TIP3    H140471   2.592   1.901  14.812  0.1083 -0.3370 -0.3264
 6352TIP3    H240472   2.473   1.901  14.906  0.7404 -0.9420  0.4731
 6353TIP3   OH240473   1.253   4.587   4.324 -0.2129  0.1951  0.3920
 6353TIP3    H140474   1.274   4.543   4.242 -0.0354  0.7918  0.1183
 6353TIP3    H240475   1.212   4.669   4.298  0.9185  0.9292  0.8698
 6354TIP3   OH240476   1.786   3.273   3.013 -0.3192  0.0594 -0.0003
 6354TIP3    H140477   1.729   3.205   3.049 -0.2226 -0.4421 -0.7709
 6354TIP3    H240478   1.855   3.284   3.078  0.0503 -1.0882 -0.1889
 6355TIP3   OH240479   1.281   6.210  11.892  0.1010 -0.4734 -0.0907
 6355TIP3    H140480   1.349   6.250  11.838  0.7006 -1.7908 -0.3498
 6355TIP3    H240481   1.305   6.233  11.981 -0.9017  1.7279 -0.3526
 6356TIP3   OH240482   0.104   3.538  14.696 -0.2579 -0.3090 -0.7667
 6356TIP3    H140483   0.113   3.454  14.740 -1.7973  0.0563  0.2971
 6356TIP3    H240484   0.021   3.533  14.649 -1.3106  1.2270  0.8108
 6357TIP3   OH240485   4.541   6.629  13.525  0.6077 -0.3502 -0.2619
 6357TIP3    H140486   4.523   6.723  13.519 -1.3920 -0.5806  1.4509
 6357TIP3    H240487   4.547   6.612  13.619 -2.3064 -2.5023 -0.4189
 6358TIP3   OH240488   0.648   2.398  14.811  0.2005 -0.0146  0.5570
 6358TIP3    H140489   0.644   2.460  14.738 -1.2945 -0.2387  0.4301
 6358TIP3    H240490   0.638   2.312  14.769 -0.0118 -0.1859  0.9572
 6359TIP3   OH240491   4.688   2.651  13.114 -0.0309  0.7334 -0.5316
 6359TIP3    H140492   4.741   2.724  13.082  0.5225  0.7864  0.4865
 6359TIP3    H240493   4.660   2.678  13.202 -0.1929 -0.0896 -0.3254
 6360TIP3   OH240494   1.679   1.967   1.792 -0.9492  0.0701 -0.1585
 6360TIP3    H140495   1.642   1.909   1.859  1.5155 -1.2848  0.0853
 6360TIP3    H240496   1.733   2.028   1.841  0.3337 -0.5138 -0.8318
 6361TIP3   OH240497   1.989   1.985   0.716 -0.5081 -0.3729 -0.5820
 6361TIP3    H140498   1.912   1.928   0.708 -0.2317 -1.0751  1.2978
 6361TIP3    H240499   2.041   1.944   0.786  0.2508  1.5682  0.0145
 6362TIP3   OH240500   4.499   5.483  15.399 -0.2873  0.0181 -0.0378
 6362TIP3    H140501   4.444   5.540  15.347  0.9698  1.9906  0.7210
 6362TIP3    H240502   4.532   5.418  15.337 -2.3045 -0.3270 -0.7712
 6363TIP3   OH240503   3.564   6.014   4.673  0.3202 -0.4033  0.3155
 6363TIP3    H140504   3.625   6.050   4.609  1.0499 -0.6630  0.8584
 6363TIP3    H240505   3.620   5.978   4.742 -0.4003 -2.0694  0.0576
 6364TIP3   OH240506   5.031   4.952  16.491  0.1500 -0.2068 -0.6014
 6364TIP3    H140507   5.018   5.041  16.458 -1.7442  0.1837  1.1531
 6364TIP3    H240508   5.064   4.964  16.580 -0.4950 -1.2722 -0.2181
 6365TIP3   OH240509   3.594   0.196   4.818 -0.1679 -0.1938  0.6048
 6365TIP3    H140510   3.675   0.246   4.829 -0.1407 -0.1333  0.1236
 6365TIP3    H240511   3.536   0.228   4.887 -0.2276  0.6493  0.1646
 6366TIP3   OH240512   2.449   3.591   5.628 -0.2512 -0.2829  0.2509
 6366TIP3    H140513   2.455   3.501   5.598 -0.0722  0.3765 -1.7594
 6366TIP3    H240514   2.355   3.611   5.624 -0.2443 -0.2441  0.2731
 6367TIP3   OH240515   5.936   1.090  11.072  0.6294 -0.0447 -0.7152
 6367TIP3    H140516   5.937   1.055  11.161  0.9217 -0.3624 -0.8431
 6367TIP3    H240517   6.005   1.157  11.072  1.8358 -1.2773 -1.1969
 6368TIP3   OH240518   2.355   2.869  14.045 -0.2809  0.4972 -0.2003
 6368TIP3    H140519   2.291   2.828  13.987 -0.9050  0.2081  0.6692
 6368TIP3    H240520   2.303   2.930  14.098  0.4786  1.6687 -0.7927
 6369TIP3   OH240521   3.691   0.694  15.537  0.9247  0.4871  0.2355
 6369TIP3    H140522   3.662   0.736  15.618  1.1143  1.5708 -0.2426
 6369TIP3    H240523   3.611   0.680  15.486  0.6355 -1.5194  1.2055
 6370TIP3   OH240524   3.638   5.981  17.032 -0.6329  0.1711 -0.0283
 6370TIP3    H140525   3.628   6.053  17.094  1.4029 -1.0741  1.8304
 6370TIP3    H240526   3.606   5.904  17.078 -0.7920 -0.4706 -1.1896
 6371TIP3   OH240527   5.176   3.668   4.995 -0.5251  0.4338  0.5405
 6371TIP3    H140528   5.105   3.623   5.041 -0.5388 -0.5887 -0.4702
 6371TIP3    H240529   5.214   3.601   4.938 -0.1117  1.5301 -0.4786
 6372TIP3   OH240530   4.183   1.707   2.763 -0.1740  0.4256 -0.0592
 6372TIP3    H140531   4.217   1.781   2.812 -2.9919  0.9652  1.1707
 6372TIP3    H240532   4.168   1.639   2.828  0.0536 -0.3553 -0.8061
 6373TIP3   OH240533   0.977   0.439  12.701  0.1080  0.2051 -0.5102
 6373TIP3    H140534   1.031   0.498  12.754 -1.6809  1.7116 -0.3649
 6373TIP3    H240535   0.896   0.486  12.687 -0.7569 -1.6068 -1.7023
 6374TIP3   OH240536   6.401   2.611  16.860  0.3292 -0.5362  0.1538
 6374TIP3    H140537   6.423   2.525  16.824 -2.0871 -0.5076 -1.4747
 6374TIP3    H240538   6.305   2.615  16.857  0.4281  2.7604 -1.2094
 6375TIP3   OH240539   2.866   2.197  12.136 -0.2504  0.4224  0.3517
 6375TIP3    H140540   2.923   2.172  12.063  2.1738 -0.2258  2.3821
 6375TIP3    H240541   2.894   2.286  12.158 -1.0122  0.6387  0.4572
 6376TIP3   OH240542   3.084   5.111  12.279  0.5128  0.3886 -0.1396
 6376TIP3    H140543   3.002   5.140  12.240 -0.3892 -0.2772  1.2074
 6376TIP3    H240544   3.149   5.176  12.251 -0.4194  0.7971 -1.3926
 6377TIP3   OH240545   4.227   4.068   2.480 -0.2140 -0.4599 -0.1224
 6377TIP3    H140546   4.299   4.007   2.466 -0.6714 -1.0200 -0.0855
 6377TIP3    H240547   4.170   4.055   2.404  0.4888  1.0883 -0.9240
 6378TIP3   OH240548   0.386   6.422  12.058 -0.2984 -0.2179 -0.7489
 6378TIP3    H140549   0.319   6.374  12.106  0.2480 -1.9694 -1.6736
 6378TIP3    H240550   0.450   6.448  12.124 -0.3369 -1.2486 -0.2978
 6379TIP3   OH240551   1.681   4.712  14.779  0.7070  0.2470 -0.3858
 6379TIP3    H140552   1.715   4.665  14.856 -1.2342 -0.9088 -0.1877
 6379TIP3    H240553   1.696   4.652  14.706 -0.2249  0.0213 -0.4015
 6380TIP3   OH240554   4.165   3.566  16.007  0.3158 -0.0543  0.2735
 6380TIP3    H140555   4.252   3.585  16.041 -0.4736  1.0999  1.6917
 6380TIP3    H240556   4.153   3.472  16.025 -0.1984  0.5805  3.5221
 6381TIP3   OH240557   3.878   2.394   0.454  0.0831  0.2385 -0.2637
 6381TIP3    H140558   3.955   2.404   0.509  0.3444  2.0500 -0.9436
 6381TIP3    H240559   3.889   2.308   0.412  0.9418 -0.1861  0.8185
 6382TIP3   OH240560   0.200   0.019  14.778  0.5243  0.0735 -0.0216
 6382TIP3    H140561   0.209  -0.075  14.764 -0.6061 -0.1832  0.8469
 6382TIP3    H240562   0.120   0.028  14.830  1.2697  1.4254  0.9295
 6383TIP3   OH240563   3.078   2.690  16.470 -0.3724 -0.5204 -0.3273
 6383TIP3    H140564   3.051   2.775  16.505  2.4946  0.2881  0.0418
 6383TIP3    H240565   3.055   2.693  16.378 -1.3015  0.2156 -0.0752
 6384TIP3   OH240566   3.419   1.253  11.847  0.2867 -0.1828  0.4361
 6384TIP3    H140567   3.446   1.286  11.761  2.2888  0.9486  1.4565
 6384TIP3    H240568   3.344   1.197  11.829 -1.6048  2.8689 -1.6750
 6385TIP3   OH240569   2.314   4.197   1.964 -0.3542 -0.0971  0.1631
 6385TIP3    H140570   2.275   4.242   2.039 -1.0685  0.9473 -0.8286
 6385TIP3    H240571   2.284   4.246   1.888  1.2417 -0.5115 -0.7506
 6386TIP3   OH240572   3.737   6.512   4.102 -0.4784 -0.0558  0.1561
 6386TIP3    H140573   3.770   6.500   4.013 -0.9555 -1.9887  0.2133
 6386TIP3    H240574   3.653   6.556   4.091 -0.1722  0.4158 -0.3021
 6387TIP3   OH240575   4.349   1.905   3.544 -0.0841 -0.0783  0.5404
 6387TIP3    H140576   4.270   1.886   3.494  0.8713  1.0253 -1.4788
 6387TIP3    H240577   4.399   1.823   3.544 -1.0461 -0.6726  1.5177
 6388TIP3   OH240578   6.424   0.217  12.280  0.4916  0.4967 -0.2098
 6388TIP3    H140579   6.485   0.270  12.229 -1.1520  0.4020 -2.3721
 6388TIP3    H240580   6.371   0.280  12.328  0.0226  0.7356 -1.0313
 6389TIP3   OH240581   6.129   5.192  14.843 -0.4141 -0.5466 -0.0440
 6389TIP3    H140582   6.117   5.261  14.778 -0.1769 -0.7024 -0.2540
 6389TIP3    H240583   6.196   5.226  14.903  1.0203 -1.3158 -1.1717
 6390TIP3   OH240584   0.621   4.620   0.647 -0.0294 -0.0589  0.1680
 6390TIP3    H140585   0.619   4.559   0.721  0.1164  0.1328  0.3294
 6390TIP3    H240586   0.666   4.697   0.680 -2.7243  1.2682  0.8453
 6391TIP3   OH240587   5.241   3.781   2.401  0.2829  0.0288 -0.0569
 6391TIP3    H140588   5.267   3.754   2.489  0.7783  1.1760  0.1599
 6391TIP3    H240589   5.253   3.876   2.400 -1.1590  0.2256 -0.8802
 6392TIP3   OH240590   4.314   3.834   5.441 -0.2844  0.3557 -0.4290
 6392TIP3    H140591   4.240   3.885   5.406  0.1371  0.9064 -0.5305
 6392TIP3    H240592   4.286   3.743   5.433 -1.1588  0.5762 -0.0046
 6393TIP3   OH240593   5.065   3.547   2.569  0.1466  0.6157  0.6259
 6393TIP3    H140594   5.159   3.559   2.585  0.6488 -0.5044 -1.2689
 6393TIP3    H240595   5.040   3.476   2.628  0.6375  0.4632  0.6582
 6394TIP3   OH240596   6.759   0.667   6.409 -0.6001  0.4867  0.1304
 6394TIP3    H140597   6.792   0.757   6.408  0.0028  0.2662  0.1737
 6394TIP3    H240598   6.668   0.675   6.382  0.0624  0.8703 -2.0873
 6395TIP3   OH240599   3.021   3.128  15.754  0.4692  0.1347  0.2587
 6395TIP3    H140600   3.042   3.185  15.680  1.4408 -1.5082 -0.7679
 6395TIP3    H240601   3.106   3.100  15.787  0.0053 -1.6489 -0.0022
 6396TIP3   OH240602   6.542   3.301  12.050 -0.0347 -0.3305 -0.2994
 6396TIP3    H140603   6.627   3.339  12.029 -0.3288  0.3529 -0.2634
 6396TIP3    H240604   6.553   3.266  12.138 -0.2985  1.3191  0.4143
 6397TIP3   OH240605   5.613   3.120  13.074 -0.2519  0.4040  0.2456
 6397TIP3    H140606   5.571   3.170  13.144  0.6649  2.0357 -0.3495
 6397TIP3    H240607   5.547   3.115  13.005 -0.8447 -0.4430  0.8647
 6398TIP3   OH240608   3.849   1.313   2.351 -0.9594  0.3763 -0.0520
 6398TIP3    H140609   3.900   1.232   2.340 -1.0645  0.2880  0.1094
 6398TIP3    H240610   3.766   1.294   2.307 -1.2452  0.1514  0.5859
 6399TIP3   OH240611   4.687   5.168   4.061  0.3652  0.1424 -0.0548
 6399TIP3    H140612   4.605   5.155   4.012  0.1198  0.2300  0.3277
 6399TIP3    H240613   4.755   5.138   4.001 -0.0802 -1.5960  0.2785
 6400TIP3   OH240614   1.623   5.152   1.777 -0.6173 -0.6036 -0.0497
 6400TIP3    H140615   1.698   5.163   1.718 -1.0066 -0.4116 -0.5130
 6400TIP3    H240616   1.550   5.128   1.720 -0.9548 -0.6062  0.3753
 6401TIP3   OH240617   5.251   5.981   4.300 -0.4432 -0.5707  0.1150
 6401TIP3    H140618   5.303   6.013   4.226  1.0303 -0.7199  1.0797
 6401TIP3    H240619   5.216   6.061   4.340  1.8015 -0.2527  1.4712
 6402TIP3   OH240620   3.715   2.353   4.394 -0.5944  0.5565 -0.5073
 6402TIP3    H140621   3.688   2.261   4.388 -0.7041  0.5464  0.1068
 6402TIP3    H240622   3.745   2.375   4.306 -1.3774  0.1788 -0.8744
 6403TIP3   OH240623   0.456   3.407   3.789  0.8586 -0.4896  0.7001
 6403TIP3    H140624   0.522   3.343   3.816 -0.5488 -2.2699  0.0375
 6403TIP3    H240625   0.452   3.398   3.694  0.5809  0.5182  0.6173
 6404TIP3   OH240626   0.348   4.545  11.217 -0.5899 -0.2073 -0.4464
 6404TIP3    H140627   0.362   4.527  11.124  2.2946 -0.6468  0.0523
 6404TIP3    H240628   0.392   4.628  11.233  2.0491 -1.8550  1.2594
 6405TIP3   OH240629   3.648   0.902  12.851  0.7347 -0.7533 -0.1589
 6405TIP3    H140630   3.559   0.867  12.863 -0.1090  1.7576  1.3844
 6405TIP3    H240631   3.695   0.874  12.929  0.8890 -0.9180 -0.3125
 6406TIP3   OH240632   2.688   0.326   1.672 -0.5682 -0.3896  0.1344
 6406TIP3    H140633   2.691   0.244   1.722 -1.9757 -1.4995 -1.5290
 6406TIP3    H240634   2.720   0.302   1.585  1.3283  1.3870  0.3185
 6407TIP3   OH240635   1.894   6.231   3.567 -0.0705 -0.1516  0.1090
 6407TIP3    H140636   1.800   6.234   3.588 -0.0888  0.2432 -0.0128
 6407TIP3    H240637   1.907   6.145   3.528 -0.4547 -0.0777 -0.1886
 6408TIP3   OH240638   4.307   5.182  16.688  0.6613  0.4465 -0.5377
 6408TIP3    H140639   4.307   5.105  16.631  0.9119  0.3212 -0.3668
 6408TIP3    H240640   4.304   5.147  16.777  1.2362  0.6217 -0.4461
 6409TIP3   OH240641   1.251   0.234   3.896  0.1274 -0.2523  0.0624
 6409TIP3    H140642   1.238   0.151   3.942  0.4558  0.0296  0.6625
 6409TIP3    H240643   1.335   0.267   3.927 -1.1547  1.5659  1.7905
 6410TIP3   OH240644   2.814   5.714   5.092 -0.1332 -0.0011  0.1056
 6410TIP3    H140645   2.771   5.799   5.097  0.1001  0.1830 -0.9982
 6410TIP3    H240646   2.745   5.653   5.066  0.2250  0.2752 -1.5512
 6411TIP3   OH240647   4.705   4.006   3.800  0.0265  0.1041 -0.2370
 6411TIP3    H140648   4.641   3.935   3.795 -1.5722  1.4408  0.6534
 6411TIP3    H240649   4.659   4.082   3.764  0.4571  1.5136  2.0782
 6412TIP3   OH240650   5.255   1.131  12.095  0.8287  0.1029  0.6254
 6412TIP3    H140651   5.336   1.113  12.048  1.0518  0.6106  0.8036
 6412TIP3    H240652   5.224   1.214  12.058  0.1400 -0.3272  0.2253
 6413TIP3   OH240653   1.051   3.815  12.754  0.4268  0.6246  0.4434
 6413TIP3    H140654   1.101   3.897  12.748 -0.7343  1.3977  1.2187
 6413TIP3    H240655   1.058   3.777  12.667 -0.5053  2.4201 -0.4457
 6414TIP3   OH240656   3.561   0.964  14.762  0.2675  0.1594  0.0047
 6414TIP3    H140657   3.540   0.875  14.733 -2.0848  0.7460 -0.2245
 6414TIP3    H240658   3.648   0.957  14.801  0.1548 -2.2275 -0.1127
 6415TIP3   OH240659   2.062   2.282  14.250 -0.1857  0.1130  0.0239
 6415TIP3    H140660   2.003   2.357  14.244  0.1445  0.2313 -2.1529
 6415TIP3    H240661   2.114   2.285  14.170  3.2969  0.3899  2.2025
 6416TIP3   OH240662   1.606   4.631   2.336 -0.3808 -0.2221 -0.8688
 6416TIP3    H140663   1.697   4.636   2.307 -0.5939 -1.6830 -1.8441
 6416TIP3    H240664   1.599   4.547   2.380 -0.8575  0.6194  0.7038
 6417TIP3   OH240665   5.226   0.903  14.915  1.0768 -0.5369 -0.1337
 6417TIP3    H140666   5.192   0.893  15.004  0.6695  0.0517 -0.2170
 6417TIP3    H240667   5.320   0.885  14.923  0.9193 -1.1674  0.2885
 6418TIP3   OH240668   3.398   0.947  16.495 -0.3961 -0.1962 -0.2707
 6418TIP3    H140669   3.379   0.945  16.401  0.2153  2.2936 -0.4671
 6418TIP3    H240670   3.486   0.910  16.502  0.1668  0.9977 -0.8596
 6419TIP3   OH240671   2.556   5.865  11.647  0.2420 -0.5222 -0.0467
 6419TIP3    H140672   2.530   5.832  11.734 -1.6799 -0.4877 -0.5831
 6419TIP3    H240673   2.582   5.786  11.599 -0.4703 -0.7850 -0.0176
 6420TIP3   OH240674   2.221   0.887   4.474  0.1274 -0.8258  0.3523
 6420TIP3    H140675   2.217   0.975   4.511 -1.5434 -1.0063  0.6613
 6420TIP3    H240676   2.228   0.830   4.550 -1.3294 -1.0802  0.3232
 6421TIP3   OH240677   3.063   2.464  16.625  0.5796 -0.0482 -0.5457
 6421TIP3    H140678   3.116   2.482  16.702 -0.0112 -2.1306  0.3803
 6421TIP3    H240679   3.070   2.544  16.572  1.6912  1.0783  1.2402
 6422TIP3   OH240680   1.145   0.604  15.977 -0.0514 -0.3547 -0.4306
 6422TIP3    H140681   1.128   0.646  16.061  1.1778  1.2817 -0.9774
 6422TIP3    H240682   1.238   0.580  15.981 -0.0943 -0.6510 -1.1588
 6423TIP3   OH240683   1.318   0.077  14.797 -0.0474 -0.1317 -0.0654
 6423TIP3    H140684   1.251   0.061  14.731  1.2291  0.0196 -1.4235
 6423TIP3    H240685   1.270   0.080  14.880 -1.4538 -2.0793 -0.7627
 6424TIP3   OH240686   5.338   3.475  15.895 -0.2472 -0.4866 -0.2053
 6424TIP3    H140687   5.432   3.481  15.881 -0.1118 -1.3139  0.2788
 6424TIP3    H240688   5.303   3.556  15.858  0.9402  1.1528  2.1472
 6425TIP3   OH240689   4.176   1.333   4.750 -0.9493  0.1922 -0.5483
 6425TIP3    H140690   4.163   1.247   4.789 -0.8940  0.9890  1.3257
 6425TIP3    H240691   4.175   1.393   4.825  0.7036  1.6312 -1.6401
 6426TIP3   OH240692   4.229   3.653   0.329 -0.4042 -0.0957 -0.1048
 6426TIP3    H140693   4.288   3.727   0.340 -1.0809  0.4872 -0.3574
 6426TIP3    H240694   4.147   3.680   0.371 -1.1339 -0.1087 -1.4855
 6427TIP3   OH240695   0.911   3.705  16.104 -0.5600  0.2195  1.5753
 6427TIP3    H140696   0.867   3.659  16.175  0.5503 -1.5481  1.1451
 6427TIP3    H240697   0.846   3.711  16.034 -0.3577 -1.7832  1.1928
 6428TIP3   OH240698   5.081   5.621   2.932 -0.3601 -0.5625 -0.2295
 6428TIP3    H140699   5.159   5.660   2.893 -0.0084 -1.5422 -0.5260
 6428TIP3    H240700   5.017   5.693   2.936  1.2933  0.8264  2.1255
 6429TIP3   OH240701   3.754   0.222   0.832 -0.4893  0.1392 -0.3323
 6429TIP3    H140702   3.773   0.192   0.743  1.2416  1.3115 -0.3721
 6429TIP3    H240703   3.744   0.317   0.824 -0.6585  0.2119  0.6853
 6430TIP3   OH240704   3.622   6.121   2.745 -0.4136  0.0527  0.0690
 6430TIP3    H140705   3.682   6.052   2.717 -1.3220 -0.3679 -0.8700
 6430TIP3    H240706   3.574   6.145   2.666 -0.3472  1.5302  0.4544
 6431TIP3   OH240707   2.674   4.820  16.989 -0.1669  0.1437 -0.6062
 6431TIP3    H140708   2.704   4.790  16.903  0.5682  2.4017 -1.1781
 6431TIP3    H240709   2.647   4.911  16.975  0.4733  0.7245  1.6545
 6432TIP3   OH240710   0.742   3.093   3.013 -0.5361 -0.1136 -0.5306
 6432TIP3    H140711   0.720   3.058   2.927 -0.6831 -1.7287  0.1407
 6432TIP3    H240712   0.658   3.112   3.054 -0.4505  1.3647 -1.0122
 6433TIP3   OH240713   4.121   4.270  11.028  0.5279  0.3213 -0.3825
 6433TIP3    H140714   4.143   4.360  11.052  1.6160  0.5019 -1.9940
 6433TIP3    H240715   4.091   4.276  10.937  0.6433 -0.9520 -0.5153
 6434TIP3   OH240716   1.285   1.975   0.261 -0.5009  0.0917  0.2142
 6434TIP3    H140717   1.359   1.939   0.211 -0.7938  1.9443 -1.6527
 6434TIP3    H240718   1.315   2.061   0.289 -2.1885  1.1543 -1.1626
 6435TIP3   OH240719   3.305   2.043  14.592  0.1429 -0.0935  0.3886
 6435TIP3    H140720   3.322   2.066  14.500 -0.7892  0.8941  0.4564
 6435TIP3    H240721   3.366   2.097  14.642  0.0495 -0.0001  0.4003
 6436TIP3   OH240722   3.311   4.307   5.139  0.5173 -0.2485  0.0941
 6436TIP3    H140723   3.350   4.269   5.217  0.6098  0.6228  0.4751
 6436TIP3    H240724   3.385   4.332   5.084  0.4652 -0.2006  0.0446
 6437TIP3   OH240725   5.102   4.410   1.057 -0.6462  0.2720  0.3079
 6437TIP3    H140726   5.088   4.453   0.973 -0.5329  0.4227  0.3661
 6437TIP3    H240727   5.165   4.340   1.038  0.8161  1.4574  0.6156
 6438TIP3   OH240728   5.938   3.942   2.647 -0.1042 -0.5897 -0.0097
 6438TIP3    H140729   5.857   3.901   2.675 -1.0299 -0.0705 -1.8382
 6438TIP3    H240730   5.988   3.871   2.606  0.8130 -1.1255  1.9972
 6439TIP3   OH240731   5.400   1.906  12.822 -0.0639  0.1449 -0.9652
 6439TIP3    H140732   5.453   1.939  12.749  0.1281  0.1003 -0.8457
 6439TIP3    H240733   5.312   1.897  12.786  0.1966 -0.6233 -1.4023
 6440TIP3   OH240734   0.900   2.735   2.835 -0.2176  0.2573  0.2947
 6440TIP3    H140735   0.927   2.814   2.882  1.3565  0.3102 -0.6847
 6440TIP3    H240736   0.915   2.756   2.743 -0.8088 -0.8010 -0.0385
 6441TIP3   OH240737   6.430   5.097   5.954  0.7368 -0.4734  0.2166
 6441TIP3    H140738   6.374   5.156   6.004 -0.4613 -2.9443  1.8982
 6441TIP3    H240739   6.371   5.057   5.889  1.0898 -1.2809  0.3875
 6442TIP3   OH240740   4.440   5.719  12.823  0.4520 -0.4922  0.7018
 6442TIP3    H140741   4.430   5.631  12.859  0.2840  0.0388  1.9749
 6442TIP3    H240742   4.462   5.704  12.731 -0.7244 -1.8474  0.6130
 6443TIP3   OH240743   6.283   1.602  12.240 -0.0673 -0.4701  0.2022
 6443TIP3    H140744   6.221   1.538  12.204  0.4243  0.2104 -1.8648
 6443TIP3    H240745   6.227   1.672  12.274 -0.4540  0.6026 -2.5335
 6444TIP3   OH240746   4.835   0.211   0.725 -0.2825  0.0863  0.1629
 6444TIP3    H140747   4.806   0.295   0.761 -0.3610  0.0105  0.2774
 6444TIP3    H240748   4.905   0.183   0.783 -0.0978  0.1855 -0.0128
 6445TIP3   OH240749   3.573   5.783  12.245 -0.3761 -0.0074  0.3954
 6445TIP3    H140750   3.622   5.852  12.201 -2.1799 -0.1342 -1.9834
 6445TIP3    H240751   3.533   5.826  12.321  1.9218  0.5047  1.3294
 6446TIP3   OH240752   3.750   2.671  11.915  0.0919  0.0774 -0.0434
 6446TIP3    H140753   3.720   2.602  11.974  1.6771 -0.7599 -0.2168
 6446TIP3    H240754   3.717   2.645  11.829 -0.2986  0.1395  0.0882
 6447TIP3   OH240755   1.559   2.694  12.727  0.1116 -0.4152 -0.2520
 6447TIP3    H140756   1.623   2.629  12.698 -1.0738 -2.2169  1.0679
 6447TIP3    H240757   1.478   2.668  12.684 -1.0205 -1.4848  2.4532
 6448TIP3   OH240758   3.971   1.413  12.048 -0.2867 -1.0125  0.3776
 6448TIP3    H140759   4.013   1.499  12.048 -1.2894 -0.5164  1.4947
 6448TIP3    H240760   3.997   1.374  12.131  0.6389 -2.0474 -0.3738
 6449TIP3   OH240761   3.259   4.186   2.673  0.0226  0.2637 -0.3458
 6449TIP3    H140762   3.306   4.143   2.601  2.9365 -0.6457  1.9844
 6449TIP3    H240763   3.255   4.278   2.647  1.2402 -0.0160 -1.6056
 6450TIP3   OH240764   4.227   2.475   4.905  0.0765  0.4484  0.5862
 6450TIP3    H140765   4.217   2.511   4.992  0.5728 -1.0410  1.2850
 6450TIP3    H240766   4.284   2.399   4.917 -0.9393 -0.5642 -0.8184
 6451TIP3   OH240767   0.033   1.938  15.019 -0.6467 -0.6543  0.0590
 6451TIP3    H140768  -0.040   1.954  15.079 -1.5490 -1.5249 -0.7984
 6451TIP3    H240769   0.010   1.987  14.940  0.0471 -0.3566  0.0334
 6452TIP3   OH240770   4.647   1.183  13.557  0.1205 -0.0527  0.3408
 6452TIP3    H140771   4.578   1.228  13.509  1.9999  1.0839 -1.4073
 6452TIP3    H240772   4.700   1.254  13.594  1.2410 -0.8553  0.3067
 6453TIP3   OH240773   0.812   3.749  11.662 -0.3490  0.3832  0.0658
 6453TIP3    H140774   0.878   3.703  11.715 -0.1205  0.1424 -0.4175
 6453TIP3    H240775   0.857   3.767  11.580 -0.8142  0.4319 -0.1772
 6454TIP3   OH240776   2.816   2.429   2.882  0.2312 -0.2509  0.2119
 6454TIP3    H140777   2.781   2.443   2.794  2.4671 -1.4033 -0.9022
 6454TIP3    H240778   2.841   2.337   2.884 -1.8394 -0.8121  2.8421
 6455TIP3   OH240779   6.504   4.464  15.437  0.1165  0.5094  0.0613
 6455TIP3    H140780   6.559   4.416  15.499  0.1188  1.8305  1.0970
 6455TIP3    H240781   6.465   4.396  15.382  0.0670 -0.6877  1.5476
 6456TIP3   OH240782   4.507   1.383   6.864 -0.7466 -0.0765  0.2021
 6456TIP3    H140783   4.522   1.469   6.904 -0.3980 -0.9602  2.0469
 6456TIP3    H240784   4.579   1.329   6.896 -1.6745 -1.3990  0.1265
 6457TIP3   OH240785   5.645   0.916  16.501 -0.0295 -0.0934  0.0943
 6457TIP3    H140786   5.695   0.997  16.507 -0.0537 -0.0841  0.1695
 6457TIP3    H240787   5.711   0.847  16.509 -0.0788 -0.0807  0.6175
 6458TIP3   OH240788   2.613   3.851  14.635 -0.3680 -0.4172 -0.8720
 6458TIP3    H140789   2.607   3.758  14.655 -0.7404 -0.1129  0.4831
 6458TIP3    H240790   2.534   3.889  14.673  0.5663  0.6954  0.0089
 6459TIP3   OH240791   2.060   3.276   2.515  0.2269  0.1380 -0.0395
 6459TIP3    H140792   1.990   3.331   2.548 -0.1728  0.1569 -0.9194
 6459TIP3    H240793   2.113   3.334   2.460 -0.1454 -0.3285 -0.8962
 6460TIP3   OH240794   3.089   1.551   6.584 -0.5581  0.0653 -0.2816
 6460TIP3    H140795   3.030   1.476   6.586 -0.2240 -0.3140 -2.9261
 6460TIP3    H240796   3.033   1.625   6.561 -0.4017  0.0896 -0.5946
 6461TIP3   OH240797   5.536   1.635  16.106 -0.2994  0.5699  0.6826
 6461TIP3    H140798   5.508   1.543  16.103  1.6280 -0.0988  2.2446
 6461TIP3    H240799   5.558   1.656  16.015  0.0589 -0.7899  0.4363
 6462TIP3   OH240800   6.459   4.246   2.192  0.6430  0.2508 -0.2379
 6462TIP3    H140801   6.460   4.341   2.179  1.3330  0.2960  0.1240
 6462TIP3    H240802   6.494   4.210   2.111 -1.6397  0.1881 -1.2436
 6463TIP3   OH240803   5.165   0.353  17.067  0.4393 -0.4604 -0.3383
 6463TIP3    H140804   5.230   0.282  17.066  0.1428 -0.7905  1.9551
 6463TIP3    H240805   5.162   0.382  17.158  0.9688  2.9169 -1.3150
 6464TIP3   OH240806   3.948   3.764   3.838  0.0957  0.3108 -0.1260
 6464TIP3    H140807   4.024   3.761   3.896  0.5035 -0.6179 -0.6837
 6464TIP3    H240808   3.873   3.749   3.895  0.2802  1.6908  0.5010
 6465TIP3   OH240809   3.015   4.564  16.131 -0.0670 -0.2005 -0.0382
 6465TIP3    H140810   2.953   4.618  16.082 -0.4775  0.8417  1.6074
 6465TIP3    H240811   3.101   4.604  16.114 -0.0848 -0.4387 -0.6983
 6466TIP3   OH240812   3.925   5.581  10.948 -0.1697  0.1887 -0.0011
 6466TIP3    H140813   4.020   5.581  10.948 -0.1563 -0.2509  1.3369
 6466TIP3    H240814   3.900   5.541  10.865  0.8067  0.0788 -0.2418
 6467TIP3   OH240815   1.074   0.129  12.157  0.2049  0.1983  0.3698
 6467TIP3    H140816   1.004   0.088  12.106  1.1279 -0.7109 -0.1750
 6467TIP3    H240817   1.123   0.180  12.093 -0.0058  0.9155  0.7715
 6468TIP3   OH240818   2.851   3.307  15.940  0.4330  0.5838  0.0571
 6468TIP3    H140819   2.946   3.304  15.929  0.5824  2.2217  0.7110
 6468TIP3    H240820   2.836   3.386  15.992 -0.9729 -1.6976  3.2812
 6469TIP3   OH240821   2.257   0.991   2.703  0.5397  0.1356 -0.3543
 6469TIP3    H140822   2.279   1.035   2.785  0.2125 -0.7235  0.2068
 6469TIP3    H240823   2.335   0.939   2.682  0.6014  0.3097 -0.5637
 6470TIP3   OH240824   3.160   1.229   3.289  0.0400 -0.1966  0.1780
 6470TIP3    H140825   3.164   1.199   3.198 -0.9222  1.8307 -0.5839
 6470TIP3    H240826   3.246   1.269   3.304 -0.1008  0.2468 -0.1533
 6471TIP3   OH240827   5.121   4.806   1.962  0.3096  0.1382  0.0889
 6471TIP3    H140828   5.028   4.796   1.942  0.2031  1.4605 -0.1100
 6471TIP3    H240829   5.161   4.728   1.925 -0.8385 -0.9094  1.0097
 6472TIP3   OH240830   2.876   2.496  14.102  0.6680 -0.1538  0.0020
 6472TIP3    H140831   2.913   2.416  14.138 -0.3292 -0.4433  0.4149
 6472TIP3    H240832   2.857   2.476  14.010  1.8259  0.1009 -0.2925
 6473TIP3   OH240833   2.062   2.844  13.601  0.0788  0.0027  0.7656
 6473TIP3    H140834   2.071   2.899  13.523 -1.8095 -0.1409  0.4103
 6473TIP3    H240835   2.151   2.833  13.633  0.7039  1.4917 -0.3885
 6474TIP3   OH240836   6.234   5.976   1.715 -0.5362  0.3358  0.3380
 6474TIP3    H140837   6.220   6.007   1.625  0.4637 -1.1623 -0.3483
 6474TIP3    H240838   6.184   5.895   1.720 -1.5021  0.9944  1.5034
 6475TIP3   OH240839   2.545   1.995   0.799 -0.0687  0.2396 -0.2476
 6475TIP3    H140840   2.598   2.072   0.821  0.6521 -0.7841  1.8267
 6475TIP3    H240841   2.455   2.021   0.819 -0.1354  1.3291 -1.8832
 6476TIP3   OH240842   4.188   5.463   3.030 -0.3735  0.4215 -0.2948
 6476TIP3    H140843   4.211   5.510   3.110  0.3615  0.1119 -0.3168
 6476TIP3    H240844   4.093   5.472   3.022 -0.5096  0.0423  0.8769
 6477TIP3   OH240845   1.420   4.213   5.514  0.6100 -0.1173  0.0285
 6477TIP3    H140846   1.501   4.163   5.510  0.2016 -0.7508 -0.3169
 6477TIP3    H240847   1.444   4.300   5.482  1.0198 -0.4809 -0.6700
 6478TIP3   OH240848   5.949   3.382  10.994 -0.4973 -0.2812  0.4086
 6478TIP3    H140849   6.028   3.351  10.950 -0.4171  0.1009  0.2804
 6478TIP3    H240850   5.890   3.307  10.995  0.1375 -0.7820  1.1409
 6479TIP3   OH240851   6.515   6.388  13.486 -0.7977  0.3887 -0.2259
 6479TIP3    H140852   6.576   6.338  13.431  0.1561 -0.3755  1.4508
 6479TIP3    H240853   6.506   6.335  13.565 -2.4372  1.2703  0.2030
 6480TIP3   OH240854   4.821   2.728   6.399 -0.5752  0.9630  0.2104
 6480TIP3    H140855   4.827   2.800   6.462  0.6025  1.1495 -0.1014
 6480TIP3    H240856   4.906   2.727   6.356 -1.7852  1.6877 -2.3238
 6481TIP3   OH240857   5.740   2.999   0.934 -0.0749  0.2211  0.6050
 6481TIP3    H140858   5.739   2.903   0.935  0.2682  0.1873 -0.9754
 6481TIP3    H240859   5.817   3.023   0.984 -0.4409 -0.3081  1.4427
 6482TIP3   OH240860   0.698   4.759  14.568  0.0297  0.4630 -0.5750
 6482TIP3    H140861   0.671   4.810  14.645  2.2326  2.6502 -1.1772
 6482TIP3    H240862   0.688   4.668  14.596 -2.7626  1.1807  0.9904
 6483TIP3   OH240863   6.234   5.112   5.742 -0.1944 -0.0948 -0.5954
 6483TIP3    H140864   6.227   5.079   5.652 -0.9991  0.9348 -0.9183
 6483TIP3    H240865   6.143   5.129   5.768 -0.0101 -0.8676  0.6025
 6484TIP3   OH240866   2.793   0.218   1.204  0.0741 -0.4480  0.8763
 6484TIP3    H140867   2.700   0.233   1.184  0.1950 -0.8691 -0.0337
 6484TIP3    H240868   2.806   0.260   1.289 -0.7219  0.4626  0.5643
 6485TIP3   OH240869   1.735   0.204  14.157  0.0630  0.0966  0.0205
 6485TIP3    H140870   1.651   0.178  14.119  0.4418 -3.3293  1.3967
 6485TIP3    H240871   1.712   0.265  14.227 -0.9991  1.9068 -1.8412
 6486TIP3   OH240872   4.279   5.687  14.584  0.3379  0.0495  0.4542
 6486TIP3    H140873   4.190   5.703  14.553  0.1316  0.9262  1.4757
 6486TIP3    H240874   4.333   5.751  14.536  0.1250  0.8941  1.3278
 6487TIP3   OH240875   0.424   2.047   4.397 -0.1454  0.4113  0.3419
 6487TIP3    H140876   0.349   2.017   4.448 -0.0086 -0.4967  0.0201
 6487TIP3    H240877   0.391   2.049   4.307  0.0209  0.6624  0.2878
 6488TIP3   OH240878   5.561   6.551   1.033  0.7210 -0.3058 -0.1419
 6488TIP3    H140879   5.558   6.584   1.123  0.6529 -0.1576 -0.1990
 6488TIP3    H240880   5.652   6.563   1.006  1.2246 -2.2387  0.6193
 6489TIP3   OH240881   1.676   5.868   5.466  0.1628 -0.6709  0.0567
 6489TIP3    H140882   1.696   5.951   5.422 -0.0311 -0.9596 -0.5768
 6489TIP3    H240883   1.613   5.892   5.534 -0.3522 -0.4019 -0.5170
 6490TIP3   OH240884   1.710   5.461   1.735  0.3241 -0.3878  0.3904
 6490TIP3    H140885   1.711   5.506   1.651  1.4332 -0.5914  0.2864
 6490TIP3    H240886   1.763   5.382   1.721  1.5053  0.1592  1.5831
 6491TIP3   OH240887   2.007   1.549   5.494  0.8540 -0.1576 -0.1753
 6491TIP3    H140888   2.063   1.483   5.535  1.3541 -0.2686 -1.0104
 6491TIP3    H240889   1.964   1.502   5.423  0.8345  0.2957 -0.4643
 6492TIP3   OH240890   1.224   3.536  10.425  0.0830 -0.1975 -0.1448
 6492TIP3    H140891   1.271   3.527  10.508  2.8158  0.1548 -1.6129
 6492TIP3    H240892   1.237   3.452  10.380  0.2980  0.3210 -1.0672
 6493TIP3   OH240893   0.232   1.444   2.432 -0.0883 -0.1820 -0.1842
 6493TIP3    H140894   0.300   1.510   2.448 -2.1628  2.2690 -1.1911
 6493TIP3    H240895   0.161   1.468   2.492 -0.6232 -1.9201 -0.0946
 6494TIP3   OH240896   6.418   6.456   6.099 -0.0062  0.1706 -0.1243
 6494TIP3    H140897   6.397   6.380   6.046 -0.6470  0.1059  0.2096
 6494TIP3    H240898   6.420   6.423   6.189 -1.6766  0.8020  0.1687
 6495TIP3   OH240899   6.636   3.826  15.581  0.8154  0.1337  0.1270
 6495TIP3    H140900   6.688   3.752  15.549 -1.1844 -0.7808 -1.1181
 6495TIP3    H240901   6.651   3.895  15.516  0.6414 -0.0505 -0.1073
 6496TIP3   OH240902   6.471   2.611   4.019  0.2938  0.0096 -0.0289
 6496TIP3    H140903   6.399   2.668   4.047  0.8063  1.4503 -1.5091
 6496TIP3    H240904   6.533   2.671   3.977  1.2654 -1.5347 -0.8350
 6497TIP3   OH240905   6.760   2.679   5.370  0.0689 -0.2636  0.3291
 6497TIP3    H140906   6.692   2.683   5.304  1.2522  0.1992 -0.8737
 6497TIP3    H240907   6.721   2.721   5.447 -1.3782 -0.9769  0.0078
 6498TIP3   OH240908   3.034   4.929   3.228  0.0085 -0.0177  0.2232
 6498TIP3    H140909   3.093   4.995   3.263  0.4359 -0.0180 -0.4941
 6498TIP3    H240910   2.975   4.978   3.170  1.4533 -0.4981 -1.7228
 6499TIP3   OH240911   0.826   6.145   3.040  1.0899 -0.2268  0.0595
 6499TIP3    H140912   0.796   6.146   2.949  1.5102 -1.4762 -0.0931
 6499TIP3    H240913   0.803   6.058   3.072  0.6926  0.3032  1.2380
 6500TIP3   OH240914   4.291   1.794   2.135  0.0593  0.1732  0.2021
 6500TIP3    H140915   4.324   1.855   2.201  1.9596 -0.8494  0.2498
 6500TIP3    H240916   4.341   1.815   2.056 -1.3749  0.6123 -0.6166
 6501TIP3   OH240917   4.920   0.065  12.032 -0.3589  0.0681  0.1899
 6501TIP3    H140918   4.841   0.081  11.981 -0.7194  1.1013  1.0453
 6501TIP3    H240919   4.962   0.150  12.038  0.7483 -0.4521 -0.1327
 6502TIP3   OH240920   5.860   2.919  13.603  0.7404 -0.9048  0.4262
 6502TIP3    H140921   5.795   2.989  13.600  1.8268  0.0852 -0.5768
 6502TIP3    H240922   5.812   2.843  13.636 -0.8412 -0.1137 -0.0152
 6503TIP3   OH240923   3.182   3.311  14.839  0.1578  0.4841 -0.1965
 6503TIP3    H140924   3.221   3.225  14.852  0.5934  0.6987 -0.0566
 6503TIP3    H240925   3.129   3.302  14.760 -0.2895 -0.0783  0.1619
 6504TIP3   OH240926   3.431   5.333   5.452  0.2386 -0.6604 -0.0080
 6504TIP3    H140927   3.444   5.427   5.465  0.7489 -0.8787  1.0861
 6504TIP3    H240928   3.360   5.327   5.388 -0.4784  0.4565  0.6729
 6505TIP3   OH240929   2.530   2.544  14.578  0.2335 -0.1390 -0.1699
 6505TIP3    H140930   2.564   2.581  14.497  0.6122 -1.9483 -0.8533
 6505TIP3    H240931   2.596   2.566  14.644  0.7227 -0.0988 -0.6695
 6506TIP3   OH240932   3.645   5.570   1.253  0.5245 -0.0262  0.2554
 6506TIP3    H140933   3.685   5.516   1.185  1.4007  1.8514 -0.7568
 6506TIP3    H240934   3.551   5.569   1.233  0.4591 -1.6511  0.6089
 6507TIP3   OH240935   5.046   1.719  11.472 -0.1388 -0.6126  0.5993
 6507TIP3    H140936   5.097   1.788  11.428 -2.5781  0.5943 -0.4676
 6507TIP3    H240937   5.064   1.640  11.422 -1.4783  0.3864 -1.5252
 6508TIP3   OH240938   0.175   3.784  10.803  0.0274 -0.0209  0.0014
 6508TIP3    H140939   0.131   3.705  10.770  2.1669 -0.5982 -1.5447
 6508TIP3    H240940   0.116   3.856  10.778 -0.9213 -0.9314 -0.4320
 6509TIP3   OH240941   3.656   5.894   0.232 -0.0525 -0.0606 -0.0727
 6509TIP3    H140942   3.654   5.803   0.261  0.3914 -0.3843 -1.0379
 6509TIP3    H240943   3.715   5.937   0.294 -1.6747 -0.0305  1.4773
 6510TIP3   OH240944   5.544   6.433   0.554  0.3178 -0.7570  0.3006
 6510TIP3    H140945   5.585   6.491   0.619  1.7524 -0.5901 -0.7381
 6510TIP3    H240946   5.452   6.456   0.557  0.5460  0.0856  1.4320
 6511TIP3   OH240947   6.775   5.603   1.175  0.6843 -0.0675 -0.5818
 6511TIP3    H140948   6.742   5.587   1.263  0.8431 -1.2090 -0.7176
 6511TIP3    H240949   6.795   5.516   1.141  0.3620  0.3473 -1.8498
 6512TIP3   OH240950   4.053   6.021  16.254  0.4820  0.1238 -0.1499
 6512TIP3    H140951   4.143   6.052  16.263  1.1869 -1.5564 -1.1897
 6512TIP3    H240952   4.050   5.980  16.168 -0.8509 -1.2331  0.5194
 6513TIP3   OH240953   2.751   1.846   2.645 -0.2805 -0.1720 -0.5115
 6513TIP3    H140954   2.674   1.808   2.603 -0.6709 -2.1012  1.8545
 6513TIP3    H240955   2.731   1.939   2.651 -3.2748 -0.9062  1.7556
 6514TIP3   OH240956   3.566   0.548  16.538  0.1647  0.1668 -0.2014
 6514TIP3    H140957   3.506   0.496  16.591  0.5556  0.7814  0.8792
 6514TIP3    H240958   3.521   0.561  16.455 -0.8280 -0.1041  0.2894
 6515TIP3   OH240959   0.244   6.147  11.935 -0.1529  0.4050 -0.3093
 6515TIP3    H140960   0.164   6.148  11.883 -1.3829 -1.4190  1.4407
 6515TIP3    H240961   0.237   6.223  11.993 -1.8444 -1.0799  1.5144
 6516TIP3   OH240962   5.789   0.614   4.709  0.5094  0.4976  0.4272
 6516TIP3    H140963   5.796   0.695   4.658  1.8133  1.2413  1.7753
 6516TIP3    H240964   5.876   0.574   4.704 -0.1109 -0.8147 -0.1928
 6517TIP3   OH240965   0.705   2.666   3.683  0.2032  0.4059  0.0017
 6517TIP3    H140966   0.798   2.689   3.674  0.0103  1.0604 -0.3219
 6517TIP3    H240967   0.681   2.631   3.597  0.0192  0.7076 -0.0691
 6518TIP3   OH240968   2.963   0.820   4.080 -0.0450  0.0667 -0.0625
 6518TIP3    H140969   2.887   0.762   4.077 -0.9873  1.1503  1.5329
 6518TIP3    H240970   3.000   0.806   4.167 -0.6633  2.2537  0.6061
 6519TIP3   OH240971   3.267   5.006  16.171  0.1051  0.5288  0.2995
 6519TIP3    H140972   3.237   4.947  16.239  0.1693 -0.2269 -0.3235
 6519TIP3    H240973   3.218   5.087  16.187  0.5795  0.5629  1.6058
 6520TIP3   OH240974   6.021   2.178  13.107  0.3079  0.3721  0.3683
 6520TIP3    H140975   6.095   2.239  13.106 -0.8460  1.7724 -1.3288
 6520TIP3    H240976   5.951   2.224  13.153  0.6840 -1.2571  2.6758
 6521TIP3   OH240977   0.651   5.208  16.533 -0.2718 -0.2794  0.2398
 6521TIP3    H140978   0.571   5.245  16.495  0.1183  0.4260  0.1080
 6521TIP3    H240979   0.621   5.164  16.613 -0.5971  1.1895  0.9386
 6522TIP3   OH240980   0.216   3.317   2.433  0.1900 -0.0009 -0.0695
 6522TIP3    H140981   0.160   3.240   2.423  0.4106 -0.4649  2.1889
 6522TIP3    H240982   0.240   3.340   2.343  0.1305 -2.5678 -0.7944
 6523TIP3   OH240983   5.001   4.379  11.777  0.2826 -0.4649 -0.2852
 6523TIP3    H140984   4.969   4.302  11.825 -3.6540  1.7868  0.9311
 6523TIP3    H240985   4.965   4.369  11.689 -1.9164  0.8812  0.4191
 6524TIP3   OH240986   4.812   5.121  16.792  0.2656 -0.0598 -0.4190
 6524TIP3    H140987   4.734   5.100  16.845  0.3230 -1.0266 -0.7148
 6524TIP3    H240988   4.881   5.066  16.828  0.6349  0.2533 -0.6502
 6525TIP3   OH240989   6.580   0.360   2.751  0.3138  0.7035 -0.1036
 6525TIP3    H140990   6.563   0.409   2.831  0.4610  2.3491 -1.0491
 6525TIP3    H240991   6.670   0.383   2.728  0.1263  0.6082 -0.9622
 6526TIP3   OH240992   1.429   1.315  12.768  0.3682  0.1970 -0.8891
 6526TIP3    H140993   1.426   1.220  12.753  1.1433  0.0355 -0.0368
 6526TIP3    H240994   1.381   1.327  12.850  0.4978  0.5112 -0.8607
 6527TIP3   OH240995   2.396   5.769  13.523  0.0811  0.2002  0.4238
 6527TIP3    H140996   2.457   5.706  13.484  0.0507  0.2828  0.2439
 6527TIP3    H240997   2.451   5.824  13.578  0.4513  1.4166 -1.1269
 6528TIP3   OH240998   1.151   4.464   3.437 -0.7244  0.6691  0.2971
 6528TIP3    H140999   1.190   4.481   3.522 -1.4505  0.0573  0.7570
 6528TIP3    H241000   1.190   4.530   3.379  1.5961 -0.4596  0.5480
 6529TIP3   OH241001   0.384   0.873   1.265 -0.5072  0.0379  0.4211
 6529TIP3    H141002   0.470   0.852   1.229 -0.4449 -0.6553  0.9715
 6529TIP3    H241003   0.328   0.886   1.188  0.3117  1.4753  0.0495
 6530TIP3   OH241004   4.038   4.884   3.484 -0.7743 -0.3074  0.2265
 6530TIP3    H141005   4.037   4.977   3.509  0.3228  0.2976 -1.8983
 6530TIP3    H241006   3.980   4.879   3.408 -0.7693 -1.3681  0.2844
 6531TIP3   OH241007   0.557   1.414  11.761  0.0706  0.3022  0.7419
 6531TIP3    H141008   0.474   1.405  11.807 -0.5911  0.0381 -0.4620
 6531TIP3    H241009   0.540   1.374  11.675  1.2870  0.7056  0.3116
 6532TIP3   OH241010   3.489   6.525   3.751  0.0521  0.7724 -0.9484
 6532TIP3    H141011   3.537   6.475   3.685  0.8889  2.1816 -1.4364
 6532TIP3    H241012   3.523   6.615   3.742  0.2692  0.9622  1.4883
 6533TIP3   OH241013   1.374   2.757  13.393  1.0763 -0.7904 -0.2327
 6533TIP3    H141014   1.299   2.789  13.444  0.9308  1.0606 -1.5794
 6533TIP3    H241015   1.450   2.775  13.448  0.8929  0.9702 -0.5407
 6534TIP3   OH241016   5.297   2.501  14.338 -0.3388 -0.6886  0.6299
 6534TIP3    H141017   5.385   2.520  14.306 -0.3302 -1.9202 -0.1011
 6534TIP3    H241018   5.279   2.412  14.309 -2.8209  0.4105 -1.4243
 6535TIP3   OH241019   3.064   4.813  15.186 -0.0297 -0.0170 -0.1607
 6535TIP3    H141020   3.095   4.903  15.179  0.2980 -0.2509 -2.1184
 6535TIP3    H241021   2.987   4.810  15.129 -0.2943 -0.8518  0.2407
 6536TIP3   OH241022   6.657   2.346   2.435  0.3419  0.4967  0.2562
 6536TIP3    H141023   6.624   2.407   2.369 -1.2688 -0.7041 -0.0759
 6536TIP3    H241024   6.724   2.396   2.482  0.7962  1.7067 -1.6086
 6537TIP3   OH241025   2.611   6.221   3.007  0.0178 -0.3909 -0.6418
 6537TIP3    H141026   2.657   6.155   2.956 -1.3091 -0.9317 -1.1623
 6537TIP3    H241027   2.623   6.194   3.098  0.0393 -0.9860 -0.8197
 6538TIP3   OH241028   0.478   0.178  11.511  0.4511 -0.3027 -0.1729
 6538TIP3    H141029   0.527   0.113  11.561  0.8800 -2.6226 -3.4521
 6538TIP3    H241030   0.413   0.127  11.463 -1.0879  2.0431 -0.6635
 6539TIP3   OH241031   2.454   3.577  11.869  0.5263  0.2559  0.2105
 6539TIP3    H141032   2.523   3.600  11.931  1.5293 -0.3774 -0.6553
 6539TIP3    H241033   2.453   3.649  11.806  0.9704 -0.1339 -0.2484
 6540TIP3   OH241034   5.858   0.293   1.732  0.2222 -0.4063  0.4245
 6540TIP3    H141035   5.942   0.248   1.733  0.1045 -0.5989  2.4404
 6540TIP3    H241036   5.819   0.275   1.817 -1.1014  1.1222  0.1743
 6541TIP3   OH241037   5.809   0.962   1.869  0.5570  0.3383  0.0015
 6541TIP3    H141038   5.856   0.895   1.818  3.1327  2.3602 -0.4031
 6541TIP3    H241039   5.743   0.996   1.809 -1.5228 -2.5611  0.5696
 6542TIP3   OH241040   1.144   0.300  14.415 -0.4847  0.2950 -0.4300
 6542TIP3    H141041   1.078   0.368  14.400 -0.0511  0.4587 -1.7108
 6542TIP3    H241042   1.224   0.349  14.436  0.0698  0.2543 -2.3021
 6543TIP3   OH241043   6.499   3.131   2.793  0.2230 -0.3447  0.6079
 6543TIP3    H141044   6.518   3.116   2.886  0.1249 -1.7328  0.4213
 6543TIP3    H241045   6.565   3.194   2.764  0.7887 -0.5695  1.4135
 6544TIP3   OH241046   2.677   5.644  15.506  0.3705  0.6669 -0.2486
 6544TIP3    H141047   2.647   5.728  15.541  2.3117  2.4814 -2.7587
 6544TIP3    H241048   2.763   5.632  15.546 -0.1154 -0.3887  0.4856
 6545TIP3   OH241049   5.677   0.349   2.918 -0.1603 -0.2192 -0.3049
 6545TIP3    H141050   5.714   0.306   2.841  2.2530  0.8489  0.1839
 6545TIP3    H241051   5.710   0.299   2.992  1.5036  1.5559  0.2035
 6546TIP3   OH241052   6.533   6.002  13.461  1.6161  0.1242  0.3191
 6546TIP3    H141053   6.606   6.053  13.426  1.4336 -0.6314 -1.1745
 6546TIP3    H241054   6.572   5.947  13.528  2.4590 -0.4477 -0.6329
 6547TIP3   OH241055   1.985   1.376   3.196 -0.0322 -0.4243 -0.4457
 6547TIP3    H141056   1.911   1.342   3.247 -0.0949  1.9898  1.1047
 6547TIP3    H241057   1.956   1.462   3.166  1.1370 -0.5985 -2.1547
 6548TIP3   OH241058   6.592   3.307   5.425 -0.1578  0.2198  0.3168
 6548TIP3    H141059   6.632   3.383   5.383  1.3203  0.3401  1.8694
 6548TIP3    H241060   6.592   3.328   5.518  1.2671 -2.1260  0.8913
 6549TIP3   OH241061   2.806   5.185  12.499  0.2648  0.0762 -0.2863
 6549TIP3    H141062   2.725   5.200  12.449  0.1578 -0.0421 -0.1482
 6549TIP3    H241063   2.847   5.271  12.504 -0.3842  0.3324  0.5665
 6550TIP3   OH241064   3.511   6.345   0.484 -0.3169  0.0344  0.3251
 6550TIP3    H141065   3.466   6.278   0.535  0.8284 -0.2709  0.9574
 6550TIP3    H241066   3.441   6.400   0.450 -1.3352 -1.9371 -0.8759
 6551TIP3   OH241067   2.255   5.925   6.063  0.0137  0.1422 -0.1007
 6551TIP3    H141068   2.345   5.950   6.043  0.1695 -0.0443  0.3653
 6551TIP3    H241069   2.250   5.833   6.038 -0.7069  0.7372 -2.3104
 6552TIP3   OH241070   1.632   2.562   3.977  0.3627  0.8246 -0.1785
 6552TIP3    H141071   1.685   2.625   4.026  0.1262  2.0271 -1.4525
 6552TIP3    H241072   1.678   2.549   3.895 -0.9684  1.3992 -1.0361
 6553TIP3   OH241073   0.685   0.532  13.847 -0.4156 -0.1928 -0.7836
 6553TIP3    H141074   0.670   0.606  13.789  0.1557  0.7201  0.2203
 6553TIP3    H241075   0.756   0.560  13.905 -3.3957  0.4104  2.8250
 6554TIP3   OH241076   4.782   4.979  15.569  0.0311  0.0731 -0.2639
 6554TIP3    H141077   4.767   4.968  15.663  0.7517  2.8190  0.2242
 6554TIP3    H241078   4.729   4.911  15.528  1.0923 -2.3379  2.1856
 6555TIP3   OH241079   2.131   2.988   3.144  0.2392  0.6804 -0.0108
 6555TIP3    H141080   2.214   2.994   3.097  0.3667  1.2188  0.2866
 6555TIP3    H241081   2.090   3.074   3.133 -0.2421  0.4487 -0.0788
 6556TIP3   OH241082   2.213   6.572   5.182  0.0446  0.2448  0.1056
 6556TIP3    H141083   2.229   6.534   5.269  0.3959 -0.5785 -0.3106
 6556TIP3    H241084   2.156   6.647   5.199 -1.7115 -1.2013  0.8258
 6557TIP3   OH241085   4.089   1.276  12.329 -0.4219 -0.0993  0.0937
 6557TIP3    H141086   4.124   1.353  12.374 -0.1111 -0.1923  0.0180
 6557TIP3    H241087   4.032   1.234  12.393  1.3491 -1.1760  1.0207
 6558TIP3   OH241088   6.008   0.906   4.751  0.2673  0.1356  0.1734
 6558TIP3    H141089   6.047   0.903   4.838  0.2891 -0.4332  0.1451
 6558TIP3    H241090   5.914   0.894   4.767  0.5038 -2.2660 -0.0532
 6559TIP3   OH241091   5.467   6.751  12.329 -0.1947 -0.6241  0.0993
 6559TIP3    H141092   5.556   6.779  12.348 -0.7466  0.4946  1.1215
 6559TIP3    H241093   5.436   6.711  12.410 -1.1172  0.3466  0.2426
 6560TIP3   OH241094   1.134   2.891   5.429 -0.1164  0.6674 -0.2605
 6560TIP3    H141095   1.136   2.983   5.402  0.1588  0.9879  0.8394
 6560TIP3    H241096   1.041   2.874   5.449 -0.0265  0.9811  0.4468
 6561TIP3   OH241097   5.832   6.106   4.106  0.1513  0.1122 -0.1413
 6561TIP3    H141098   5.876   6.035   4.058  2.2557  0.4325  1.2331
 6561TIP3    H241099   5.899   6.174   4.114 -1.3217  1.5679  0.0403
 6562TIP3   OH241100   5.487   3.696   2.048 -0.6008 -0.6473 -0.2478
 6562TIP3    H141101   5.537   3.738   2.118  0.0903 -0.1627 -1.0195
 6562TIP3    H241102   5.510   3.603   2.054  0.1528 -0.4735 -0.3983
 6563TIP3   OH241103   0.045   1.076   1.986  0.3520 -0.3715  0.4427
 6563TIP3    H141104   0.053   1.011   2.056 -0.7808 -0.9464  0.0411
 6563TIP3    H241105  -0.046   1.103   1.988  0.4677  0.1001 -0.3789
 6564TIP3   OH241106   4.102   3.055   3.266  0.5856  0.3608  0.0039
 6564TIP3    H141107   4.177   3.000   3.241 -1.0214 -1.5593 -0.7183
 6564TIP3    H241108   4.033   2.993   3.287 -0.4597  2.1122  1.8340
 6565TIP3   OH241109   3.914   0.948   0.826 -0.1434  0.9284 -0.1228
 6565TIP3    H141110   4.007   0.926   0.830 -0.0250  1.1676 -1.3413
 6565TIP3    H241111   3.874   0.873   0.781 -0.6491  0.5034  1.0264
 6566TIP3   OH241112   5.324   0.751  13.308  0.3227  0.2224 -0.1262
 6566TIP3    H141113   5.350   0.788  13.224 -0.5704 -2.0917 -1.4642
 6566TIP3    H241114   5.229   0.752  13.307  0.3010 -0.5803  0.5108
 6567TIP3   OH241115   1.534   0.838   2.496 -0.0981  0.2826 -0.0066
 6567TIP3    H141116   1.521   0.755   2.452  0.2177  0.4220 -0.3667
 6567TIP3    H241117   1.602   0.821   2.561 -1.9915 -0.4238  1.8122
 6568TIP3   OH241118   3.249   3.557   2.452 -0.1264 -0.3178  0.3770
 6568TIP3    H141119   3.204   3.634   2.486  0.1966 -0.8799  2.1608
 6568TIP3    H241120   3.313   3.592   2.389 -0.5667  0.7831  0.5312
 6569TIP3   OH241121   4.339   0.032  11.280 -0.0339  0.3915  0.4039
 6569TIP3    H141122   4.277   0.084  11.229  1.8826  2.7428  0.3449
 6569TIP3    H241123   4.367   0.091  11.351  0.8641 -1.1908  1.3993
 6570TIP3   OH241124   6.642   1.613  12.309  0.3093  0.0324 -0.1290
 6570TIP3    H141125   6.610   1.692  12.352  0.1866 -0.6373  1.0473
 6570TIP3    H241126   6.663   1.553  12.381 -0.2362 -1.2500 -1.0085
 6571TIP3   OH241127   0.135   5.034   4.075 -0.0034 -0.8000  0.0542
 6571TIP3    H141128   0.217   5.031   4.125 -0.5645  0.7262  1.0872
 6571TIP3    H241129   0.144   4.963   4.011  3.4331  1.1765 -1.8556
 6572TIP3   OH241130   0.577   3.295   2.761  0.0807 -0.2385  0.4900
 6572TIP3    H141131   0.613   3.210   2.785 -1.0010 -1.1281 -0.9116
 6572TIP3    H241132   0.553   3.336   2.844  2.9313 -0.2189  1.3423
 6573TIP3   OH241133   0.035   2.559   4.976  0.3652  0.0028  0.2929
 6573TIP3    H141134   0.028   2.654   4.972 -0.9161 -0.1437 -1.0189
 6573TIP3    H241135   0.129   2.543   4.981  0.6717  1.2768 -1.0320
 6574TIP3   OH241136   0.259   0.243   3.882  0.2096 -0.3534 -0.3088
 6574TIP3    H141137   0.284   0.219   3.971  2.6840  2.0835 -0.3074
 6574TIP3    H241138   0.341   0.248   3.834 -0.9689 -0.1228 -2.3887
 6575TIP3   OH241139   5.292   4.272   0.215  0.3158 -0.7892 -0.0259
 6575TIP3    H141140   5.352   4.326   0.163  0.2973 -0.1928  0.5658
 6575TIP3    H241141   5.248   4.217   0.151  0.7976 -0.5497 -0.5679
 6576TIP3   OH241142   3.742   5.311  11.005 -0.7128  0.5675 -0.3195
 6576TIP3    H141143   3.734   5.363  11.085 -4.2168 -0.4000  0.0543
 6576TIP3    H241144   3.746   5.375  10.934 -1.2481  1.3837  0.3847
 6577TIP3   OH241145   0.324   6.527   4.435 -0.0966 -0.4104 -0.0975
 6577TIP3    H141146   0.251   6.477   4.400  2.7035 -2.4847 -3.2836
 6577TIP3    H241147   0.381   6.461   4.476  1.6020  0.7013 -0.6041
 6578TIP3   OH241148   2.915   3.692  16.860 -0.3221  0.2922 -0.4668
 6578TIP3    H141149   2.999   3.647  16.872 -0.6165  0.2000  1.3206
 6578TIP3    H241150   2.868   3.678  16.942 -1.3564  1.8991 -0.7645
 6579TIP3   OH241151   0.937   5.867   1.060 -0.0625 -0.1040 -0.3901
 6579TIP3    H141152   0.986   5.814   1.122 -1.6817 -0.7712  0.3390
 6579TIP3    H241153   0.881   5.922   1.114  0.9400  1.7160 -1.1668
 6580TIP3   OH241154   3.139   0.862  11.621 -0.0288 -0.2743 -0.6481
 6580TIP3    H141155   3.162   0.951  11.592 -1.9184  0.4287 -0.0595
 6580TIP3    H241156   3.205   0.841  11.687 -1.1156  1.7720  1.1490
 6581TIP3   OH241157   5.635   4.682   0.607  0.0957  0.0066  0.0663
 6581TIP3    H141158   5.710   4.640   0.649  1.5210  0.6806 -1.7270
 6581TIP3    H241159   5.601   4.616   0.547  0.5742  0.3876 -0.6469
 6582TIP3   OH241160   3.418   0.868   0.781  0.1596 -0.6257  0.1705
 6582TIP3    H141161   3.421   0.964   0.781 -0.3389 -0.6040 -0.6015
 6582TIP3    H241162   3.351   0.847   0.845 -0.9156 -0.4051 -0.8699
 6583TIP3   OH241163   5.725   1.943   5.899 -0.1371  0.0277 -0.0832
 6583TIP3    H141164   5.729   1.981   5.812 -0.2913 -0.3419 -0.2533
 6583TIP3    H241165   5.789   1.872   5.898 -1.7150 -1.4304 -0.6166
 6584TIP3   OH241166   6.470   6.531  12.065  0.0698 -0.4559 -0.2931
 6584TIP3    H141167   6.461   6.533  12.160 -1.5894  0.4315 -0.4494
 6584TIP3    H241168   6.462   6.439  12.042  1.9932 -0.8622  0.5394
 6585TIP3   OH241169   6.061   3.178   3.365 -0.5506  0.5571 -0.0537
 6585TIP3    H141170   6.142   3.145   3.403  0.0683  0.6828 -1.2203
 6585TIP3    H241171   6.089   3.242   3.299 -1.6578  1.7273  0.5904
 6586TIP3   OH241172   3.890   2.136   4.599 -0.3328 -0.0894 -0.0592
 6586TIP3    H141173   3.800   2.163   4.578 -0.1936  0.7385  0.3421
 6586TIP3    H241174   3.942   2.166   4.525 -0.2839  0.0943  0.0488
 6587TIP3   OH241175   0.876   0.769   4.592  0.7906  0.4685  0.5689
 6587TIP3    H141176   0.808   0.807   4.537  0.0680 -0.1661  1.0154
 6587TIP3    H241177   0.841   0.685   4.619  1.7749  0.1128  0.7722
 6588TIP3   OH241178   0.602   3.972   3.867 -0.0372 -0.1056 -0.2671
 6588TIP3    H141179   0.646   3.967   3.952  0.7133 -2.1748 -0.7651
 6588TIP3    H241180   0.567   4.061   3.864  1.2882  0.5082  1.5410
 6589TIP3   OH241181   3.363   2.890  13.404 -0.4395 -0.1143  0.2652
 6589TIP3    H141182   3.408   2.897  13.488 -0.3950 -3.0836  0.5427
 6589TIP3    H241183   3.423   2.932  13.341  1.1647 -1.0181  1.1610
 6590TIP3   OH241184   0.466   3.974  17.023 -0.2990  0.2674  0.2040
 6590TIP3    H141185   0.459   4.001  16.931 -1.7775  0.2113  0.2802
 6590TIP3    H241186   0.403   4.030  17.069  1.2162  1.0368  1.3516
 6591TIP3   OH241187   4.783   0.238   1.058  0.0634  0.2872  1.0501
 6591TIP3    H141188   4.837   0.285   0.994 -1.5981 -1.4262 -1.7143
 6591TIP3    H241189   4.700   0.286   1.059 -1.5702 -2.2891 -1.6334
 6592TIP3   OH241190   1.461   0.175   4.805  0.0195 -0.0931 -0.3148
 6592TIP3    H141191   1.454   0.080   4.811 -2.0890 -0.0173 -1.3493
 6592TIP3    H241192   1.376   0.204   4.773  0.6252  2.1556  0.0056
 6593TIP3   OH241193   6.149   1.919   0.592 -0.1621  0.4007  0.1748
 6593TIP3    H141194   6.096   1.848   0.557 -0.7255  0.6807  0.4631
 6593TIP3    H241195   6.168   1.894   0.682  2.6380 -1.0952 -0.7709
 6594TIP3   OH241196   3.281   3.686  16.900 -0.4156 -0.2051 -0.0356
 6594TIP3    H141197   3.291   3.676  16.994  0.2172 -0.8485 -0.1700
 6594TIP3    H241198   3.215   3.622  16.875  0.3286 -0.9181 -0.2125
 6595TIP3   OH241199   0.812   1.416  11.148 -0.3590  0.8552 -0.0336
 6595TIP3    H141200   0.736   1.441  11.096 -0.6296  0.0167 -0.0543
 6595TIP3    H241201   0.878   1.482  11.127 -0.5758  0.7102 -1.1881
 6596TIP3   OH241202   3.160   2.201   6.667 -0.6043 -0.2539  0.1828
 6596TIP3    H141203   3.187   2.176   6.755  0.9086 -1.9364 -0.7266
 6596TIP3    H241204   3.144   2.117   6.622 -1.8429  0.5905 -1.0076
 6597TIP3   OH241205   3.140   4.980  15.733  0.6690 -0.3808  0.1921
 6597TIP3    H141206   3.129   4.915  15.664  1.7797  0.9488 -1.2605
 6597TIP3    H241207   3.171   5.058  15.688  1.5567  0.4646  2.2156
 6598TIP3   OH241208   5.477   6.229  15.564  0.6849 -0.0777  0.2069
 6598TIP3    H141209   5.475   6.136  15.540  0.8473  0.0200 -0.1857
 6598TIP3    H241210   5.409   6.238  15.631 -1.1587  0.0602 -1.6708
 6599TIP3   OH241211   1.512   5.057  17.065 -0.1253 -0.4366 -0.2004
 6599TIP3    H141212   1.551   5.113  16.998 -0.5893 -0.7395 -0.7255
 6599TIP3    H241213   1.419   5.057  17.044 -0.2773 -0.5074  0.4673
 6600TIP3   OH241214   6.439   3.734   3.255 -0.0174  0.5288  0.9089
 6600TIP3    H141215   6.437   3.788   3.334  1.1409 -0.1628  1.4270
 6600TIP3    H241216   6.433   3.796   3.183 -0.2682  1.2253  1.5237
 6601TIP3   OH241217   1.767   1.069  15.216  0.2667 -0.3849 -0.5599
 6601TIP3    H141218   1.700   1.133  15.239  0.2124 -0.9368  0.8353
 6601TIP3    H241219   1.828   1.071  15.290  0.4113 -1.7364 -0.6356
 6602TIP3   OH241220   1.675   2.253  15.040 -0.4586  0.1948 -0.0271
 6602TIP3    H141221   1.728   2.184  14.999  0.9557  0.7616  0.8099
 6602TIP3    H241222   1.676   2.324  14.976 -0.0137  0.2915  0.0872
 6603TIP3   OH241223   6.573   6.196   5.457  0.4597 -0.5985  0.2992
 6603TIP3    H141224   6.526   6.275   5.484 -0.4158 -0.4815 -1.5298
 6603TIP3    H241225   6.506   6.138   5.423  1.0443 -2.3267  1.9717
 6604TIP3   OH241226   0.264   3.336  12.768 -0.0789 -0.3125  0.0585
 6604TIP3    H141227   0.243   3.428  12.779 -2.0891 -0.8720  1.0690
 6604TIP3    H241228   0.247   3.318  12.675 -0.3090  0.1773  0.0053
 6605TIP3   OH241229   1.175   6.681   1.469 -0.0579 -0.4160 -0.8474
 6605TIP3    H141230   1.142   6.658   1.556  2.2151  1.5721  0.6246
 6605TIP3    H241231   1.106   6.736   1.431  0.8133  2.4800  1.5804
 6606TIP3   OH241232   1.974   6.040  15.698  0.4798  0.0243 -0.4556
 6606TIP3    H141233   2.006   6.027  15.787 -0.6048 -2.4936 -0.4248
 6606TIP3    H241234   2.007   5.965  15.649 -1.8824 -0.4626 -1.3640
 6607TIP3   OH241235   3.232   4.846   6.240  0.5340  0.1009 -0.0453
 6607TIP3    H141236   3.261   4.923   6.192  0.6646 -0.3307 -0.6727
 6607TIP3    H241237   3.201   4.879   6.324 -1.3566  1.0930 -1.0925
 6608TIP3   OH241238   3.953   0.894   3.272 -0.5567 -0.2918  0.0382
 6608TIP3    H141239   3.890   0.931   3.333  0.1698  0.7200  0.1961
 6608TIP3    H241240   4.032   0.948   3.283  0.1300 -1.1453 -0.5885
 6609TIP3   OH241241   5.905   5.588   4.423 -0.0962  0.0538 -0.6798
 6609TIP3    H141242   5.994   5.579   4.457  0.4723  0.1892 -2.1132
 6609TIP3    H241243   5.914   5.573   4.329 -1.5601  0.2578 -0.8538
 6610TIP3   OH241244   2.207   3.922  14.261 -0.0788  0.4417  0.0240
 6610TIP3    H141245   2.296   3.937  14.230  0.2085  1.1678  1.1690
 6610TIP3    H241246   2.190   3.830  14.240  0.8516  0.3662 -0.4242
 6611TIP3   OH241247   3.913   4.685  15.296  0.3366  0.4552  0.5011
 6611TIP3    H141248   3.903   4.773  15.332  0.1313  0.5168  0.2929
 6611TIP3    H241249   3.947   4.699  15.208 -2.3995  0.4563 -0.6039
 6612TIP3   OH241250   3.155   4.251   1.850  0.7380  0.5424  0.1871
 6612TIP3    H141251   3.117   4.339   1.845 -2.0516 -0.6724 -0.9718
 6612TIP3    H241252   3.085   4.196   1.884  2.6668 -1.1516  1.5720
 6613TIP3   OH241253   3.461   4.676  13.067  0.2542  0.2135 -0.2324
 6613TIP3    H141254   3.477   4.769  13.079 -0.1340  0.4393 -1.3714
 6613TIP3    H241255   3.441   4.667  12.974  0.0018 -0.9615 -0.0756
 6614TIP3   OH241256   2.962   5.071  13.542  0.3947  0.4184 -0.1627
 6614TIP3    H141257   2.991   5.149  13.495  1.7236 -0.6733 -1.1610
 6614TIP3    H241258   2.888   5.038  13.490  0.0073  0.8532  0.1104
 6615TIP3   OH241259   0.803   5.071  11.677 -0.2981 -0.2208  0.3420
 6615TIP3    H141260   0.879   5.099  11.728  0.1338 -1.7779  0.5991
 6615TIP3    H241261   0.824   5.097  11.587  1.2435 -1.9307  0.1581
 6616TIP3   OH241262   3.729   5.851  15.130  0.0959  0.4781 -0.2915
 6616TIP3    H141263   3.700   5.831  15.219  1.3076  0.3089  0.0737
 6616TIP3    H241264   3.763   5.940  15.136 -0.8400  0.8805 -0.8386
 6617TIP3   OH241265   1.408   0.802  15.425 -0.1325  0.1146 -0.1728
 6617TIP3    H141266   1.444   0.718  15.397  1.7099  0.6536  0.5589
 6617TIP3    H241267   1.467   0.832  15.494 -0.3486  2.3458 -0.9247
 6618TIP3   OH241268   0.011   0.095  11.347 -0.4491  0.1603 -0.4202
 6618TIP3    H141269  -0.023   0.183  11.332 -0.6314  0.1136 -0.2778
 6618TIP3    H241270   0.086   0.107  11.405 -1.2373  0.0999  0.6261
 6619TIP3   OH241271   2.674   5.843  12.287 -0.0370 -0.3088  0.2686
 6619TIP3    H141272   2.725   5.908  12.336 -1.6541  1.1082  0.1071
 6619TIP3    H241273   2.702   5.855  12.197  0.2307 -0.3561  0.3450
 6620TIP3   OH241274   2.930   4.445   3.310  0.2284 -0.1274  0.0920
 6620TIP3    H141275   3.013   4.398   3.316 -1.4819 -3.5372 -1.5027
 6620TIP3    H241276   2.940   4.502   3.234  0.2906 -2.3841 -1.6388
 6621TIP3   OH241277   2.337   3.898   4.559  0.0837 -0.2155 -0.0999
 6621TIP3    H141278   2.430   3.888   4.580  0.3788 -1.1775 -1.7651
 6621TIP3    H241279   2.320   3.829   4.495 -1.7055  0.1717 -0.0584
 6622TIP3   OH241280   0.313   3.520  15.366  0.1984  0.1506 -0.0638
 6622TIP3    H141281   0.322   3.486  15.277  1.7059 -0.4984  0.3344
 6622TIP3    H241282   0.402   3.529  15.398 -0.3037  1.1965  1.0934
 6623TIP3   OH241283   4.438   1.383  14.173  0.1253 -0.4113  0.2225
 6623TIP3    H141284   4.497   1.439  14.222  1.4155  0.4389 -2.2005
 6623TIP3    H241285   4.350   1.405  14.205  0.8670  0.7458  1.4805
 6624TIP3   OH241286   2.554   4.907  13.220 -0.2126 -0.1385 -0.1549
 6624TIP3    H141287   2.552   4.981  13.160 -2.4191 -0.7811 -0.9052
 6624TIP3    H241288   2.552   4.830  13.163  0.3033 -0.7702  0.6719
 6625TIP3   OH241289   3.239   6.609  11.878 -0.5002  0.5753  0.1091
 6625TIP3    H141290   3.286   6.686  11.844 -0.1877  0.9690  1.4035
 6625TIP3    H241291   3.253   6.542  11.811 -0.5048  1.5438 -0.8910
 6626TIP3   OH241292   6.429   5.597   6.626  0.0580  0.0632  0.2715
 6626TIP3    H141293   6.356   5.586   6.566 -0.2490 -1.1245  0.8384
 6626TIP3    H241294   6.439   5.691   6.636  0.3523  0.2897 -1.9281
 6627TIP3   OH241295   4.795   3.103   1.401 -0.5878  0.5311  0.4198
 6627TIP3    H141296   4.707   3.132   1.380 -0.4976  0.6047  0.1434
 6627TIP3    H241297   4.848   3.128   1.325 -0.1269  1.4136  1.0107
 6628TIP3   OH241298   6.017   2.262  13.434 -0.2760 -0.3459  0.0634
 6628TIP3    H141299   6.038   2.191  13.373 -0.8541 -0.7484  0.3277
 6628TIP3    H241300   5.930   2.241  13.466  0.5837 -0.9096  2.1134
 6629TIP3   OH241301   5.449   0.545  12.365 -0.3166  0.3640  0.1029
 6629TIP3    H141302   5.355   0.529  12.358  0.1834 -3.5803  1.3635
 6629TIP3    H241303   5.469   0.528  12.457  1.7026  0.9794 -0.1958
 6630TIP3   OH241304   5.440   6.557   2.492 -0.2544 -0.1631 -0.2301
 6630TIP3    H141305   5.435   6.474   2.446  0.4062 -0.8123  0.8565
 6630TIP3    H241306   5.476   6.536   2.577  0.4007  1.3080 -0.1185
 6631TIP3   OH241307   1.314   4.195   5.099 -0.2503 -0.3083 -0.3973
 6631TIP3    H141308   1.220   4.178   5.088  0.0005 -1.3615 -0.9516
 6631TIP3    H241309   1.356   4.116   5.067  0.8955  0.7975 -1.7120
 6632TIP3   OH241310   2.775   4.851  10.413  0.3250 -0.2419  0.3509
 6632TIP3    H141311   2.829   4.823  10.486  0.9346 -0.5496 -0.2090
 6632TIP3    H241312   2.828   4.915  10.366 -0.8575  1.4902  1.3244
 6633TIP3   OH241313   2.868   2.036  15.894  0.2890 -0.0438  0.2645
 6633TIP3    H141314   2.869   2.131  15.889  2.8048  0.0260  1.0010
 6633TIP3    H241315   2.847   2.017  15.986 -1.3749 -0.2429 -0.1455
 6634TIP3   OH241316   0.811   5.653   0.125 -0.4622  0.1205  0.4753
 6634TIP3    H141317   0.818   5.747   0.142  1.6795  0.3357 -1.4051
 6634TIP3    H241318   0.876   5.614   0.183  1.7695  0.2281 -1.8800
 6635TIP3   OH241319   2.274   5.569   1.831 -0.4783 -0.0073  0.0185
 6635TIP3    H141320   2.216   5.496   1.855  0.1753 -0.3008  0.7367
 6635TIP3    H241321   2.252   5.639   1.893  1.1538 -0.7369  1.4710
 6636TIP3   OH241322   2.890   0.964  14.365 -0.0967 -0.0034 -0.0897
 6636TIP3    H141323   2.896   0.869  14.356  0.1704 -0.0833  0.9137
 6636TIP3    H241324   2.891   0.996  14.275 -1.8958 -1.0410 -0.5161
 6637TIP3   OH241325   5.034   4.186   0.761  0.0829  0.0562  0.1879
 6637TIP3    H141326   5.029   4.280   0.775  0.2652 -0.0893  1.2312
 6637TIP3    H241327   4.943   4.158   0.751 -0.0488  0.1805  0.9937
 6638TIP3   OH241328   4.863   0.147   4.964  0.0297  0.3047 -0.3622
 6638TIP3    H141329   4.888   0.083   4.897 -0.7525  0.4057 -0.7463
 6638TIP3    H241330   4.768   0.147   4.964 -0.0193  3.1624 -1.9856
 6639TIP3   OH241331   1.450   6.013  14.639 -0.3833 -0.6950 -0.4155
 6639TIP3    H141332   1.454   5.975  14.552 -0.9889  1.5427 -1.4530
 6639TIP3    H241333   1.532   5.986  14.680 -0.0260 -1.6473 -1.7091
 6640TIP3   OH241334   6.459   1.835   4.922  0.0310 -0.2687 -0.1513
 6640TIP3    H141335   6.512   1.900   4.968 -2.0089  1.0136  0.4656
 6640TIP3    H241336   6.509   1.754   4.928  2.2674  1.0655 -0.2821
 6641TIP3   OH241337   6.344   3.092  14.921  0.1860  0.3949  0.2998
 6641TIP3    H141338   6.306   3.151  14.857  0.3952  1.9360  1.5623
 6641TIP3    H241339   6.439   3.104  14.913  0.1998  0.9774  1.2285
 6642TIP3   OH241340   0.690   0.603  16.179 -0.5503 -0.2732 -0.0283
 6642TIP3    H141341   0.736   0.525  16.148  0.5372  0.7932 -1.1485
 6642TIP3    H241342   0.705   0.669  16.111  0.0297  1.4534  1.7243
 6643TIP3   OH241343   0.907   0.653   0.556 -0.4743  0.0408 -0.3702
 6643TIP3    H141344   0.889   0.745   0.576  2.0274  0.2993  0.8628
 6643TIP3    H241345   0.922   0.652   0.461 -0.8611  0.8482 -0.4413
 6644TIP3   OH241346   2.863   0.195   4.420  0.2226  0.3041 -0.1695
 6644TIP3    H141347   2.876   0.184   4.326  0.8733 -0.6991  0.0203
 6644TIP3    H241348   2.821   0.280   4.430 -0.9192 -0.1016 -1.4501
 6645TIP3   OH241349   2.650   4.799   3.076  0.3412 -0.2132  0.1813
 6645TIP3    H141350   2.649   4.720   3.130 -1.8975 -0.0135  0.4761
 6645TIP3    H241351   2.603   4.774   2.996  1.5480  0.1925 -0.6801
 6646TIP3   OH241352   5.437   2.324  12.797 -0.0365  0.3225 -0.0364
 6646TIP3    H141353   5.365   2.323  12.860 -0.3674 -1.0630 -0.4224
 6646TIP3    H241354   5.394   2.325  12.711  0.4121  2.0589 -0.2551
 6647TIP3   OH241355   3.349   2.480  13.358  0.1432 -0.3192  0.6041
 6647TIP3    H141356   3.295   2.536  13.414  0.8409  0.0720  0.8847
 6647TIP3    H241357   3.329   2.509  13.269 -0.2959 -0.3451  0.6905
 6648TIP3   OH241358   4.431   5.369  13.688 -0.1282  0.5269 -0.7778
 6648TIP3    H141359   4.342   5.372  13.652  0.1139  0.2359 -1.4098
 6648TIP3    H241360   4.421   5.330  13.775 -0.5471 -0.0344 -1.0764
 6649TIP3   OH241361   3.314   5.789   1.388 -0.3541 -0.4830 -0.3680
 6649TIP3    H141362   3.374   5.744   1.329  0.6224  0.0714  0.1762
 6649TIP3    H241363   3.262   5.846   1.331  1.3141  0.8540 -0.6038
 6650TIP3   OH241364   3.216   4.053   1.673  0.2971  0.1355 -0.2510
 6650TIP3    H141365   3.212   4.144   1.703 -0.5358 -0.0213  0.1258
 6650TIP3    H241366   3.302   4.045   1.632 -0.1315  1.4573 -1.4471
 6651TIP3   OH241367   3.884   0.395  11.271 -0.1941  0.7692  0.1155
 6651TIP3    H141368   3.801   0.351  11.292  0.4004  0.1772  1.2462
 6651TIP3    H241369   3.874   0.422  11.179 -1.1187 -0.4873 -0.1716
 6652TIP3   OH241370   2.190   0.444  17.112 -0.1725 -0.0847  0.0726
 6652TIP3    H141371   2.191   0.366  17.167 -0.0710 -0.4082 -0.3791
 6652TIP3    H241372   2.118   0.428  17.051  0.6627 -0.4125 -0.8492
 6653TIP3   OH241373   6.774   4.756  17.147 -0.3899  0.4480 -0.0367
 6653TIP3    H141374   6.695   4.754  17.093 -0.3999  0.8877 -0.0387
 6653TIP3    H241375   6.753   4.815  17.219 -1.3940 -2.3426  2.0282
 6654TIP3   OH241376   6.333   6.189   4.002 -0.4024  0.2955  0.7378
 6654TIP3    H141377   6.250   6.169   3.959  0.4725  0.0863 -0.9299
 6654TIP3    H241378   6.395   6.197   3.929  1.4962 -1.7722  2.0819
 6655TIP3   OH241379   2.870   5.694   1.968 -0.4863  0.5144 -0.5608
 6655TIP3    H141380   2.954   5.668   1.930 -0.5384  0.4043 -0.6028
 6655TIP3    H241381   2.805   5.670   1.902 -0.3925  2.4031 -1.3620
 6656TIP3   OH241382   1.828   2.065   4.804 -0.2124 -0.3694  0.5825
 6656TIP3    H141383   1.904   2.007   4.812  0.3617 -0.0886 -2.3493
 6656TIP3    H241384   1.842   2.111   4.722 -1.5362  2.6899  1.9990
 6657TIP3   OH241385   1.093   0.540   2.687 -0.1782  0.2055 -0.0580
 6657TIP3    H141386   1.002   0.510   2.690 -0.2018  0.1099 -1.2625
 6657TIP3    H241387   1.142   0.463   2.657  0.5392 -0.2303  2.1578
 6658TIP3   OH241388   5.463   2.431  16.165  0.2685  0.3516 -0.2905
 6658TIP3    H141389   5.435   2.391  16.248  2.5015 -0.4068  0.1343
 6658TIP3    H241390   5.553   2.458  16.181 -0.2887  3.0245 -1.5158
 6659TIP3   OH241391   3.322   1.523  12.007 -0.1219  0.3046 -0.0411
 6659TIP3    H141392   3.272   1.482  11.936  1.2123 -0.0689 -0.7792
 6659TIP3    H241393   3.276   1.496  12.087 -1.1691  0.0711 -0.7092
 6660TIP3   OH241394   0.978   3.619  14.418 -0.3822 -0.5057 -0.1676
 6660TIP3    H141395   1.061   3.658  14.445 -1.1496  0.4824  0.8310
 6660TIP3    H241396   0.997   3.526  14.410  1.2208 -0.0847 -1.5388
 6661TIP3   OH241397   1.942   5.688   5.323 -0.2810  0.1592  0.2469
 6661TIP3    H141398   1.855   5.649   5.336  0.5666 -2.3335 -1.2481
 6661TIP3    H241399   1.998   5.643   5.386  0.8588 -1.5873 -1.9879
 6662TIP3   OH241400   5.790   1.565  13.973 -0.1799 -0.3130  0.1687
 6662TIP3    H141401   5.745   1.512  14.040  1.3996 -0.8885  0.8039
 6662TIP3    H241402   5.792   1.653  14.010 -1.7364 -0.0422 -0.3501
 6663TIP3   OH241403   3.876   0.944   1.110  0.0534 -0.1083  0.6635
 6663TIP3    H141404   3.820   0.868   1.123 -0.3644  0.3346  1.4890
 6663TIP3    H241405   3.873   0.960   1.016 -0.7369 -0.4457  0.6256
 6664TIP3   OH241406   2.583   1.919  15.934 -0.4790 -0.3551  0.9269
 6664TIP3    H141407   2.624   1.879  15.857 -1.3975 -1.2925  0.9071
 6664TIP3    H241408   2.651   1.921  16.000  0.0164 -0.5222  0.4268
 6665TIP3   OH241409   3.355   1.176   5.476 -0.4175 -1.2977  0.0952
 6665TIP3    H141410   3.414   1.118   5.524 -0.1630 -1.8211 -0.8355
 6665TIP3    H241411   3.393   1.264   5.488 -0.1503 -1.4728  0.5379
 6666TIP3   OH241412   0.449   2.869   4.153 -0.0458  0.2989  0.3869
 6666TIP3    H141413   0.417   2.779   4.149 -0.4094  0.4591 -0.5651
 6666TIP3    H241414   0.510   2.876   4.079 -0.0293  0.8395  0.4494
 6667TIP3   OH241415   2.063   6.255   3.809  0.1232  0.2665  0.6937
 6667TIP3    H141416   2.091   6.164   3.803  2.2969  0.9703 -0.5110
 6667TIP3    H241417   1.994   6.263   3.743  0.9243 -0.1899 -0.2237
 6668TIP3   OH241418   0.046   5.035   2.401  0.0008 -0.7081 -0.0085
 6668TIP3    H141419   0.074   4.961   2.347  0.7500 -0.3278 -0.1507
 6668TIP3    H241420   0.083   5.112   2.358 -0.2582 -0.3054  0.4782
 6669TIP3   OH241421   5.728   3.660  16.311  0.4899 -0.1362  0.3274
 6669TIP3    H141422   5.732   3.749  16.347  1.8557 -0.3284  0.6826
 6669TIP3    H241423   5.757   3.670  16.220 -0.3016 -0.0709  0.0814
 6670TIP3   OH241424   6.147   2.127   3.857  0.0076 -0.1154  0.3452
 6670TIP3    H141425   6.240   2.136   3.875  0.3411  3.1876 -2.4897
 6670TIP3    H241426   6.142   2.057   3.791  0.5541  0.2329 -0.0652
 6671TIP3   OH241427   5.130   1.853   3.957 -0.0274 -0.0433 -0.6023
 6671TIP3    H141428   5.211   1.804   3.942  0.6942  0.2429  2.0442
 6671TIP3    H241429   5.074   1.792   4.005  0.6120  1.4351  2.1022
 6672TIP3   OH241430   0.587   4.928  17.027  0.0242 -0.1766 -0.3943
 6672TIP3    H141431   0.587   4.887  17.114  1.3704  0.2270 -0.1942
 6672TIP3    H241432   0.496   4.955  17.013  0.0038  0.7287  1.3654
 6673TIP3   OH241433   2.699   1.839   4.296 -0.4060 -0.1560 -0.3425
 6673TIP3    H141434   2.672   1.791   4.218 -2.7642  0.3142  0.1528
 6673TIP3    H241435   2.623   1.837   4.353  0.7928  0.7893  1.3412
 6674TIP3   OH241436   1.805   5.688  12.893 -0.1456  0.1337  0.2875
 6674TIP3    H141437   1.742   5.650  12.833  0.0381  0.5603 -0.1782
 6674TIP3    H241438   1.890   5.660  12.860 -0.0404  0.4399  0.2935
 6675TIP3   OH241439   3.847   0.339  15.928 -0.3534  0.1833 -0.4195
 6675TIP3    H141440   3.805   0.376  16.006 -1.2368  2.0559 -1.7324
 6675TIP3    H241441   3.918   0.400  15.907 -0.3917 -0.0649 -1.3234
 6676TIP3   OH241442   6.740   0.420  12.484 -0.8515 -0.2383 -0.1093
 6676TIP3    H141443   6.790   0.469  12.549  0.0128 -1.9608  0.5493
 6676TIP3    H241444   6.680   0.485  12.446  1.0373  1.6092 -0.0720
 6677TIP3   OH241445   1.141   5.260   2.475  0.1154  0.5066  0.1085
 6677TIP3    H141446   1.188   5.177   2.486 -0.2305  0.2430 -0.4110
 6677TIP3    H241447   1.142   5.299   2.563  2.6620  1.2406 -0.1965
 6678TIP3   OH241448   4.241   4.016   6.359 -0.2400 -0.2672 -0.0462
 6678TIP3    H141449   4.310   3.953   6.338  0.1719 -0.5548  2.0953
 6678TIP3    H241450   4.160   3.966   6.354 -0.0826 -0.4996 -0.2532
 6679TIP3   OH241451   2.036   4.408   5.251 -0.1630 -0.2766  0.1076
 6679TIP3    H141452   2.065   4.317   5.263 -0.5985 -0.5096 -0.5765
 6679TIP3    H241453   1.958   4.415   5.306  0.1599 -0.1595  0.5614
 6680TIP3   OH241454   3.047   5.469  14.479 -0.1583  0.4977 -0.8221
 6680TIP3    H141455   2.986   5.413  14.527  0.0385  0.5320 -0.5322
 6680TIP3    H241456   3.003   5.487  14.396 -1.3817  2.0991  0.1519
 6681TIP3   OH241457   6.288   1.036  12.992  0.3716  0.7308  0.5685
 6681TIP3    H141458   6.344   1.004  13.063 -0.6314  0.4001  1.2091
 6681TIP3    H241459   6.244   1.112  13.028 -1.2249 -0.2772  0.7885
 6682TIP3   OH241460   0.701   4.168   5.373  0.3134 -0.1778 -0.5302
 6682TIP3    H141461   0.606   4.160   5.367  0.1615  1.7835 -0.8298
 6682TIP3    H241462   0.717   4.212   5.456  0.8696  0.9553 -1.2182
 6683TIP3   OH241463   1.305   5.457  13.898  0.6671 -0.0261 -0.1212
 6683TIP3    H141464   1.365   5.421  13.834  1.7794  0.8019  0.4323
 6683TIP3    H241465   1.332   5.548  13.907 -0.2380  0.1730  0.6393
 6684TIP3   OH241466   1.856   4.590  14.943 -0.2324  0.0063  0.0036
 6684TIP3    H141467   1.897   4.626  14.865  1.1597  1.3035  1.3174
 6684TIP3    H241468   1.921   4.531  14.980 -1.3156 -1.4832 -0.4097
 6685TIP3   OH241469   2.913   6.513  15.226 -0.9819  0.1199  0.6114
 6685TIP3    H141470   2.901   6.424  15.193 -0.5352 -0.0701  0.9497
 6685TIP3    H241471   2.871   6.569  15.161 -1.4175 -0.3501  0.4888
 6686TIP3   OH241472   1.972   1.080  11.824 -0.4739  0.2263 -0.1920
 6686TIP3    H141473   1.899   1.048  11.772 -0.2100 -0.1083 -0.3592
 6686TIP3    H241474   2.003   1.003  11.872 -1.3407  0.7340  1.2219
 6687TIP3   OH241475   6.410   0.231  14.171  0.2573 -0.0750 -0.0663
 6687TIP3    H141476   6.415   0.156  14.231 -0.7991 -1.7551 -2.0096
 6687TIP3    H241477   6.501   0.254  14.154  0.6261 -1.6541 -0.3162
 6688TIP3   OH241478   4.934   2.393   4.008  0.3493  0.4087 -0.4861
 6688TIP3    H141479   5.023   2.418   3.986 -0.1874  0.5134 -2.5825
 6688TIP3    H241480   4.910   2.327   3.943 -1.0476  0.2383  0.1743
 6689TIP3   OH241481   4.079   6.312   4.544  0.6093 -0.0863  0.1556
 6689TIP3    H141482   4.104   6.222   4.524  2.1167  0.4587 -0.4308
 6689TIP3    H241483   3.986   6.316   4.521  0.5479 -1.4667  0.1114
 6690TIP3   OH241484   5.205   5.948   3.200  0.0383  0.4857 -0.0082
 6690TIP3    H141485   5.139   5.878   3.202  0.6559 -0.0923  0.4746
 6690TIP3    H241486   5.157   6.025   3.169 -0.7724 -0.0239 -0.0517
 6691TIP3   OH241487   0.432   0.839  13.076 -0.0537  0.1804 -0.0355
 6691TIP3    H141488   0.372   0.818  13.005 -0.4304  0.4446  0.2082
 6691TIP3    H241489   0.393   0.799  13.153  1.5092 -2.0877 -0.3730
 6692TIP3   OH241490   5.002   6.160  14.973 -0.0306  0.1507  0.2760
 6692TIP3    H141491   5.019   6.116  15.056 -0.0353  1.2030  0.8502
 6692TIP3    H241492   5.088   6.185  14.940 -0.0539  0.0700  0.1519
 6693TIP3   OH241493   1.183   2.077  16.035 -0.1131  0.0966 -0.0737
 6693TIP3    H141494   1.126   2.009  16.071 -0.0523  0.2938  0.4120
 6693TIP3    H241495   1.125   2.129  15.980 -0.3905  0.2353  0.3392
 6694TIP3   OH241496   4.311   4.226  14.294  0.5028 -0.5332 -0.3118
 6694TIP3    H141497   4.288   4.234  14.387 -0.7127 -0.6182 -0.5902
 6694TIP3    H241498   4.382   4.161  14.292  0.3195 -0.7692  0.5224
 6695TIP3   OH241499   2.479   3.989   4.804 -0.5856 -0.2393 -0.0026
 6695TIP3    H141500   2.562   3.955   4.770 -0.5658  0.8357 -1.0738
 6695TIP3    H241501   2.496   4.082   4.820 -1.3512 -0.1876  0.5297
 6696TIP3   OH241502   3.227   5.730   1.033  0.4640 -0.2690 -0.0533
 6696TIP3    H141503   3.197   5.667   0.968 -1.5894  0.2767  0.3570
 6696TIP3    H241504   3.154   5.790   1.045  1.8353  1.2899  0.7170
 6697TIP3   OH241505   3.173   6.059   0.080  0.1068  0.4015 -0.4227
 6697TIP3    H141506   3.122   6.112   0.142 -0.0830  0.9209 -1.0117
 6697TIP3    H241507   3.136   5.971   0.087 -0.6805  0.7133 -0.6326
 6698TIP3   OH241508   1.880   4.069   6.120 -0.1934  0.6022  0.0850
 6698TIP3    H141509   1.968   4.042   6.096  0.9149  3.0032  1.3106
 6698TIP3    H241510   1.852   4.004   6.186  0.1610 -0.8450 -1.1649
 6699TIP3   OH241511   0.408   6.745  17.084 -0.6174  0.0333  0.0965
 6699TIP3    H141512   0.343   6.743  17.155  0.5543 -0.7522  1.1776
 6699TIP3    H241513   0.461   6.667  17.099 -1.7510 -1.3989 -3.0230
 6700TIP3   OH241514   4.386   2.102  13.218  0.3185  0.0994 -0.3301
 6700TIP3    H141515   4.399   2.158  13.142  0.2438  1.1536  0.4084
 6700TIP3    H241516   4.418   2.016  13.191  2.8930  1.1138 -0.6480
 6701TIP3   OH241517   1.734   1.970  14.497 -0.5574 -0.1331  0.4201
 6701TIP3    H141518   1.688   2.052  14.515  0.0937  0.2770  0.2365
 6701TIP3    H241519   1.825   1.988  14.522 -0.2180 -0.4716 -0.5596
 6702TIP3   OH241520   3.580   4.813   2.438  0.3313 -0.2261 -0.3871
 6702TIP3    H141521   3.633   4.734   2.431  0.5509 -0.0863 -0.3151
 6702TIP3    H241522   3.533   4.803   2.521  0.4000 -0.2554 -0.3515
 6703TIP3   OH241523   2.762   0.919   3.695  0.3958 -0.2317  0.6990
 6703TIP3    H141524   2.672   0.934   3.725  0.5234 -0.6250  1.2941
 6703TIP3    H241525   2.752   0.890   3.605  0.0111  1.1460  0.2850
 6704TIP3   OH241526   1.197   4.022  13.302  0.8137  0.2391  0.4838
 6704TIP3    H141527   1.196   3.983  13.389 -2.2752 -1.2457 -0.1585
 6704TIP3    H241528   1.231   3.953  13.245 -0.1393  0.1221  0.0533
 6705TIP3   OH241529   6.509   3.898   3.056 -0.0608  0.3977 -0.0105
 6705TIP3    H141530   6.596   3.936   3.052  0.2264 -0.1866  0.6218
 6705TIP3    H241531   6.489   3.872   2.965 -0.4177  2.3770 -0.5152
 6706TIP3   OH241532   1.119   3.653   2.791 -0.2628 -0.0645  0.1588
 6706TIP3    H141533   1.030   3.681   2.767  0.7016  1.8602 -1.3372
 6706TIP3    H241534   1.176   3.710   2.740  1.8553 -2.5488 -0.3515
 6707TIP3   OH241535   5.997   1.338   3.957 -0.0372  0.5790 -0.7804
 6707TIP3    H141536   5.981   1.422   3.998  2.2774  1.3504 -1.3696
 6707TIP3    H241537   6.073   1.302   4.003  0.3829 -0.1448 -1.9934
 6708TIP3   OH241538   0.057   1.052   3.611  0.4166  0.3989 -0.4265
 6708TIP3    H141539   0.042   1.097   3.694  0.4312 -0.2243 -0.0858
 6708TIP3    H241540  -0.006   0.980   3.611  2.2691 -1.2542  0.2765
 6709TIP3   OH241541   5.878   2.175   2.481 -0.2165 -0.4427 -0.1762
 6709TIP3    H141542   5.845   2.190   2.569 -1.4119  2.6878 -1.0862
 6709TIP3    H241543   5.964   2.217   2.479 -1.7067  2.7456 -1.4596
 6710TIP3   OH241544   3.185   6.208   0.971 -0.6800 -0.1237  0.4113
 6710TIP3    H141545   3.280   6.196   0.977 -0.7667 -0.1832  1.9739
 6710TIP3    H241546   3.172   6.302   0.987 -0.9095 -0.1973  0.6677
 6711TIP3   OH241547   2.738   2.325  16.910  0.1465  0.7658 -0.3782
 6711TIP3    H141548   2.734   2.237  16.872  2.1985  0.5743 -0.2038
 6711TIP3    H241549   2.648   2.357  16.905 -0.5173 -1.1057 -1.0000
 6712TIP3   OH241550   2.859   4.166   3.327 -0.3589 -0.0073  0.1850
 6712TIP3    H141551   2.808   4.186   3.406 -0.6847 -0.6480  0.1394
 6712TIP3    H241552   2.950   4.175   3.354 -0.4472 -0.9879  0.8454
 6713TIP3   OH241553   0.946   5.319  14.364  0.7580  0.2974 -0.1853
 6713TIP3    H141554   0.902   5.398  14.395 -0.6413 -0.2274 -0.7889
 6713TIP3    H241555   0.909   5.249  14.417 -0.1047 -0.3180 -1.5707
 6714TIP3   OH241556   0.545   1.416  16.504 -0.2378  0.0946 -0.2163
 6714TIP3    H141557   0.455   1.431  16.472  0.1842 -0.0320 -1.5034
 6714TIP3    H241558   0.540   1.433  16.598 -1.4429  0.8906 -0.4041
 6715TIP3   OH241559   1.164   2.826  14.015 -0.2666  0.0862  0.2223
 6715TIP3    H141560   1.204   2.803  13.931 -0.4264  1.2725 -0.1815
 6715TIP3    H241561   1.076   2.789  14.010 -0.4657  0.6282 -0.3611
 6716TIP3   OH241562   2.818   5.587   0.525  0.2090  0.2163  0.1793
 6716TIP3    H141563   2.775   5.504   0.549  0.6127 -0.1510 -0.3647
 6716TIP3    H241564   2.835   5.630   0.609 -0.3039 -0.1000  0.4471
 6717TIP3   OH241565   1.453   0.075  14.512 -0.0841 -0.2294  0.8050
 6717TIP3    H141566   1.548   0.082  14.522  0.0124  1.3283 -0.8915
 6717TIP3    H241567   1.417   0.124  14.586  0.5114  3.4974 -1.2514
 6718TIP3   OH241568   0.971   6.313   1.054  0.1546  0.3933  0.0608
 6718TIP3    H141569   1.053   6.353   1.024  1.1462 -2.2008 -0.8277
 6718TIP3    H241570   0.981   6.304   1.148 -0.8215  3.7942  0.5545
 6719TIP3   OH241571   0.149   5.325   2.322  0.9501 -0.0420 -0.0139
 6719TIP3    H141572   0.126   5.358   2.409  3.3043 -0.2203  0.7178
 6719TIP3    H241573   0.244   5.336   2.316  1.2137 -2.6209 -1.4741
 6720TIP3   OH241574   4.332   4.024   6.021  0.3865 -0.2367 -0.9070
 6720TIP3    H141575   4.268   3.953   6.025  0.3183 -0.1311 -0.0768
 6720TIP3    H241576   4.402   3.997   6.081 -1.3937  2.1194  2.3638
 6721TIP3   OH241577   0.829   6.028   5.324  0.2889 -0.5290  0.1862
 6721TIP3    H141578   0.908   6.046   5.374  0.3172  0.8878 -0.3549
 6721TIP3    H241579   0.813   6.108   5.273 -0.2818 -1.5626 -1.3183
 6722TIP3   OH241580   5.485   5.028  16.658  0.3176 -0.4713  0.0489
 6722TIP3    H141581   5.445   5.104  16.616 -0.1227  0.3958  1.9817
 6722TIP3    H241582   5.415   4.963  16.661  0.4077 -0.6170 -0.6980
 6723TIP3   OH241583   3.714   3.154   4.618 -0.3211  0.7602  0.2450
 6723TIP3    H141584   3.647   3.087   4.607  1.2011 -1.0538  1.6214
 6723TIP3    H241585   3.705   3.210   4.541 -1.2180 -1.3967 -1.2762
 6724TIP3   OH241586   5.588   3.535  15.914  0.4669 -0.4619  0.4022
 6724TIP3    H141587   5.666   3.485  15.889 -1.0471 -2.3099 -0.8216
 6724TIP3    H241588   5.618   3.625  15.921  2.3131 -0.8239 -2.0507
 6725TIP3   OH241589   3.895   1.412  11.013 -0.5204  0.2062  0.1473
 6725TIP3    H141590   3.802   1.390  11.021 -0.2361 -0.7685  0.9281
 6725TIP3    H241591   3.898   1.481  10.946 -1.7780  0.0932 -0.0397
 6726TIP3   OH241592   5.503   3.226  13.291 -0.1545 -0.0608 -0.0076
 6726TIP3    H141593   5.454   3.286  13.235  0.3021  0.5856  0.2702
 6726TIP3    H241594   5.578   3.278  13.322 -0.3427 -0.4286  1.1170
 6727TIP3   OH241595   3.637   2.526   0.485 -0.2569  0.1546 -0.4469
 6727TIP3    H141596   3.642   2.590   0.556  0.5301 -1.9568  1.4576
 6727TIP3    H241597   3.724   2.488   0.481 -0.4492 -0.1393 -2.2276
 6728TIP3   OH241598   5.947   6.544  13.055 -0.3329 -0.5066 -0.1170
 6728TIP3    H141599   5.892   6.468  13.035 -1.5916  0.6445 -1.1342
 6728TIP3    H241600   5.994   6.519  13.134 -2.0645 -1.6632  0.5864
 6729TIP3   OH241601   6.479   0.284  13.118 -0.2877 -0.5643  0.2281
 6729TIP3    H141602   6.547   0.347  13.145  0.4857 -0.5932 -1.5624
 6729TIP3    H241603   6.448   0.246  13.200  2.1841 -0.8806  1.0606
 6730TIP3   OH241604   1.619   1.919  11.254 -0.0187 -0.2635  0.1247
 6730TIP3    H141605   1.657   1.831  11.246 -2.1785 -1.1204 -1.1680
 6730TIP3    H241606   1.574   1.918  11.339 -2.1507 -1.3033 -0.9696
 6731TIP3   OH241607   0.615   4.691  11.623 -0.3343  0.4514  0.3628
 6731TIP3    H141608   0.643   4.765  11.677 -0.3576  0.9489 -0.3121
 6731TIP3    H241609   0.520   4.699  11.618 -0.3847  0.1054  0.6715
 6732TIP3   OH241610   0.235   4.400   0.719  0.0545  0.1045 -0.1509
 6732TIP3    H141611   0.237   4.494   0.703  0.0032  0.0740 -0.3388
 6732TIP3    H241612   0.177   4.390   0.795  1.3509  0.3624  0.8905
 6733TIP3   OH241613   1.627   4.822  12.697  0.0799 -0.0393 -0.7137
 6733TIP3    H141614   1.596   4.738  12.731  3.5633 -1.7005 -1.4368
 6733TIP3    H241615   1.647   4.805  12.605  1.3052  1.4485 -0.7425
 6734TIP3   OH241616   4.154   0.754  15.842 -0.3143 -0.1680 -0.1637
 6734TIP3    H141617   4.179   0.822  15.780 -0.9393 -1.6473 -2.0853
 6734TIP3    H241618   4.236   0.727  15.883 -0.1141  2.0440  0.9907
 6735TIP3   OH241619   5.659   0.215  17.226 -0.1395  0.2190  0.0292
 6735TIP3    H141620   5.621   0.136  17.188 -0.4831 -0.3824  1.5726
 6735TIP3    H241621   5.740   0.230  17.177  0.6713 -1.9223  0.6566
 6736TIP3   OH241622   2.605   5.433   2.337  0.3966  0.0709  0.4718
 6736TIP3    H141623   2.648   5.417   2.252  0.9608  0.0122  0.7641
 6736TIP3    H241624   2.673   5.475   2.390  0.0208  0.1716  0.8687
 6737TIP3   OH241625   4.414   4.158   0.630 -0.2644  0.1252 -0.0738
 6737TIP3    H141626   4.471   4.105   0.685 -0.0544  0.6563  0.2253
 6737TIP3    H241627   4.454   4.155   0.543 -1.1609 -1.5609 -0.4483
 6738TIP3   OH241628   2.951   3.496  11.980 -0.0318  0.1114  0.0927
 6738TIP3    H141629   2.922   3.584  11.954 -1.2958 -0.2616  0.2353
 6738TIP3    H241630   2.946   3.444  11.900  1.2138  0.2900 -0.1090
 6739TIP3   OH241631   6.500   2.492  10.607 -0.9041 -0.5652  0.1059
 6739TIP3    H141632   6.425   2.466  10.553 -0.3733 -2.5748  0.2852
 6739TIP3    H241633   6.473   2.574  10.648 -3.3158 -1.6637  0.7875
 6740TIP3   OH241634   5.699   1.419  15.190 -0.2494 -0.1626  0.0918
 6740TIP3    H141635   5.608   1.401  15.213 -0.1722  0.6817  1.1107
 6740TIP3    H241636   5.725   1.489  15.249  0.6269  0.5976 -1.1735
 6741TIP3   OH241637   2.700   4.260   2.521 -0.1571  0.4647  1.0757
 6741TIP3    H141638   2.769   4.233   2.583  1.6002  3.6599  0.6312
 6741TIP3    H241639   2.724   4.216   2.439  0.0220 -0.2709  1.5096
 6742TIP3   OH241640   3.453   2.806  11.102 -0.0245 -0.2815 -0.2862
 6742TIP3    H141641   3.360   2.827  11.092  0.2865  0.7451 -1.1176
 6742TIP3    H241642   3.496   2.856  11.032  1.3013  0.3706  0.9814
 6743TIP3   OH241643   5.092   6.027  13.736  0.2606 -0.4207 -0.4490
 6743TIP3    H141644   5.149   6.093  13.776  0.4770 -1.4660  1.0353
 6743TIP3    H241645   5.138   6.001  13.656  0.8853  0.1851 -0.2927
 6744TIP3   OH241646   2.220   1.557  15.173  0.1709 -0.0191 -0.3434
 6744TIP3    H141647   2.169   1.483  15.141  0.2817  0.5204 -1.7751
 6744TIP3    H241648   2.210   1.625  15.107  2.0118  0.4113 -0.2308
 6745TIP3   OH241649   2.192   4.263   0.659  0.1551 -0.5343 -0.1952
 6745TIP3    H141650   2.175   4.328   0.591 -1.2450  0.2749  0.9041
 6745TIP3    H241651   2.264   4.299   0.710 -1.8845  1.1328  1.5976
 6746TIP3   OH241652   0.987   4.583  12.887  0.4833  0.2001  1.1942
 6746TIP3    H141653   0.969   4.669  12.926  1.5656  0.1067  1.9130
 6746TIP3    H241654   0.911   4.530  12.909 -1.3207  1.6435 -1.2904
 6747TIP3   OH241655   3.493   5.138   0.318 -0.0436 -0.3965 -0.5806
 6747TIP3    H141656   3.520   5.130   0.409  0.5552 -0.1653 -0.7369
 6747TIP3    H241657   3.407   5.096   0.315 -0.2211 -0.0945  0.1595
 6748TIP3   OH241658   4.260   1.158  12.528  0.0809 -0.1338 -0.3194
 6748TIP3    H141659   4.221   1.166  12.441 -1.1980  0.1270  0.2596
 6748TIP3    H241660   4.353   1.140  12.511 -0.2562 -0.6356 -1.7307
 6749TIP3   OH241661   3.305   0.036  12.895  0.1228  0.4557  0.2421
 6749TIP3    H141662   3.308  -0.018  12.974 -0.0640 -0.5249 -0.4210
 6749TIP3    H241663   3.369  -0.005  12.836 -0.4666  0.5989 -0.4949
 6750TIP3   OH241664   0.044   2.675  13.507  0.0402  0.6196 -0.3547
 6750TIP3    H141665   0.130   2.706  13.480  1.3738 -1.2268  1.5742
 6750TIP3    H241666  -0.007   2.670  13.426  1.4767  2.5234 -1.4025
 6751TIP3   OH241667   4.040   2.405  16.847  0.0521  0.1768  0.3813
 6751TIP3    H141668   4.041   2.457  16.766  0.1828 -2.7488 -1.5784
 6751TIP3    H241669   3.947   2.393  16.866 -0.0203 -1.4734 -0.9340
 6752TIP3   OH241670   3.553   3.684   3.821  0.2920  0.3961  0.3737
 6752TIP3    H141671   3.474   3.630   3.814 -0.0588  0.9296  0.1383
 6752TIP3    H241672   3.625   3.622   3.814 -0.1041 -0.1645  1.1118
 6753TIP3   OH241673   2.168   5.874  17.235  0.9061 -0.9144  0.7577
 6753TIP3    H141674   2.082   5.834  17.233  1.0328 -1.0970 -2.3910
 6753TIP3    H241675   2.155   5.956  17.283 -1.0489 -0.8318  0.1149
 6754TIP3   OH241676   5.873   1.179   1.217 -0.2943  0.0969 -0.3583
 6754TIP3    H141677   5.958   1.194   1.176  0.0727 -2.6331 -0.6793
 6754TIP3    H241678   5.859   1.085   1.209 -2.4301  0.2271  1.5023
 6755TIP3   OH241679   4.552   4.143  11.787 -0.4077 -0.1241 -0.1051
 6755TIP3    H141680   4.488   4.096  11.734  0.0618 -0.7101 -0.1584
 6755TIP3    H241681   4.533   4.115  11.877 -1.6949  1.4423  0.1500
 6756TIP3   OH241682   3.510   4.416  15.095  0.2512 -0.3923 -0.2761
 6756TIP3    H141683   3.576   4.420  15.026  0.9933  1.5960  0.5039
 6756TIP3    H241684   3.531   4.336  15.144  0.7114 -0.9384 -1.3649
 6757TIP3   OH241685   2.010   5.439  13.521  0.0275 -0.2888 -0.1667
 6757TIP3    H141686   1.928   5.442  13.472 -0.2872  0.6976  0.3974
 6757TIP3    H241687   2.039   5.530  13.524  0.9078 -0.5688  0.0395
 6758TIP3   OH241688   4.035   4.010   3.336  0.1622 -0.3452  0.1300
 6758TIP3    H141689   4.010   4.064   3.261  0.0512  0.0518  0.4474
 6758TIP3    H241690   4.127   3.989   3.321  0.2490  0.0597  0.0723
 6759TIP3   OH241691   5.679   4.937  11.516 -0.0786  0.3195 -0.2692
 6759TIP3    H141692   5.687   5.020  11.563  1.2192 -1.0335  1.9906
 6759TIP3    H241693   5.762   4.928  11.468 -0.3336  0.4408 -0.7438
 6760TIP3   OH241694   4.574   0.708   1.691  0.4101  0.1080  0.2054
 6760TIP3    H141695   4.593   0.632   1.636 -1.8704 -0.0747 -0.3589
 6760TIP3    H241696   4.658   0.754   1.697  0.5138  0.7386 -4.3324
 6761TIP3   OH241697   2.527   1.654   1.674  0.1266 -0.0656 -0.1881
 6761TIP3    H141698   2.440   1.635   1.710  0.7404  0.0298  1.3876
 6761TIP3    H241699   2.539   1.589   1.605 -0.3545 -1.4118  0.9773
 6762TIP3   OH241700   5.979   3.390   2.714 -0.2978 -0.2125  0.4128
 6762TIP3    H141701   6.017   3.330   2.778  0.8052 -0.1231 -0.1361
 6762TIP3    H241702   5.976   3.339   2.632 -0.5475  0.0663  0.2475
 6763TIP3   OH241703   1.194   0.084  11.069 -0.1243  0.0237 -0.1654
 6763TIP3    H141704   1.226   0.101  11.157 -1.1007  0.1148  0.1838
 6763TIP3    H241705   1.222   0.159  11.017  0.0835  0.1753  0.1669
 6764TIP3   OH241706   4.606   5.563  12.152 -0.2505  0.5073 -0.2342
 6764TIP3    H141707   4.631   5.635  12.094 -0.3642  1.0721  0.4241
 6764TIP3    H241708   4.511   5.568  12.157 -0.2863  0.1100 -0.4356
 6765TIP3   OH241709   3.145   4.370   3.730 -0.0788 -0.1523 -0.3226
 6765TIP3    H141710   3.228   4.355   3.685 -0.5578 -1.2879 -0.8389
 6765TIP3    H241711   3.165   4.356   3.823 -0.5824 -4.7444 -0.7635
 6766TIP3   OH241712   2.302   1.132   2.958 -0.0607  0.0738 -0.1964
 6766TIP3    H141713   2.237   1.084   3.009  0.6854 -1.5216 -0.7425
 6766TIP3    H241714   2.279   1.224   2.972 -0.3466 -0.3449  2.4032
 6767TIP3   OH241715   1.729   1.861   4.550 -0.2505 -0.1261 -0.2473
 6767TIP3    H141716   1.696   1.815   4.627 -1.0462 -0.5111 -0.8144
 6767TIP3    H241717   1.681   1.823   4.477  0.1125  0.6132 -0.8788
 6768TIP3   OH241718   6.509   3.548  13.669 -0.8161 -0.0073  0.6881
 6768TIP3    H141719   6.558   3.480  13.715 -0.2533  0.6375  1.0478
 6768TIP3    H241720   6.547   3.549  13.581  2.5444  3.1702  2.0775
 6769TIP3   OH241721   1.504   2.588   0.112  0.3216 -0.0386  0.4001
 6769TIP3    H141722   1.518   2.575   0.018  0.5061  0.6959  0.3227
 6769TIP3    H241723   1.530   2.679   0.128  2.2522 -0.7634  1.5586
 6770TIP3   OH241724   2.925   6.350   6.097 -0.1655 -0.3913 -0.1820
 6770TIP3    H141725   2.885   6.436   6.110  0.5547 -0.3500  2.0171
 6770TIP3    H241726   3.010   6.369   6.057 -0.2059 -0.0883 -0.1244
 6771TIP3   OH241727   2.776   3.416  15.282 -0.1018  0.0753  0.7660
 6771TIP3    H141728   2.681   3.420  15.283 -0.0262  3.0611  1.5514
 6771TIP3    H241729   2.802   3.481  15.216  1.4343  1.4387  2.6643
 6772TIP3   OH241730   3.282   5.378   2.179  0.7635  0.4380  0.1380
 6772TIP3    H141731   3.238   5.456   2.146  0.3934  0.0541 -0.2854
 6772TIP3    H241732   3.306   5.329   2.100 -1.5034 -1.2535  0.4372
 6773TIP3   OH241733   4.864   5.622   4.116 -0.3415 -0.5666  0.3981
 6773TIP3    H141734   4.842   5.715   4.116 -1.0729 -0.7375  1.3912
 6773TIP3    H241735   4.825   5.588   4.035 -0.5785 -0.1344  0.3303
 6774TIP3   OH241736   6.681   3.086   6.372  0.1422 -0.3980  0.4433
 6774TIP3    H141737   6.732   3.005   6.369 -0.5437 -0.8527  0.6913
 6774TIP3    H241738   6.643   3.086   6.460 -1.1864 -0.6497 -0.1212
 6775TIP3   OH241739   3.317   3.240  16.859 -0.1706  0.0529  0.3195
 6775TIP3    H141740   3.289   3.161  16.814 -3.4716  0.4413  1.5497
 6775TIP3    H241741   3.369   3.209  16.933 -1.2807 -0.9636  0.6762
 6776TIP3   OH241742   4.841   3.026   5.895  0.3763  0.0244 -0.0357
 6776TIP3    H141743   4.760   3.075   5.908  1.5030  2.2460 -1.0403
 6776TIP3    H241744   4.855   3.028   5.800  1.6239 -0.3338  0.1328
 6777TIP3   OH241745   0.245   2.590  10.968 -0.4677 -0.1411  0.0134
 6777TIP3    H141746   0.339   2.578  10.952 -1.0157 -0.3252 -3.3641
 6777TIP3    H241747   0.212   2.633  10.889 -2.9305  1.6444  1.9215
 6778TIP3   OH241748   5.253   0.632  16.204  0.6579 -0.1755  0.1502
 6778TIP3    H141749   5.344   0.616  16.182  0.1400 -1.6259 -0.9681
 6778TIP3    H241750   5.249   0.726  16.224  2.2484  0.0218 -0.4448
 6779TIP3   OH241751   4.677   3.212  14.230 -0.0720 -0.3029  0.0404
 6779TIP3    H141752   4.642   3.298  14.256 -2.1386 -0.8400 -0.8253
 6779TIP3    H241753   4.771   3.219  14.244 -0.3387  1.7387  1.0342
 6780TIP3   OH241754   1.922   5.777   0.694  0.5676  0.3507  0.5066
 6780TIP3    H141755   1.964   5.691   0.687  0.4024  0.1859  1.4661
 6780TIP3    H241756   1.875   5.774   0.778 -1.7304  0.3453 -0.7182
 6781TIP3   OH241757   3.597   0.781  11.820  0.2307  0.0493 -0.7142
 6781TIP3    H141758   3.662   0.851  11.824 -0.4199  0.6376 -0.0793
 6781TIP3    H241759   3.630   0.714  11.879  0.3330  0.2890 -0.4983
 6782TIP3   OH241760   3.267   4.422  14.972 -0.0868 -0.2370  0.4773
 6782TIP3    H141761   3.344   4.427  15.028 -0.5319 -1.7093  1.2224
 6782TIP3    H241762   3.297   4.456  14.887  1.1300  0.0490  1.0136
 6783TIP3   OH241763   4.302   5.590   3.287  0.4827 -1.0389 -0.7147
 6783TIP3    H141764   4.359   5.514   3.297  1.3060 -0.0541  3.0425
 6783TIP3    H241765   4.233   5.577   3.352 -0.4227  0.4992 -1.3456
 6784TIP3   OH241766   3.356   2.769   1.626 -0.0126 -0.2045  0.5451
 6784TIP3    H141767   3.357   2.864   1.611  2.2906 -0.3883 -0.6300
 6784TIP3    H241768   3.326   2.732   1.543  0.6149 -0.5900  0.4923
 6785TIP3   OH241769   3.030   3.429  16.217  0.1321  0.4258 -0.9754
 6785TIP3    H141770   3.114   3.471  16.196  0.3890  0.1726 -0.4634
 6785TIP3    H241771   2.972   3.457  16.146  0.8205  0.0854 -1.6877
 6786TIP3   OH241772   6.570   0.241   1.907  0.5924 -0.0799 -0.2029
 6786TIP3    H141773   6.620   0.317   1.938  0.3849  0.3027 -0.7883
 6786TIP3    H241774   6.494   0.238   1.965  0.0301  0.8386 -0.8703
 6787TIP3   OH241775   2.081   5.358   1.832 -0.1561  0.2714  0.0059
 6787TIP3    H141776   2.096   5.271   1.871 -0.3491  0.6588  0.9601
 6787TIP3    H241777   2.022   5.341   1.758  0.8868 -0.5847 -0.6570
 6788TIP3   OH241778   2.761   0.065   5.314 -0.5175 -0.3260  0.2536
 6788TIP3    H141779   2.734   0.155   5.335  2.4596  0.6827 -0.0289
 6788TIP3    H241780   2.841   0.052   5.364 -0.0652 -2.2665 -0.9428
 6789TIP3   OH241781   2.266   4.657  12.810 -0.6169 -0.0438 -0.0720
 6789TIP3    H141782   2.188   4.693  12.852 -1.7179 -1.7041 -0.6601
 6789TIP3    H241783   2.308   4.604  12.878 -0.3406  0.3368  0.0557
 6790TIP3   OH241784   5.412   6.746   0.899 -0.3967  0.1783 -0.2638
 6790TIP3    H141785   5.331   6.712   0.862 -1.9394  1.0140  2.2216
 6790TIP3    H241786   5.464   6.669   0.920  1.1171 -0.3012 -5.3053
 6791TIP3   OH241787   4.350   1.012  13.625  0.1058  0.2304 -0.7444
 6791TIP3    H141788   4.314   1.076  13.687  0.3966 -1.4311  1.1937
 6791TIP3    H241789   4.413   0.962  13.676  0.5439 -1.0215 -2.4698
 6792TIP3   OH241790   0.916   6.440   3.346 -0.1494  0.8490  0.0624
 6792TIP3    H141791   0.868   6.442   3.263  0.6966  1.5878 -0.4148
 6792TIP3    H241792   0.950   6.529   3.356  1.0137  0.3702  0.4563
 6793TIP3   OH241793   0.892   2.527   0.847  0.7386  0.4432 -0.1397
 6793TIP3    H141794   0.834   2.453   0.829  0.2551  0.6752  0.4724
 6793TIP3    H241795   0.941   2.500   0.924  0.0238  1.0767  0.5355
 6794TIP3   OH241796   6.753   2.441  11.488 -0.5616  0.6901  0.3506
 6794TIP3    H141797   6.710   2.364  11.450 -1.7294  1.8956 -0.8483
 6794TIP3    H241798   6.686   2.481  11.543 -0.5059  1.7691 -0.3582
 6795TIP3   OH241799   5.058   3.492  11.576 -0.2347 -0.0457  0.3916
 6795TIP3    H141800   5.148   3.507  11.546  0.2047 -1.3466  1.0030
 6795TIP3    H241801   5.023   3.580  11.593  0.0960  0.5979 -2.1469
 6796TIP3   OH241802   3.880   5.371  12.757 -0.0338  0.4089 -0.1307
 6796TIP3    H141803   3.795   5.404  12.728 -0.2037 -0.6866 -0.9512
 6796TIP3    H241804   3.873   5.276  12.746  0.3265  0.0485  2.4504
 6797TIP3   OH241805   4.982   5.303  12.635 -0.2516 -0.4404 -0.0686
 6797TIP3    H141806   5.057   5.287  12.579  0.1448  0.0730  0.3157
 6797TIP3    H241807   4.949   5.215  12.656 -1.8737 -0.6140 -3.0606
 6798TIP3   OH241808   1.102   4.981  12.158 -0.1295 -0.1608  0.0178
 6798TIP3    H141809   1.162   5.015  12.092 -1.4158  1.7936 -0.1863
 6798TIP3    H241810   1.041   4.926  12.110 -0.9653  1.1293 -0.4108
 6799TIP3   OH241811   5.337   2.073   3.602 -0.0925 -0.2002  0.0373
 6799TIP3    H141812   5.244   2.082   3.624  0.0884 -0.6398  1.0080
 6799TIP3    H241813   5.381   2.067   3.687  0.9830  1.4557 -0.3703
 6800TIP3   OH241814   1.744   3.825  16.288 -0.1535  0.1604  0.2949
 6800TIP3    H141815   1.770   3.858  16.374 -0.4760  0.8454  0.1293
 6800TIP3    H241816   1.827   3.808  16.243  0.0583  2.7735 -0.4013
 6801TIP3   OH241817   4.574   4.919  14.278 -0.5915 -0.4243  0.4924
 6801TIP3    H141818   4.588   4.987  14.343 -1.4712 -1.4751  1.8026
 6801TIP3    H241819   4.627   4.946  14.203  0.4900  0.7653  1.6638
 6802TIP3   OH241820   6.171   2.493   6.658  0.5529  0.2397  0.4935
 6802TIP3    H141821   6.241   2.431   6.678 -0.4756 -1.0419  0.1930
 6802TIP3    H241822   6.178   2.508   6.564 -1.9596 -2.9320 -0.2892
 6803TIP3   OH241823   2.602   6.411  11.247  0.5036  0.1937 -0.6688
 6803TIP3    H141824   2.527   6.394  11.190 -0.4293 -0.4398  0.7138
 6803TIP3    H241825   2.589   6.352  11.321  0.6223  2.3653  1.1380
 6804TIP3   OH241826   2.734   1.176  12.590 -0.7014  0.5682  0.5636
 6804TIP3    H141827   2.705   1.242  12.527 -1.6862 -0.0962  0.3069
 6804TIP3    H241828   2.655   1.151  12.638 -0.7573 -1.8537 -0.6843
 6805TIP3   OH241829   2.338   4.330   6.048  0.4296 -0.4929 -0.2926
 6805TIP3    H141830   2.259   4.381   6.065  0.7744  0.1934 -0.7249
 6805TIP3    H241831   2.319   4.283   5.967 -0.5202 -2.3531  0.9817
 6806TIP3   OH241832   2.135   6.289   0.401 -0.2363 -0.1096  0.3844
 6806TIP3    H141833   2.169   6.307   0.488  3.0797 -1.3071 -0.5564
 6806TIP3    H241834   2.190   6.342   0.343 -0.1794 -1.8291 -1.2005
 6807TIP3   OH241835   4.456   2.181  15.000  0.0262  0.1964  0.0576
 6807TIP3    H141836   4.410   2.143  15.075  0.0471  0.4320  0.1924
 6807TIP3    H241837   4.519   2.242  15.039 -0.5597  0.9735 -0.1771
 6808TIP3   OH241838   4.869   1.699  16.650 -0.0130 -0.2572  0.2365
 6808TIP3    H141839   4.905   1.737  16.570  0.9221 -0.5011  0.5389
 6808TIP3    H241840   4.779   1.675  16.626 -0.1214  0.7279 -0.3986
 6809TIP3   OH241841   4.226   0.694  11.566 -0.1476  0.5588  0.6229
 6809TIP3    H141842   4.297   0.745  11.604  0.1441  1.9542 -1.7003
 6809TIP3    H241843   4.251   0.603  11.581  1.5037  1.0440  0.9170
 6810TIP3   OH241844   3.071   1.740  11.189 -0.3668  0.2845 -0.0164
 6810TIP3    H141845   3.047   1.648  11.178  1.1241 -0.1329  0.1622
 6810TIP3    H241846   3.107   1.766  11.105 -0.7132  0.6844 -0.0433
 6811TIP3   OH241847   6.247   1.914  17.080 -0.4062 -0.4273 -0.3964
 6811TIP3    H141848   6.304   1.910  17.003  0.5420 -0.5486  0.3041
 6811TIP3    H241849   6.164   1.947  17.046  0.1555  0.0046 -1.3871
 6812TIP3   OH241850   1.435   6.261   1.442  0.4046 -0.0624  0.1058
 6812TIP3    H141851   1.394   6.318   1.507  0.5282 -0.7065  0.7540
 6812TIP3    H241852   1.412   6.172   1.469  3.0214 -0.5012  1.0497
 6813TIP3   OH241853   0.221   3.578  11.117 -0.0780 -0.2215  0.0749
 6813TIP3    H141854   0.303   3.598  11.072  0.0963  1.6105  1.1512
 6813TIP3    H241855   0.237   3.604  11.208 -1.9128  0.3782  0.2485
 6814TIP3   OH241856   1.448   1.598  12.370 -0.4258  0.8126 -0.4186
 6814TIP3    H141857   1.500   1.538  12.424 -1.4389  1.5081  1.3473
 6814TIP3    H241858   1.511   1.635  12.308  0.1053 -2.6042 -2.0815
 6815TIP3   OH241859   5.916   3.805  16.644  0.3964  0.3214 -0.0781
 6815TIP3    H141860   5.895   3.857  16.721 -2.9928  0.6329 -1.1561
 6815TIP3    H241861   5.984   3.856  16.598  0.6673  1.3203  1.4144
 6816TIP3   OH241862   1.060   5.790   3.747  0.4055 -0.0603  0.3207
 6816TIP3    H141863   0.967   5.794   3.724  0.2135 -1.8992  0.6695
 6816TIP3    H241864   1.062   5.773   3.841  1.0884 -0.4687  0.2402
 6817TIP3   OH241865   5.144   2.348  15.356 -0.4276 -0.7433 -0.2892
 6817TIP3    H141866   5.137   2.269  15.409  0.1280 -1.2610 -0.9831
 6817TIP3    H241867   5.180   2.318  15.273  3.3354  0.7691  0.6895
 6818TIP3   OH241868   6.297   2.036   5.728 -0.1871  0.3965  0.5508
 6818TIP3    H141869   6.241   2.072   5.659  0.8381  1.8272  0.4681
 6818TIP3    H241870   6.386   2.042   5.693  0.0977 -1.3674  0.9074
 6819TIP3   OH241871   1.322   4.600   1.116  0.5742  0.0286 -0.1353
 6819TIP3    H141872   1.332   4.646   1.199 -0.8265 -0.9681  0.5951
 6819TIP3    H241873   1.262   4.655   1.065  1.9050  0.9458 -0.7270
 6820TIP3   OH241874   6.422   5.948   4.415  0.8181 -0.2564 -0.0109
 6820TIP3    H141875   6.478   5.886   4.462  1.8875 -0.6651 -1.7901
 6820TIP3    H241876   6.441   5.933   4.323  1.9489  3.4790 -0.4780
 6821TIP3   OH241877   4.512   5.256  14.948  0.0599 -0.4516  0.0799
 6821TIP3    H141878   4.476   5.326  14.895 -1.3259 -0.4844  0.9426
 6821TIP3    H241879   4.571   5.208  14.889  1.0602  1.4440 -0.4941
 6822TIP3   OH241880   2.485   1.868   2.529  0.0744 -0.4408  0.7455
 6822TIP3    H141881   2.444   1.815   2.597  0.1542 -0.5051  0.7438
 6822TIP3    H241882   2.445   1.955   2.538  1.0307 -0.1011  1.7115
 6823TIP3   OH241883   6.718   6.187   0.089  0.1462  0.2825  0.1581
 6823TIP3    H141884   6.773   6.127   0.139 -0.1390 -0.5043 -0.4786
 6823TIP3    H241885   6.725   6.157  -0.002 -0.5372  0.7899 -0.0651
 6824TIP3   OH241886   4.125   4.378   3.663  0.2303  0.0602 -0.0807
 6824TIP3    H141887   4.102   4.451   3.605  0.9357  1.7798  1.7399
 6824TIP3    H241888   4.044   4.328   3.671 -0.7310  1.5628 -0.1033
 6825TIP3   OH241889   5.251   5.603  13.546 -0.4809 -0.1555  0.0348
 6825TIP3    H141890   5.319   5.669  13.562 -1.2341  0.6924 -0.2215
 6825TIP3    H241891   5.177   5.653  13.511 -1.0031 -1.1626 -0.3183
 6826TIP3   OH241892   2.597   0.346   3.775  0.0034  0.0639  0.3991
 6826TIP3    H141893   2.579   0.420   3.834  2.9022  1.7421 -0.6997
 6826TIP3    H241894   2.676   0.306   3.810 -1.2295 -2.2314  0.6533
 6827TIP3   OH241895   2.686   2.345   5.374  0.0772  0.1534 -0.1092
 6827TIP3    H141896   2.710   2.435   5.396 -0.0878  0.5465 -1.4865
 6827TIP3    H241897   2.597   2.336   5.407 -0.3316  0.8786 -0.9851
 6828TIP3   OH241898   3.253   6.568   1.725  0.7084 -0.9466  0.3302
 6828TIP3    H141899   3.227   6.495   1.782  2.2716 -1.0803  0.9067
 6828TIP3    H241900   3.214   6.547   1.640  0.2124 -1.8792  0.7764
 6829TIP3   OH241901   1.958   1.086  13.728 -0.0584  0.0388 -0.7127
 6829TIP3    H141902   1.998   1.012  13.681  0.6813 -0.7169  1.0816
 6829TIP3    H241903   2.030   1.147  13.743 -0.3304  0.3635 -0.7163
 6830TIP3   OH241904   4.015   5.670  13.514  0.2593 -0.4152 -0.5281
 6830TIP3    H141905   4.008   5.678  13.418 -2.4527  0.6665 -0.2763
 6830TIP3    H241906   4.002   5.759  13.546  0.2327 -0.9316  0.9159
 6831TIP3   OH241907   4.729   0.076  11.270  0.0306  0.1337  0.2387
 6831TIP3    H141908   4.819   0.076  11.301  0.3317 -0.7779 -0.6153
 6831TIP3    H241909   4.688   0.150  11.315  1.2347  0.6391  0.5163
 6832TIP3   OH241910   2.018   3.760   0.328 -0.1140  0.1473 -0.1287
 6832TIP3    H141911   2.064   3.834   0.287 -0.0648 -0.6758 -1.6170
 6832TIP3    H241912   1.953   3.734   0.263  0.0059 -1.2421  0.2883
 6833TIP3   OH241913   4.475   2.821  12.004  0.7446 -0.3029  0.6014
 6833TIP3    H141914   4.554   2.875  11.997 -1.2507  2.5390 -0.8550
 6833TIP3    H241915   4.435   2.848  12.086 -0.6627  1.0643 -0.5028
 6834TIP3   OH241916   4.967   4.715  12.061 -0.0289 -0.3622 -0.2874
 6834TIP3    H141917   4.958   4.714  12.156 -1.3559 -1.3803 -0.4060
 6834TIP3    H241918   5.039   4.654  12.043 -0.1486 -0.5951  0.0229
 6835TIP3   OH241919   2.978   5.125  12.769 -0.2672  0.1155  1.2002
 6835TIP3    H141920   3.001   5.180  12.694 -1.3802  0.3134  0.9907
 6835TIP3    H241921   2.976   5.036  12.734 -1.0128  0.2329  0.9349
 6836TIP3   OH241922   0.272   2.738   2.638 -0.6938 -0.0096 -0.2353
 6836TIP3    H141923   0.324   2.672   2.685 -0.6750 -1.2533 -1.9765
 6836TIP3    H241924   0.240   2.796   2.707  2.6580  0.5703  0.9475
 6837TIP3   OH241925   4.665   5.691   0.783 -0.3024 -0.3128  0.5257
 6837TIP3    H141926   4.760   5.687   0.793 -0.3997 -2.0546  1.0441
 6837TIP3    H241927   4.639   5.599   0.770 -1.8053  0.2487 -0.5836
 6838TIP3   OH241928   5.257   1.901   6.001 -0.1981  0.1392  0.3343
 6838TIP3    H141929   5.331   1.884   5.942 -0.8601  0.5558 -0.6228
 6838TIP3    H241930   5.298   1.908   6.088  0.5102 -2.7702  0.3016
 6839TIP3   OH241931   2.401   4.968   4.318 -0.1865 -0.0180  0.3973
 6839TIP3    H141932   2.491   4.950   4.344  0.2587  0.9188 -0.4525
 6839TIP3    H241933   2.376   5.043   4.372 -0.3367 -0.0574  0.3820
 6840TIP3   OH241934   5.639   3.817   1.379 -0.3352 -0.0400  0.0028
 6840TIP3    H141935   5.701   3.865   1.324  0.0606  0.0790  0.5464
 6840TIP3    H241936   5.576   3.884   1.406 -1.5417 -0.4467 -1.7217
 6841TIP3   OH241937   6.417   5.541   5.049 -0.3420 -0.3982  0.3327
 6841TIP3    H141938   6.325   5.528   5.027  0.3232 -2.6137 -1.3335
 6841TIP3    H241939   6.418   5.621   5.103 -3.2774 -0.6821  0.8966
 6842TIP3   OH241940   2.724   1.428  13.114 -0.3218  0.4124  0.1597
 6842TIP3    H141941   2.771   1.347  13.094  0.4233  0.1809  2.6014
 6842TIP3    H241942   2.766   1.494  13.059  0.5099 -0.4591 -0.2676
 6843TIP3   OH241943   3.539   2.415   3.947  0.4302  0.2178 -0.1741
 6843TIP3    H141944   3.545   2.439   4.039  0.3507 -0.4240 -0.0007
 6843TIP3    H241945   3.471   2.348   3.943  1.3227 -0.6892 -0.5054
 6844TIP3   OH241946   1.787   4.698  13.313  0.0539  0.4339  0.6522
 6844TIP3    H141947   1.871   4.661  13.288 -0.0611  0.2273  0.5727
 6844TIP3    H241948   1.785   4.784  13.272 -0.7548 -0.4788 -1.2625
 6845TIP3   OH241949   0.077   5.676   5.093 -0.0928  0.2043 -0.3414
 6845TIP3    H141950   0.068   5.632   5.177  0.9371 -1.0581 -0.8711
 6845TIP3    H241951   0.054   5.767   5.111  0.6330  0.0571  1.4319
 6846TIP3   OH241952   2.114   4.693   3.881  0.2421  0.4125  0.7470
 6846TIP3    H141953   2.051   4.665   3.947  0.6243 -1.2671  0.4381
 6846TIP3    H241954   2.121   4.618   3.822  1.9726  0.8444  0.3785
 6847TIP3   OH241955   3.657   6.123   1.336  0.0263 -0.3723 -0.7202
 6847TIP3    H141956   3.588   6.070   1.296  0.4417 -0.6469 -1.0778
 6847TIP3    H241957   3.728   6.122   1.272  0.5916 -0.5883 -0.1002
 6848TIP3   OH241958   2.078   2.842  17.037  0.0336 -0.3963 -0.1065
 6848TIP3    H141959   2.050   2.751  17.045 -0.5584 -0.2887 -0.8500
 6848TIP3    H241960   2.116   2.848  16.950 -0.9136  0.3181 -0.4786
 6849TIP3   OH241961   2.372   4.144  16.540  0.4674 -0.0919  0.6085
 6849TIP3    H141962   2.386   4.123  16.447  1.3094 -0.5837  0.8306
 6849TIP3    H241963   2.453   4.188  16.566 -0.1144  0.8008  0.8989
 6850TIP3   OH241964   0.034   5.161  10.861 -0.1352 -0.2428  0.2220
 6850TIP3    H141965  -0.037   5.111  10.822 -0.1595  1.2002 -1.6382
 6850TIP3    H241966   0.113   5.128  10.819  0.3006 -1.5732  2.0075
 6851TIP3   OH241967   5.188   2.365   1.945 -0.1748  0.2406 -0.2546
 6851TIP3    H141968   5.252   2.302   1.978 -0.0486  0.5293  0.0517
 6851TIP3    H241969   5.103   2.321   1.956  0.0615 -0.6580 -1.8414
 6852TIP3   OH241970   2.147   4.010   6.054  0.4131  0.7353 -0.1273
 6852TIP3    H141971   2.189   4.088   6.018  2.0891 -0.8006 -1.6353
 6852TIP3    H241972   2.214   3.970   6.110 -0.2413  0.0991  0.2075
 6853TIP3   OH241973   1.294   1.703   1.176  0.4360  0.1285 -0.0285
 6853TIP3    H141974   1.283   1.784   1.127  1.7072 -0.1809 -0.8582
 6853TIP3    H241975   1.205   1.670   1.190  0.0168  0.7416 -1.2471
 6854TIP3   OH241976   6.764   0.253   5.771 -0.2962 -0.1508  0.0129
 6854TIP3    H141977   6.824   0.192   5.729 -1.6345 -0.4101 -1.5854
 6854TIP3    H241978   6.798   0.263   5.860  1.7717 -0.7063 -0.6909
 6855TIP3   OH241979   2.777   4.601  14.976  0.0319 -0.2549  0.0313
 6855TIP3    H141980   2.758   4.523  15.028 -0.1409 -0.1360  0.1445
 6855TIP3    H241981   2.873   4.605  14.974  0.0402 -0.1308  0.5317
 6856TIP3   OH241982   1.181   3.478  16.236  0.3614 -0.2070 -0.2727
 6856TIP3    H141983   1.273   3.475  16.209 -0.0210  0.1073 -1.6717
 6856TIP3    H241984   1.134   3.503  16.156 -0.8876  0.1141  0.5561
 6857TIP3   OH241985   6.253   1.846   2.900  0.6585  0.3577  0.2468
 6857TIP3    H141986   6.261   1.794   2.820  0.5426  0.9670 -0.1544
 6857TIP3    H241987   6.201   1.922   2.875 -1.7803 -0.8060  1.5390
 6858TIP3   OH241988   2.319   5.343   5.336 -0.1693 -0.2066  0.5940
 6858TIP3    H141989   2.410   5.363   5.316 -0.4634  0.4258 -0.1366
 6858TIP3    H241990   2.269   5.414   5.296 -1.0664 -1.1934 -0.0797
 6859TIP3   OH241991   6.335   5.493  16.528 -0.1062  0.2356 -0.3465
 6859TIP3    H141992   6.407   5.436  16.500 -2.1471 -1.0499 -3.1789
 6859TIP3    H241993   6.378   5.561  16.581  2.9592 -1.3721 -0.6383
 6860TIP3   OH241994   1.958   1.641   3.182 -0.1018 -0.3695  0.1185
 6860TIP3    H141995   2.043   1.684   3.183 -0.1447 -0.2893  0.8514
 6860TIP3    H241996   1.899   1.703   3.224 -0.1655 -1.1164  1.1726
 6861TIP3   OH241997   4.501   2.379  10.919  0.3018  0.1040  0.8204
 6861TIP3    H141998   4.423   2.339  10.959 -0.0794  1.1286  1.1161
 6861TIP3    H241999   4.466   2.436  10.851  1.0442 -3.2174 -2.4862
 6862TIP3   OH242000   2.927   2.648   2.987  0.4973 -0.3201 -0.0633
 6862TIP3    H142001   2.881   2.578   2.940  0.1977  1.2698 -2.2107
 6862TIP3    H242002   2.895   2.729   2.947  1.6421  1.0170  1.6525
 6863TIP3   OH242003   5.530   5.628   3.819  0.6888 -0.1149  0.1201
 6863TIP3    H142004   5.479   5.598   3.895  0.7752 -0.9544 -0.1467
 6863TIP3    H242005   5.518   5.559   3.754  0.9739  0.3956 -0.4725
 6864TIP3   OH242006   4.945   0.302  12.858  0.2079 -0.5591 -0.5920
 6864TIP3    H142007   5.019   0.353  12.824  0.8447 -0.4233  0.9668
 6864TIP3    H242008   4.871   0.330  12.804  0.4971  2.2038  0.3467
 6865TIP3   OH242009   4.181   6.054  11.811 -0.2588  0.2229 -0.3333
 6865TIP3    H142010   4.199   6.003  11.732 -0.4798 -0.2378 -0.0912
 6865TIP3    H242011   4.255   6.035  11.868 -0.7191 -0.4351  0.0533
 6866TIP3   OH242012   4.921   2.660   1.622  0.1560 -0.1267  0.2569
 6866TIP3    H142013   5.004   2.623   1.651  0.8890  1.6110  0.4378
 6866TIP3    H242014   4.930   2.754   1.638 -1.8958  0.0637  0.4068
 6867TIP3   OH242015   6.286   2.767   2.908 -0.4050  0.0427 -0.8740
 6867TIP3    H142016   6.300   2.799   2.819 -0.8597  1.5853 -0.4116
 6867TIP3    H242017   6.356   2.807   2.960  0.0072 -1.0476 -0.5787
 6868TIP3   OH242018   5.774   5.226  11.446 -0.0927 -0.0661  0.7276
 6868TIP3    H142019   5.865   5.216  11.473 -0.2462 -0.8695  0.9601
 6868TIP3    H242020   5.772   5.196  11.355 -0.1677 -0.2486  0.7887
 6869TIP3   OH242021   5.904   0.046   5.721 -0.1236  0.2453  0.2867
 6869TIP3    H142022   5.907   0.022   5.814 -0.0215  0.7209  0.4074
 6869TIP3    H242023   5.883   0.139   5.721  1.3084  0.5851 -0.1235
 6870TIP3   OH242024   2.745   2.186   2.200 -0.1737 -0.3330  0.0392
 6870TIP3    H142025   2.650   2.179   2.190 -0.3194 -2.7696  2.6018
 6870TIP3    H242026   2.756   2.249   2.271  0.0986 -0.8780  0.4776
 6871TIP3   OH242027   0.915   1.948  13.375 -0.4011 -0.2755 -0.5819
 6871TIP3    H142028   0.900   2.018  13.438  0.9084 -0.5229  0.0196
 6871TIP3    H242029   0.987   1.897  13.413  1.3322  0.3503 -2.9320
 6872TIP3   OH242030   3.140   4.658   4.462 -0.2314 -0.0379 -0.3267
 6872TIP3    H142031   3.104   4.737   4.421 -0.1842  0.7087  1.0521
 6872TIP3    H242032   3.120   4.588   4.400 -0.3958  1.0293 -1.5028
 6873TIP3   OH242033   6.514   2.962   1.271 -0.1503 -0.1175  0.0582
 6873TIP3    H142034   6.605   2.988   1.256 -0.4167  0.7270 -0.1366
 6873TIP3    H242035   6.498   2.894   1.206  0.4699 -0.5702  0.3697
 6874TIP3   OH242036   6.257   3.104   4.240  0.3506 -0.2703 -0.4312
 6874TIP3    H142037   6.175   3.104   4.289  0.0499  2.7615 -0.8170
 6874TIP3    H242038   6.231   3.098   4.148  0.6128 -0.6389 -0.4805
 6875TIP3   OH242039   5.825   2.498   0.243 -0.3114  0.5195 -0.0978
 6875TIP3    H142040   5.828   2.408   0.209  0.0372  0.4967 -0.0077
 6875TIP3    H242041   5.864   2.491   0.331  0.8516  0.9736 -0.5645
 6876TIP3   OH242042   0.800   3.822  14.480 -0.0708 -0.4801  0.4242
 6876TIP3    H142043   0.868   3.755  14.476 -0.4480 -0.8149 -0.6557
 6876TIP3    H242044   0.829   3.889  14.418 -0.4355 -0.3566  0.3834
 6877TIP3   OH242045   4.595   2.515   4.282 -0.6590  0.5326 -0.0969
 6877TIP3    H142046   4.591   2.559   4.367 -1.3369  1.6211 -0.6765
 6877TIP3    H242047   4.649   2.573   4.228 -0.4352 -0.0340 -0.4817
 6878TIP3   OH242048   3.747   6.668  13.815  0.3214  0.2845 -0.0372
 6878TIP3    H142049   3.801   6.711  13.749 -0.3002 -1.1035 -1.4789
 6878TIP3    H242050   3.778   6.577  13.817 -1.1346 -0.2303 -0.0116
 6879TIP3   OH242051   5.331   4.548  13.166  0.2764 -0.5075  0.4671
 6879TIP3    H142052   5.311   4.529  13.075  0.6514  1.7431 -0.1220
 6879TIP3    H242053   5.290   4.477  13.215  1.1354 -2.4292 -1.5079
 6880TIP3   OH242054   6.555   4.822  15.215 -0.4950 -0.8116  0.0283
 6880TIP3    H142055   6.501   4.809  15.293 -2.0827 -1.6662 -1.1932
 6880TIP3    H242056   6.518   4.899  15.173  0.3437 -0.3699  0.0797
 6881TIP3   OH242057   4.445   1.326  13.895 -0.0968  0.4665 -0.3747
 6881TIP3    H142058   4.463   1.355  13.984  1.4955  2.6900 -1.3681
 6881TIP3    H242059   4.532   1.312  13.856 -0.7728 -0.8492 -1.4715
 6882TIP3   OH242060   5.925   6.443  12.661  0.0536  0.0640  0.4102
 6882TIP3    H142061   5.924   6.537  12.682 -1.4154  0.0358  0.4539
 6882TIP3    H242062   5.844   6.428  12.614  1.1119 -0.8452 -1.1678
 6883TIP3   OH242063   4.223   4.359   0.418 -0.1219 -0.5350  0.4963
 6883TIP3    H142064   4.189   4.308   0.345  1.3759 -1.1143  0.1869
 6883TIP3    H242065   4.184   4.319   0.496 -1.2657 -0.2746  0.0650
 6884TIP3   OH242066   0.266   3.494  15.081  0.0143  0.0854  0.0642
 6884TIP3    H142067   0.297   3.433  15.015  0.3295  1.9963 -1.5886
 6884TIP3    H242068   0.335   3.560  15.089  0.3541 -0.5388  2.9012
 6885TIP3   OH242069   3.386   6.058  14.985  0.2874  0.1216  0.3568
 6885TIP3    H142070   3.393   6.007  15.066  1.0688 -0.0506  0.1917
 6885TIP3    H242071   3.292   6.066  14.969  0.1330  0.1258  1.2585
 6886TIP3   OH242072   4.016   1.883   1.179  0.3910 -0.2486 -0.1051
 6886TIP3    H142073   3.957   1.831   1.125  1.1620  0.1309 -1.3230
 6886TIP3    H242074   3.958   1.944   1.226 -0.3074 -0.8030 -0.2436
 6887TIP3   OH242075   3.800   6.499  12.827  0.1767  0.3483 -0.5900
 6887TIP3    H142076   3.860   6.451  12.770 -1.6057  0.5713 -2.6778
 6887TIP3    H242077   3.780   6.579  12.779 -2.4169 -0.0850 -0.2816
 6888TIP3   OH242078   5.378   6.653   3.560 -0.4161 -0.4559 -0.1024
 6888TIP3    H142079   5.383   6.558   3.549 -1.3486 -0.7667  1.8275
 6888TIP3    H242080   5.376   6.688   3.471  0.4969 -2.2091 -0.8340
 6889TIP3   OH242081   0.280   1.784  10.703  0.4345 -0.0511  0.7276
 6889TIP3    H142082   0.256   1.840  10.630 -0.7719 -0.8501  0.5020
 6889TIP3    H242083   0.217   1.807  10.772 -1.5180 -2.6513 -0.1024
 6890TIP3   OH242084   1.140   2.099  14.241 -0.0672  0.2689 -0.1357
 6890TIP3    H142085   1.109   2.040  14.309 -2.2329  0.0720 -1.2513
 6890TIP3    H242086   1.097   2.070  14.161  1.5123  1.2311 -1.3862
 6891TIP3   OH242087   3.346   2.564  15.279  0.0212 -0.4837  0.1249
 6891TIP3    H142088   3.352   2.585  15.372 -1.9956 -0.3966  0.2382
 6891TIP3    H242089   3.415   2.618  15.239  0.6806 -0.2709  1.5127
 6892TIP3   OH242090   3.959   6.266   2.748 -0.6682 -0.9375  0.1087
 6892TIP3    H142091   3.910   6.294   2.671 -1.5775 -2.3584  0.1490
 6892TIP3    H242092   4.047   6.246   2.715 -0.6456 -0.1919 -0.2968
 6893TIP3   OH242093   0.640   1.112   4.178  0.7692 -0.3585 -0.3136
 6893TIP3    H142094   0.670   1.174   4.111 -0.5912 -0.0945 -0.6956
 6893TIP3    H242095   0.634   1.164   4.258 -0.8835  0.1709 -0.7460
 6894TIP3   OH242096   4.663   2.709   5.448 -0.2921 -0.1439  0.4036
 6894TIP3    H142097   4.640   2.618   5.466 -0.1519 -0.0050  1.3012
 6894TIP3    H242098   4.616   2.731   5.367  0.3672 -1.2865 -0.3026
 6895TIP3   OH242099   6.295   4.372  13.426  0.0639  0.9090  0.6565
 6895TIP3    H142100   6.232   4.331  13.485  0.0767  1.4461  1.0431
 6895TIP3    H242101   6.378   4.329  13.447 -0.0733  0.5754  0.5120
 6896TIP3   OH242102   3.745   1.131   4.690  0.9904  0.8977  0.5187
 6896TIP3    H142103   3.778   1.057   4.741 -0.0480 -0.9068 -1.3478
 6896TIP3    H242104   3.821   1.162   4.641  0.4948 -1.9453 -2.2173
 6897TIP3   OH242105   1.449   6.731   1.444 -0.1514  0.6946 -0.1036
 6897TIP3    H142106   1.353   6.739   1.444 -0.2074  0.0958 -0.1150
 6897TIP3    H242107   1.479   6.800   1.503 -0.5766  1.0654 -0.3220
 6898TIP3   OH242108   1.896   3.830   3.613  0.5326  0.3665  0.1019
 6898TIP3    H142109   1.937   3.768   3.673  0.8492  0.7268  0.2581
 6898TIP3    H242110   1.968   3.887   3.584  0.5965 -0.4668 -1.4436
 6899TIP3   OH242111   4.224   5.171   2.405 -0.3552  0.4203  0.4393
 6899TIP3    H142112   4.288   5.231   2.369  0.0749  0.4328  1.2180
 6899TIP3    H242113   4.185   5.218   2.479 -0.5658  0.0397  0.5741
 6900TIP3   OH242114   6.102   2.431  11.892 -0.0660  0.2799  0.2853
 6900TIP3    H142115   6.009   2.440  11.872  0.2068  2.8977  0.0282
 6900TIP3    H242116   6.145   2.498  11.838  1.9672 -0.8796  0.4156
 6901TIP3   OH242117   6.412   2.221  15.184 -0.2698  0.3938  0.1478
 6901TIP3    H142118   6.427   2.168  15.263 -0.4225  0.4180  0.1917
 6901TIP3    H242119   6.371   2.301  15.216  0.5807  0.8282  0.1547
 6902TIP3   OH242120   4.763   6.189   1.626 -0.1590 -0.1479 -0.2602
 6902TIP3    H142121   4.668   6.201   1.630 -0.0240  1.3218 -1.1208
 6902TIP3    H242122   4.775   6.099   1.598 -1.2981 -0.3413 -0.1572
 6903TIP3   OH242123   2.758   1.050   1.255  0.0585  0.1965  0.1610
 6903TIP3    H142124   2.804   0.998   1.189  2.0907 -0.4692  2.0186
 6903TIP3    H242125   2.665   1.032   1.240  0.6326 -2.2082 -0.6710
 6904TIP3   OH242126   4.613   5.100   5.427 -0.2833 -0.0185 -0.3169
 6904TIP3    H142127   4.659   5.031   5.380 -1.5811 -1.1856  0.0988
 6904TIP3    H242128   4.590   5.164   5.359  0.7955 -0.0496 -0.7229
 6905TIP3   OH242129   5.567   6.205   5.371 -0.3177 -0.1717  0.4348
 6905TIP3    H142130   5.494   6.146   5.392  0.4177 -0.8968  0.9867
 6905TIP3    H242131   5.607   6.226   5.455  1.5893 -1.7339 -0.0164
 6906TIP3   OH242132   3.269   6.275  11.328  0.2275 -0.0155 -0.0932
 6906TIP3    H142133   3.358   6.293  11.299  0.3081 -1.4678 -0.8014
 6906TIP3    H242134   3.280   6.233  11.414  0.2232 -0.3682 -0.2686
 6907TIP3   OH242135   2.364   5.452  15.300  0.0847 -0.0246 -0.1396
 6907TIP3    H142136   2.315   5.371  15.287 -0.6783  0.2225  1.1035
 6907TIP3    H242137   2.366   5.494  15.214 -2.2437  0.1444 -0.1364
 6908TIP3   OH242138   3.121   3.791  10.752  0.2248  0.3020 -0.4333
 6908TIP3    H142139   3.144   3.883  10.763 -0.6982  0.4508  0.3441
 6908TIP3    H242140   3.067   3.788  10.673 -0.9580  0.6679  0.3326
 6909TIP3   OH242141   2.860   2.015  13.610 -0.5061  0.3628 -0.0617
 6909TIP3    H142142   2.838   1.967  13.690 -0.7829 -1.2196 -1.0625
 6909TIP3    H242143   2.811   2.097  13.617  1.5735  1.4799  2.6531
 6910TIP3   OH242144   2.798   2.930  14.996 -0.3725  0.3584  0.5053
 6910TIP3    H142145   2.730   2.914  14.931 -1.7589  2.9044  1.2744
 6910TIP3    H242146   2.837   3.014  14.970  0.8024  0.1427  1.4961
 6911TIP3   OH242147   3.992   3.797  10.720  0.2072  0.3194  0.0478
 6911TIP3    H142148   3.924   3.756  10.667  0.5511 -0.7216  0.3954
 6911TIP3    H242149   4.060   3.821  10.657  1.5831 -2.8725  0.2364
 6912TIP3   OH242150   0.788   3.062  12.075  0.1981  0.0646 -0.1082
 6912TIP3    H142151   0.763   2.972  12.096  1.7121 -0.0267  1.4367
 6912TIP3    H242152   0.731   3.116  12.129  2.4744 -0.1201  2.6201
 6913TIP3   OH242153   2.491   6.609   4.597  0.1766  0.3595  0.2412
 6913TIP3    H142154   2.456   6.683   4.647  1.3065 -0.6694  2.6892
 6913TIP3    H242155   2.579   6.638   4.571  0.0474  0.4371 -0.1124
 6914TIP3   OH242156   5.324   0.011   4.688 -1.1765 -0.8137  0.4128
 6914TIP3    H142157   5.366  -0.044   4.755 -2.5189 -2.3452  0.0242
 6914TIP3    H242158   5.239  -0.030   4.673 -1.8420  0.8791 -0.5466
 6915TIP3   OH242159   0.382   2.706  14.337 -0.5547  0.0106 -0.4395
 6915TIP3    H142160   0.371   2.635  14.273 -0.3832 -0.0674 -0.3812
 6915TIP3    H242161   0.476   2.720  14.341 -0.6638  1.1065 -1.4029
 6916TIP3   OH242162   2.579   6.405  16.472 -0.3923 -0.2668  0.1093
 6916TIP3    H142163   2.493   6.439  16.450 -0.4705 -1.6680 -1.9053
 6916TIP3    H242164   2.624   6.396  16.388  1.2825 -0.7008  1.0152
 6917TIP3   OH242165   2.547   6.219  11.463 -0.1814 -0.1090  0.5679
 6917TIP3    H142166   2.557   6.194  11.555 -0.0314  0.3725  0.6816
 6917TIP3    H242167   2.528   6.136  11.418  0.3332 -0.4374  0.9420
 6918TIP3   OH242168   3.203   6.603  17.030  0.2863 -0.0119  0.3418
 6918TIP3    H142169   3.168   6.689  17.054 -0.1098  0.2665 -1.1410
 6918TIP3    H242170   3.227   6.562  17.113 -1.2825  0.7840  1.2153
 6919TIP3   OH242171   3.903   0.706   5.131  0.0125 -0.0557  0.3533
 6919TIP3    H142172   3.894   0.802   5.129  0.2676 -0.0370 -0.0606
 6919TIP3    H242173   3.903   0.681   5.039 -1.1305 -0.5605  0.4882
 6920TIP3   OH242174   4.678   0.031   1.359 -0.1052  0.0687 -0.0854
 6920TIP3    H142175   4.667  -0.050   1.309  1.5296  0.2818 -0.8365
 6920TIP3    H242176   4.626   0.096   1.312 -0.6050 -0.3121 -0.0590
 6921TIP3   OH242177   4.979   4.510   2.011  0.1137 -0.1592 -0.5829
 6921TIP3    H142178   4.964   4.604   2.001 -0.6346 -0.2087  0.0041
 6921TIP3    H242179   4.892   4.471   2.006  0.2683 -0.6825  0.5482
 6922TIP3   OH242180   6.153   3.884  12.507 -0.2833 -0.7399  0.5398
 6922TIP3    H142181   6.071   3.836  12.511 -1.1103  0.2321 -3.0451
 6922TIP3    H242182   6.138   3.962  12.561 -1.7260 -0.5852 -0.0581
 6923TIP3   OH242183   0.480   6.166  13.736  0.3119 -0.2201 -0.1959
 6923TIP3    H142184   0.528   6.187  13.656  0.7271  1.3654  0.4396
 6923TIP3    H242185   0.388   6.169  13.710  0.4994 -3.0586 -1.3694
 6924TIP3   OH242186   0.922   0.140   0.088 -0.3184 -0.3754 -0.0738
 6924TIP3    H142187   0.939   0.048   0.109  1.6631  0.1872  0.8924
 6924TIP3    H242188   0.937   0.147  -0.006 -2.0532 -1.3594 -0.4504
 6925TIP3   OH242189   2.400   2.038   6.416  0.2122 -0.1682 -0.1896
 6925TIP3    H142190   2.347   1.996   6.483 -2.9959  1.7431 -1.3542
 6925TIP3    H242191   2.373   1.996   6.334  1.4398 -0.0059 -0.6931
 6926TIP3   OH242192   4.392   5.542  10.930  0.5081  0.6218  0.0146
 6926TIP3    H142193   4.317   5.543  10.870 -0.9350  0.2774  1.7420
 6926TIP3    H242194   4.468   5.525  10.874 -1.0461 -1.9531 -1.4251
 6927TIP3   OH242195   1.566   1.953   3.250 -0.1583  0.4031 -0.6781
 6927TIP3    H142196   1.536   1.919   3.335  1.3294  3.0499  0.9724
 6927TIP3    H242197   1.490   2.001   3.216 -0.5722 -0.1806 -0.5877
 6928TIP3   OH242198   1.430   2.182  10.829  0.3433  0.2205  0.2210
 6928TIP3    H142199   1.411   2.165  10.737 -0.7815  0.9770  0.2987
 6928TIP3    H242200   1.423   2.277  10.837 -1.8759 -0.0014  1.5566
 6929TIP3   OH242201   1.947   1.357   5.292 -0.1842 -0.4976  0.0309
 6929TIP3    H142202   1.877   1.352   5.227  0.1554 -0.5420 -0.3313
 6929TIP3    H242203   2.008   1.287   5.267 -0.7380 -1.4229  1.1919
 6930TIP3   OH242204   3.455   6.483   5.986 -0.1124  0.4123 -0.3575
 6930TIP3    H142205   3.546   6.501   5.964 -0.0324  0.0520 -0.3262
 6930TIP3    H242206   3.424   6.563   6.029 -0.2838  1.1287 -1.7995
 6931TIP3   OH242207   4.041   1.232   1.435  0.1215  0.5473 -0.0242
 6931TIP3    H142208   4.131   1.250   1.407 -0.0443 -0.2648 -1.1264
 6931TIP3    H242209   3.990   1.235   1.354 -0.5299 -0.9298  0.3298
 6932TIP3   OH242210   0.842   2.486   2.036 -0.6199  0.2891 -0.0684
 6932TIP3    H142211   0.806   2.572   2.057 -2.0827 -0.4816  0.6743
 6932TIP3    H242212   0.907   2.470   2.104 -0.7364  0.5633  0.1071
 6933TIP3   OH242213   5.115   2.010   1.560  1.4501  0.4076  0.0337
 6933TIP3    H142214   5.111   1.924   1.518  1.3245  0.3860  0.0878
 6933TIP3    H242215   5.026   2.044   1.552  1.9220  1.3230 -1.6250
 6934TIP3   OH242216   1.821   4.990  11.162  0.4752 -0.1947 -0.3547
 6934TIP3    H142217   1.793   4.950  11.079 -1.2669  1.3717 -0.5523
 6934TIP3    H242218   1.755   4.963  11.225 -0.2660  1.6410 -0.3111
 6935TIP3   OH242219   6.035   4.346   3.537 -0.2065 -0.2120 -0.1815
 6935TIP3    H142220   6.007   4.437   3.543 -0.8227 -0.1558 -3.3081
 6935TIP3    H242221   5.990   4.303   3.609 -1.7545  1.5186 -0.0803
 6936TIP3   OH242222   2.964   4.791   2.109  0.3895  0.1735 -0.1125
 6936TIP3    H142223   2.960   4.716   2.168 -0.4683 -0.4312 -0.9463
 6936TIP3    H242224   3.013   4.759   2.033 -2.3428 -0.3653 -1.6782
 6937TIP3   OH242225   5.884   3.141  13.131 -0.0537  0.1841  0.1827
 6937TIP3    H142226   5.793   3.122  13.107 -0.3026  1.5546  0.0149
 6937TIP3    H242227   5.880   3.165  13.223  0.2174 -0.2789  0.3161
 6938TIP3   OH242228   4.617   0.427   5.604  0.3186 -0.4414  0.4816
 6938TIP3    H142229   4.697   0.448   5.557  1.5712  1.2952  3.2716
 6938TIP3    H242230   4.646   0.388   5.686 -1.6392  0.3759  1.6222
 6939TIP3   OH242231   4.142   2.435   3.236  0.4803 -0.4955 -0.0161
 6939TIP3    H142232   4.133   2.387   3.319  0.1981 -1.7823 -0.7772
 6939TIP3    H242233   4.056   2.427   3.195  1.4041 -2.1843 -1.6670
 6940TIP3   OH242234   0.300   3.214  12.514  0.3260 -0.7077  0.5148
 6940TIP3    H142235   0.314   3.120  12.526  0.0209 -0.6517  1.3704
 6940TIP3    H242236   0.207   3.223  12.495  0.6273 -0.7025 -1.0102
 6941TIP3   OH242237   3.599   1.550  11.963 -0.7238  0.2750 -0.0900
 6941TIP3    H142238   3.600   1.582  12.053 -1.7946 -0.3238  0.1504
 6941TIP3    H242239   3.506   1.550  11.939 -0.4048  0.8746 -1.3594
 6942TIP3   OH242240   3.738   2.378   2.815  0.3490 -0.0045  0.4079
 6942TIP3    H142241   3.766   2.466   2.790  0.0218 -0.0419 -0.1134
 6942TIP3    H242242   3.643   2.386   2.827  0.2607 -0.3634 -0.0079
 6943TIP3   OH242243   6.165   6.289   5.506 -0.1934 -0.0762  0.4342
 6943TIP3    H142244   6.135   6.363   5.559 -0.6465 -1.4343  2.1310
 6943TIP3    H242245   6.261   6.297   5.506 -0.3068  2.9154 -3.0183
 6944TIP3   OH242246   4.079   6.536   2.904  0.0358  0.2010  0.4872
 6944TIP3    H142247   4.102   6.519   2.812 -0.6234  2.8410 -0.1944
 6944TIP3    H242248   4.163   6.532   2.950  0.4362 -0.6553 -0.2825
 6945TIP3   OH242249   1.124   2.484   4.258 -0.2292 -0.3369 -0.3137
 6945TIP3    H142250   1.029   2.471   4.250 -0.0080 -1.3404 -1.3683
 6945TIP3    H242251   1.155   2.404   4.300  0.0210  0.4442  1.0089
 6946TIP3   OH242252   4.871   6.449   4.487 -0.0399  0.0789 -0.6526
 6946TIP3    H142253   4.847   6.538   4.462  1.9669  0.7749 -0.1501
 6946TIP3    H242254   4.892   6.405   4.404 -1.3805 -0.0458 -0.9323
 6947TIP3   OH242255   5.118   3.969  13.695  0.6254  0.3890 -0.6511
 6947TIP3    H142256   5.140   3.877  13.687 -0.2390  0.2906 -2.0535
 6947TIP3    H242257   5.170   4.000  13.769 -1.0693 -1.8400  1.5264
 6948TIP3   OH242258   6.311   5.311  12.793 -0.2848 -0.1676  0.4030
 6948TIP3    H142259   6.251   5.372  12.835  1.6686  1.1440  1.3537
 6948TIP3    H242260   6.295   5.322  12.699 -0.9166  0.8163  0.6186
 6949TIP3   OH242261   0.937   5.575  17.133 -0.1414  0.9487  0.2707
 6949TIP3    H142262   0.916   5.490  17.093  0.0878  0.6352  0.8158
 6949TIP3    H242263   0.885   5.578  17.213  0.7053  0.8364  0.8268
 6950TIP3   OH242264   2.072   4.433   3.805  0.3543 -0.2737  0.1481
 6950TIP3    H142265   1.998   4.380   3.834  0.7094 -0.8747 -0.0283
 6950TIP3    H242266   2.128   4.439   3.883  0.0789  0.2561  0.3073
 6951TIP3   OH242267   2.674   3.103  13.782  0.0933  0.3621  0.4098
 6951TIP3    H142268   2.647   3.045  13.711 -2.0784  0.3679  1.1874
 6951TIP3    H242269   2.607   3.171  13.784  1.2936  1.5452  1.0947
 6952TIP3   OH242270   0.755   4.649   0.390  0.2109 -0.2502 -0.2769
 6952TIP3    H142271   0.712   4.734   0.376  2.8215  0.9201 -1.4132
 6952TIP3    H242272   0.765   4.643   0.485  0.8378  1.1374 -0.2413
 6953TIP3   OH242273   1.141   3.314   3.029 -0.0099 -0.4130 -0.1877
 6953TIP3    H142274   1.230   3.287   3.051  0.0924  0.3693  0.3727
 6953TIP3    H242275   1.150   3.402   2.993 -0.6993  0.2763  1.2743
 6954TIP3   OH242276   3.269   3.678  15.560 -0.0399 -0.1273 -0.3579
 6954TIP3    H142277   3.289   3.617  15.631 -1.5279 -0.6295 -0.3481
 6954TIP3    H242278   3.336   3.662  15.495  0.1714 -1.0702  0.0853
 6955TIP3   OH242279   0.814   2.881   4.529  0.4304 -0.2680  0.5508
 6955TIP3    H142280   0.726   2.843   4.535  0.5236 -0.3884  1.1605
 6955TIP3    H242281   0.866   2.831   4.592 -0.0101  2.4445  3.2253
 6956TIP3   OH242282   0.769   0.321   2.399 -0.2290 -0.0594  0.1535
 6956TIP3    H142283   0.720   0.379   2.458 -2.0536  0.5980 -1.9013
 6956TIP3    H242284   0.819   0.381   2.343  0.3907 -0.6110  0.1146
 6957TIP3   OH242285   4.756   5.337  14.072 -0.1320 -0.4998  0.0898
 6957TIP3    H142286   4.833   5.297  14.112  0.0905 -1.2771 -1.0963
 6957TIP3    H242287   4.682   5.309  14.127  0.2129 -1.2227  0.1831
 6958TIP3   OH242288   5.613   2.014   5.330 -0.4455  0.3160 -0.1657
 6958TIP3    H142289   5.612   2.101   5.370 -0.5144 -0.1523  0.8682
 6958TIP3    H242290   5.522   1.985   5.333 -0.4173  0.1954 -0.4888
 6959TIP3   OH242291   5.322   0.481  11.519 -0.0517  0.0468 -0.3583
 6959TIP3    H142292   5.409   0.460  11.485 -0.3231  0.1911 -1.1425
 6959TIP3    H242293   5.269   0.497  11.442 -0.8385 -0.2577  0.1087
 6960TIP3   OH242294   4.506   2.433  12.653 -0.1034  0.4833  0.4853
 6960TIP3    H142295   4.452   2.391  12.586  0.1228  1.2898 -0.2096
 6960TIP3    H242296   4.478   2.524  12.654  0.3997  0.6406  0.9811
 6961TIP3   OH242297   4.684   5.661   1.260  0.2642  0.0222 -0.1936
 6961TIP3    H142298   4.673   5.750   1.228  0.5131 -0.6245 -2.1502
 6961TIP3    H242299   4.636   5.659   1.342 -0.6795  1.6456 -0.6804
 6962TIP3   OH242300   5.758   3.633   4.659 -0.2919  0.1290 -0.3102
 6962TIP3    H142301   5.772   3.597   4.746  1.2356  0.4947 -0.3929
 6962TIP3    H242302   5.782   3.725   4.667  0.6693 -0.0276 -1.3193
 6963TIP3   OH242303   5.022   6.633  13.589  0.3016  0.1569 -0.1656
 6963TIP3    H142304   5.072   6.581  13.651  0.5576  0.6433  0.0341
 6963TIP3    H242305   4.966   6.569  13.544  0.9231 -0.3520 -0.2244
 6964TIP3   OH242306   4.968   5.960  16.599 -0.2253 -0.3194  0.5162
 6964TIP3    H142307   4.914   5.945  16.522  1.5001  2.2683 -1.2521
 6964TIP3    H242308   4.953   6.051  16.622  0.7000 -0.5491  2.1249
 6965TIP3   OH242309   3.827   5.701   2.016  0.4814 -0.2674  0.2069
 6965TIP3    H142310   3.837   5.677   2.108  0.9370  0.5023  0.3622
 6965TIP3    H242311   3.909   5.746   1.993 -0.5735  1.6661  0.1016
 6966TIP3   OH242312   1.243   5.666  16.325  0.1628  0.1055 -0.5562
 6966TIP3    H142313   1.333   5.682  16.295 -0.1707  0.2615 -1.4967
 6966TIP3    H242314   1.224   5.577  16.297  0.7534 -0.6859  1.5084
 6967TIP3   OH242315   4.119   4.164   1.794  0.1511  0.1404  0.0238
 6967TIP3    H142316   4.110   4.214   1.712  1.3550  2.4397  1.2400
 6967TIP3    H242317   4.045   4.194   1.848 -0.4251 -1.0915 -0.0563
 6968TIP3   OH242318   3.963   1.067   3.855  0.5129  0.0228 -0.5194
 6968TIP3    H142319   3.909   1.135   3.897  0.2026 -1.1140  0.9830
 6968TIP3    H242320   3.936   1.068   3.763 -0.0392  1.4115 -0.3506
 6969TIP3   OH242321   2.598   0.300  11.950  0.4362  0.4078  0.1943
 6969TIP3    H142322   2.670   0.257  11.905  0.8890  1.4711 -0.1125
 6969TIP3    H242323   2.534   0.320  11.881  0.0781 -0.0630  0.3847
 6970TIP3   OH242324   0.631   5.242   5.765  0.2446 -0.1048 -0.0952
 6970TIP3    H142325   0.605   5.245   5.857 -0.2156 -2.5379 -0.1322
 6970TIP3    H242326   0.670   5.156   5.753 -2.4820 -1.0500 -2.8727
 6971TIP3   OH242327   3.992   6.408  12.643 -0.5003 -0.5347  0.7917
 6971TIP3    H142328   4.030   6.328  12.607 -1.1441 -0.6308  0.3120
 6971TIP3    H242329   4.024   6.478  12.585  0.7886 -0.3204  1.7382
 6972TIP3   OH242330   4.327   6.668   5.178  0.2591  0.2559 -0.1755
 6972TIP3    H142331   4.354   6.589   5.132  0.7208  0.7625 -0.7785
 6972TIP3    H242332   4.348   6.651   5.270  4.9847  1.5948 -0.8868
 6973TIP3   OH242333   5.512   5.537  16.552  0.3505 -0.1944  0.3704
 6973TIP3    H142334   5.583   5.521  16.490  1.0133  0.7606  0.8583
 6973TIP3    H242335   5.536   5.620  16.595 -1.1020  0.1862  0.4748
 6974TIP3   OH242336   1.670   6.730   0.170  0.7912  0.2878  0.6671
 6974TIP3    H142337   1.637   6.700   0.255 -0.6736  0.7190  0.2644
 6974TIP3    H242338   1.592   6.749   0.119  1.6656  0.2934 -0.7000
 6975TIP3   OH242339   0.919   4.360  16.736 -0.2369  0.2612  0.7678
 6975TIP3    H142340   0.934   4.455  16.727 -0.9373  0.2482 -0.7051
 6975TIP3    H242341   0.841   4.353  16.791 -0.6550  0.5585  0.2120
 6976TIP3   OH242342   5.809   5.090  15.038 -0.0201 -0.1108  0.5122
 6976TIP3    H142343   5.777   5.175  15.007  1.2506  0.4261  0.6394
 6976TIP3    H242344   5.730   5.040  15.059 -0.8291  0.3995 -1.2608
 6977TIP3   OH242345   4.086   5.108   6.427  0.1877  0.3328 -0.2231
 6977TIP3    H142346   4.179   5.096   6.442  0.4174  0.2223 -1.6075
 6977TIP3    H242347   4.078   5.114   6.331 -1.4841 -2.1275 -0.2813
 6978TIP3   OH242348   3.861   4.589   4.091 -0.0583  0.3100  0.4583
 6978TIP3    H142349   3.839   4.638   4.170  0.9876 -0.6131  1.3427
 6978TIP3    H242350   3.952   4.612   4.073  0.3130 -0.9700  0.6395
 6979TIP3   OH242351   5.586   4.639   1.695 -0.0642  0.0969  0.3861
 6979TIP3    H142352   5.518   4.700   1.666  0.8323  0.7099 -0.4746
 6979TIP3    H242353   5.541   4.555   1.703 -0.5513  0.1148 -1.8738
 6980TIP3   OH242354   1.825   6.510   1.587 -0.2928 -0.1395  0.3499
 6980TIP3    H142355   1.824   6.436   1.648 -1.1483  0.6176  1.2675
 6980TIP3    H242356   1.793   6.584   1.638 -1.2441  0.4683 -1.0842
 6981TIP3   OH242357   3.875   6.223  16.733 -0.1984 -0.5007  0.1178
 6981TIP3    H142358   3.873   6.134  16.698 -0.4475 -0.2591 -0.4862
 6981TIP3    H242359   3.792   6.232  16.781 -0.6640 -0.2267 -0.7348
 6982TIP3   OH242360   4.339   5.990  11.598  0.0082 -0.7469 -0.3274
 6982TIP3    H142361   4.306   6.058  11.539 -0.4718 -0.6010  0.1053
 6982TIP3    H242362   4.413   6.031  11.642 -0.9101 -0.1514  0.6788
 6983TIP3   OH242363   2.018   0.344  16.804  0.3422  0.2877  0.9143
 6983TIP3    H142364   1.964   0.265  16.792 -0.2979  0.4541  2.6230
 6983TIP3    H242365   2.082   0.319  16.871  0.5971  0.9930  0.9290
 6984TIP3   OH242366   5.527   0.758   2.590 -0.1561  0.5169 -0.0248
 6984TIP3    H142367   5.447   0.705   2.592  0.6193 -0.7259 -0.8353
 6984TIP3    H242368   5.518   0.818   2.664 -1.5061 -0.1014  0.3325
 6985TIP3   OH242369   5.267   5.790   2.809  0.4809 -0.0860 -0.1596
 6985TIP3    H142370   5.288   5.849   2.882 -0.1382  0.6005 -0.5231
 6985TIP3    H242371   5.326   5.817   2.739  1.2027 -0.8689  0.1468
 6986TIP3   OH242372   4.181   1.278  13.445 -0.4386 -0.3067 -0.3993
 6986TIP3    H142373   4.160   1.337  13.373  1.0151  0.3680 -0.2881
 6986TIP3    H242374   4.174   1.333  13.523  0.1418 -0.4821 -0.2244
 6987TIP3   OH242375   0.739   5.558  10.915  0.0570  0.9326 -0.5789
 6987TIP3    H142376   0.815   5.574  10.859 -0.8485  0.8013 -1.8662
 6987TIP3    H242377   0.672   5.617  10.881 -0.9737 -0.2465 -0.5929
 6988TIP3   OH242378   5.984   6.031   2.159 -0.4763 -0.0157  0.0536
 6988TIP3    H142379   5.943   6.029   2.072 -0.2656  0.0481 -0.0488
 6988TIP3    H242380   6.029   6.116   2.162 -0.3627 -0.0798  0.1684
 6989TIP3   OH242381   3.838   4.999  15.647 -0.0641 -0.0442 -0.0866
 6989TIP3    H142382   3.834   4.963  15.558  0.3797  0.1469 -0.1847
 6989TIP3    H242383   3.854   4.922  15.703 -0.7653 -0.2228 -0.1230
 6990TIP3   OH242384   1.566   5.491  15.181  0.4464  0.2777  0.0443
 6990TIP3    H142385   1.537   5.547  15.253 -1.8252 -1.7939  0.8202
 6990TIP3    H242386   1.594   5.552  15.113 -1.5559  2.3676  0.9995
 6991TIP3   OH242387   4.763   4.859   5.368  0.6037  0.5185 -0.1186
 6991TIP3    H142388   4.766   4.874   5.273  0.4527  0.1382 -0.1861
 6991TIP3    H242389   4.793   4.769   5.379  0.6580  0.5740  0.2012
 6992TIP3   OH242390   3.503   1.457  10.752  0.1155  0.0358 -0.0775
 6992TIP3    H142391   3.430   1.492  10.803  0.7532 -0.2666  1.0866
 6992TIP3    H242392   3.463   1.401  10.686 -0.6607 -1.5353  1.6594
 6993TIP3   OH242393   4.936   3.306   0.887  0.0752  0.2466  0.4167
 6993TIP3    H142394   4.870   3.374   0.871 -0.9083 -0.0417  2.9693
 6993TIP3    H242395   4.933   3.251   0.809 -1.7005  1.0729 -0.1365
 6994TIP3   OH242396   2.310   3.913   0.327  0.2000 -0.0163  0.0052
 6994TIP3    H142397   2.232   3.968   0.328  0.3111  0.1529 -0.6599
 6994TIP3    H242398   2.376   3.964   0.373  0.3918  0.5343 -0.8799
 6995TIP3   OH242399   5.424   6.419  10.993  0.2643  0.0646 -0.1231
 6995TIP3    H142400   5.458   6.471  10.920  2.3920 -1.5034 -0.2880
 6995TIP3    H242401   5.405   6.334  10.954 -0.1750 -0.2664  0.8221
 6996TIP3   OH242402   4.586   4.496   3.141  0.3578  0.2420  0.3056
 6996TIP3    H142403   4.660   4.528   3.193 -0.1714  1.3030  0.4129
 6996TIP3    H242404   4.509   4.535   3.182 -0.1988 -0.1990 -0.3118
 6997TIP3   OH242405   0.414   6.772  15.854 -0.1418  0.0961 -0.3931
 6997TIP3    H142406   0.405   6.735  15.942 -0.8965  0.3084 -0.3803
 6997TIP3    H242407   0.499   6.739  15.823 -0.0432 -0.2799  0.2670
 6998TIP3   OH242408   5.159   3.527  16.375  0.5335  0.1461 -0.2985
 6998TIP3    H142409   5.092   3.543  16.442 -2.3957 -0.7389 -2.8835
 6998TIP3    H242410   5.178   3.615  16.340  1.1008  0.4555  0.7601
 6999TIP3   OH242411   4.500   6.059  11.833 -0.2240 -0.2115  0.3511
 6999TIP3    H142412   4.575   6.114  11.811 -0.4519 -0.0326  0.0246
 6999TIP3    H242413   4.536   5.970  11.838 -0.0663 -0.1794 -0.1890
 7000TIP3   OH242414   3.534   5.451  15.462 -0.0553  0.0723 -0.8400
 7000TIP3    H142415   3.555   5.387  15.395  0.1312  1.1399 -1.8140
 7000TIP3    H242416   3.607   5.446  15.524 -0.8407 -1.8087 -0.0132
 7001TIP3   OH242417   0.940   3.225   1.240 -0.3540 -0.0160 -0.2577
 7001TIP3    H142418   1.006   3.295   1.239  0.2334 -0.5438 -2.9403
 7001TIP3    H242419   0.917   3.213   1.148 -2.3204 -1.6361  0.4080
 7002TIP3   OH242420   2.685   1.876   1.713  0.3940  0.2648  0.0385
 7002TIP3    H142421   2.643   1.790   1.708 -0.7990  0.6835  2.2642
 7002TIP3    H242422   2.750   1.875   1.642 -1.1458 -1.6090 -1.4129
 7003TIP3   OH242423   5.627   2.786  12.128  0.1658 -0.5853 -0.3178
 7003TIP3    H142424   5.582   2.812  12.048  1.3302  1.9211 -0.2367
 7003TIP3    H242425   5.623   2.864  12.184 -0.0366 -2.0625  1.7997
 7004TIP3   OH242426   4.072   4.973   1.696  0.2536 -0.0041  0.5084
 7004TIP3    H142427   4.156   4.969   1.650 -0.9905 -1.6185 -1.7211
 7004TIP3    H242428   4.036   5.059   1.675  0.7078  0.1445  0.3350
 7005TIP3   OH242429   4.694   2.257   5.761 -0.2977  0.0445  0.2533
 7005TIP3    H142430   4.676   2.349   5.741 -1.1249 -0.2850 -0.5667
 7005TIP3    H242431   4.701   2.253   5.856 -2.5251  0.5641  0.4463
 7006TIP3   OH242432   3.052   2.623   0.729  0.0062 -0.2876  0.1972
 7006TIP3    H142433   3.053   2.635   0.634  2.1333  1.3929  0.3906
 7006TIP3    H242434   3.005   2.541   0.743 -0.9698 -0.1841 -2.2556
 7007TIP3   OH242435   6.226   0.301  16.134 -0.4261 -0.0948  0.7618
 7007TIP3    H142436   6.210   0.213  16.100 -0.6304  0.2703 -0.0946
 7007TIP3    H242437   6.295   0.336  16.079 -1.5142  0.9058  0.0137
 7008TIP3   OH242438   2.000   2.902  15.541  0.4607  0.3696  0.1625
 7008TIP3    H142439   1.996   2.808  15.525  0.3773  0.6794 -1.7888
 7008TIP3    H242440   1.913   2.934  15.517  0.5581  0.9595  0.6071
 7009TIP3   OH242441   1.951   3.154  15.875  0.3048  0.1093  0.0038
 7009TIP3    H142442   2.042   3.122  15.872  0.9311  1.4759  2.7439
 7009TIP3    H242443   1.901   3.078  15.906  0.7622 -0.1911  0.0220
 7010TIP3   OH242444   6.705   6.637  13.210  0.1746  0.6568 -0.8867
 7010TIP3    H142445   6.690   6.680  13.295 -0.8554 -1.3897  0.0086
 7010TIP3    H242446   6.639   6.675  13.152 -1.4206 -0.4122  0.1760
 7011TIP3   OH242447   4.764   4.394   0.112 -0.2323  0.5154 -0.3796
 7011TIP3    H142448   4.774   4.313   0.063 -0.5263 -0.5520  1.2684
 7011TIP3    H242449   4.794   4.463   0.053  3.8923 -1.1573 -0.4134
 7012TIP3   OH242450   5.079   2.980   3.246  0.5749  0.3513  0.1213
 7012TIP3    H142451   5.071   2.995   3.151 -1.9792  0.5877  0.3328
 7012TIP3    H242452   5.088   2.885   3.255 -0.7127  0.1829 -0.2873
 7013TIP3   OH242453   0.644   1.095   3.535  0.0475  0.4724 -0.5645
 7013TIP3    H142454   0.679   1.095   3.446 -0.8952 -1.4894 -0.9760
 7013TIP3    H242455   0.681   1.016   3.575 -0.4074  0.7494  0.4201
 7014TIP3   OH242456   0.758   1.963  14.027 -0.4380 -0.2229 -0.3294
 7014TIP3    H142457   0.750   1.914  13.944  0.9952 -2.1006  0.5977
 7014TIP3    H242458   0.703   1.915  14.088  1.3165 -0.9482  0.7037
 7015TIP3   OH242459   3.944   0.972   1.771  0.3894 -0.0182  0.1861
 7015TIP3    H142460   3.950   1.050   1.826  0.6997 -0.7061  1.1380
 7015TIP3    H242461   3.852   0.968   1.744  0.7557  1.7730 -1.5101
 7016TIP3   OH242462   4.106   3.593   1.839  0.2063  0.7581  0.0322
 7016TIP3    H142463   4.064   3.678   1.848 -1.0278 -0.0204  1.9462
 7016TIP3    H242464   4.198   3.613   1.822 -0.2416  2.4605 -0.4613
 7017TIP3   OH242465   0.422   3.961  11.156  0.2659 -0.3941  0.1219
 7017TIP3    H142466   0.478   3.952  11.079 -0.3010 -0.2810 -0.3125
 7017TIP3    H242467   0.410   4.056  11.167 -0.0218 -0.4233  0.0755
 7018TIP3   OH242468   1.596   4.592   4.366  0.6032 -0.2196  0.4196
 7018TIP3    H142469   1.514   4.625   4.402  0.6232 -0.0908  0.3473
 7018TIP3    H242470   1.626   4.662   4.307 -0.6567 -1.4207 -1.7151
 7019TIP3   OH242471   0.717   4.214   4.792  0.0687  0.1215 -0.3328
 7019TIP3    H142472   0.689   4.136   4.840  0.2190  0.8077  0.9050
 7019TIP3    H242473   0.811   4.221   4.812  0.3542 -0.1701 -1.5762
 7020TIP3   OH242474   0.043   4.185  12.582  0.1482 -0.0616 -0.4806
 7020TIP3    H142475   0.111   4.124  12.609 -0.6222 -0.6776  0.1081
 7020TIP3    H242476   0.082   4.272  12.596  1.0428 -0.4155 -0.7850
 7021TIP3   OH242477   2.147   3.239  16.713 -0.4423  0.0873  0.4686
 7021TIP3    H142478   2.213   3.299  16.745 -0.6893 -1.1019  3.3911
 7021TIP3    H242479   2.067   3.292  16.708 -0.7148  0.0252  3.2383
 7022TIP3   OH242480   3.883   3.717  15.498 -0.4990  0.5419  0.2387
 7022TIP3    H142481   3.834   3.669  15.565  0.7718  0.8760  1.4567
 7022TIP3    H242482   3.884   3.808  15.529  0.3587  0.6440 -0.0563
 7023TIP3   OH242483   1.813   2.397   2.450 -0.4681  0.2680 -0.2906
 7023TIP3    H142484   1.842   2.477   2.494 -2.2391  0.4968  0.5148
 7023TIP3    H242485   1.811   2.331   2.520 -1.3272  0.1234 -0.4492
 7024TIP3   OH242486   2.309   0.813   1.681 -0.4135  0.3090 -0.5809
 7024TIP3    H142487   2.339   0.886   1.627  0.5490 -0.2141 -0.7657
 7024TIP3    H242488   2.255   0.760   1.622 -0.1911  0.2766 -0.7561
 7025TIP3   OH242489   3.727   4.761  11.879  0.2202  0.3950  0.3597
 7025TIP3    H142490   3.670   4.821  11.831 -1.4861 -0.1517  1.6501
 7025TIP3    H242491   3.784   4.818  11.931  0.3183  0.9380 -0.3422
 7026TIP3   OH242492   4.607   5.288  12.967  0.3085  0.0377 -0.8126
 7026TIP3    H142493   4.626   5.362  12.910  0.3968 -0.9830 -2.1299
 7026TIP3    H242494   4.631   5.211  12.915  2.0112 -0.8576  1.2237
 7027TIP3   OH242495   3.324   4.297   0.995  0.1362 -0.1183 -0.1986
 7027TIP3    H142496   3.258   4.240   1.034  0.3158  0.3040  0.7452
 7027TIP3    H242497   3.325   4.374   1.052 -0.5848  1.1298 -1.8564
 7028TIP3   OH242498   0.663   2.375  11.261 -0.1069  0.1452  0.9185
 7028TIP3    H142499   0.740   2.341  11.216  0.0427 -0.6258  1.7511
 7028TIP3    H242500   0.633   2.447  11.206  0.2651 -0.5779 -0.2423
 7029TIP3   OH242501   2.552   4.398  15.255 -0.7678  0.2826  0.1830
 7029TIP3    H142502   2.607   4.447  15.315  0.6416  1.7435 -2.2466
 7029TIP3    H242503   2.612   4.337  15.212 -2.1461 -2.2745  1.7169
 7030TIP3   OH242504   0.606   2.184   2.255 -0.3671  0.3487  0.2633
 7030TIP3    H142505   0.699   2.204   2.248 -0.7016  1.8251 -0.1831
 7030TIP3    H242506   0.562   2.263   2.224 -1.7648 -0.8994 -1.0433
 7031TIP3   OH242507   4.395   5.128  11.372 -0.2067  0.1286 -0.1539
 7031TIP3    H142508   4.345   5.050  11.346 -0.4214  0.1430  0.2167
 7031TIP3    H242509   4.481   5.115  11.333 -0.8199  0.6091 -1.7068
 7032TIP3   OH242510   6.048   2.302  10.674 -0.1358 -0.2805 -0.4009
 7032TIP3    H142511   5.973   2.359  10.692  1.5393  1.5799  0.8824
 7032TIP3    H242512   6.123   2.361  10.669  1.9091 -2.4737  2.4220
 7033TIP3   OH242513   0.903   3.248   3.765  0.0996 -0.2122 -0.2350
 7033TIP3    H142514   0.978   3.209   3.809  0.4236 -0.3025 -0.8611
 7033TIP3    H242515   0.856   3.296   3.834  0.1173 -1.0748  0.3828
 7034TIP3   OH242516   3.823   1.890  15.959 -0.2159 -0.0291 -0.3388
 7034TIP3    H142517   3.864   1.931  16.035 -1.7097 -1.8645  1.5314
 7034TIP3    H242518   3.894   1.848  15.912  0.2749 -2.1859  2.2149
 7035TIP3   OH242519   2.188   1.825  10.917 -0.6868 -1.0166  0.1599
 7035TIP3    H142520   2.140   1.907  10.923  0.3336 -0.3751 -0.2873
 7035TIP3    H242521   2.124   1.761  10.887 -0.8916  0.1841 -2.1137
 7036TIP3   OH242522   6.453   4.877  12.394 -0.3701 -0.1694  0.3565
 7036TIP3    H142523   6.548   4.882  12.389 -0.4130  1.0014  0.4960
 7036TIP3    H242524   6.429   4.805  12.336  0.5110  0.3641 -0.6752
 7037TIP3   OH242525   5.960   3.259   0.400 -0.1533 -0.0118  0.1598
 7037TIP3    H142526   5.867   3.243   0.383 -0.3986  0.0190  1.4079
 7037TIP3    H242527   5.962   3.299   0.487  1.1397 -1.5577  0.8830
 7038TIP3   OH242528   3.387   5.017  14.917 -0.4964 -0.8639 -0.1600
 7038TIP3    H142529   3.369   4.977  15.002 -0.0323 -0.5189  0.0945
 7038TIP3    H242530   3.474   4.985  14.893 -0.7891 -1.2801 -0.6923
 7039TIP3   OH242531   0.980   0.774  15.407 -0.2569  0.1111 -0.3766
 7039TIP3    H142532   1.021   0.700  15.362 -2.4782 -0.7866 -0.9967
 7039TIP3    H242533   0.943   0.828  15.336  0.6721  1.4069  0.1077
 7040TIP3   OH242534   1.403   0.041   6.443  0.4274 -0.5698  0.0351
 7040TIP3    H142535   1.411  -0.038   6.390  1.2596 -0.4570 -0.0089
 7040TIP3    H242536   1.426   0.113   6.383 -2.1258 -0.1141 -0.4515
 7041TIP3   OH242537   6.122   5.532   2.968 -0.8704  0.1518 -0.4076
 7041TIP3    H142538   6.095   5.443   2.946  1.2880 -0.6684  0.1395
 7041TIP3    H242539   6.197   5.521   3.026 -1.5858  2.3353  0.9956
 7042TIP3   OH242540   4.209   2.180  10.954 -0.1934  0.1736  0.5504
 7042TIP3    H142541   4.128   2.140  10.984 -0.3791 -0.7581 -1.1383
 7042TIP3    H242542   4.192   2.204  10.863  1.0588  0.9690  0.5104
 7043TIP3   OH242543   0.295   0.557  12.006  0.4221  0.0101  0.0720
 7043TIP3    H142544   0.203   0.542  12.026  0.2798 -0.0456 -0.6321
 7043TIP3    H242545   0.338   0.556  12.092 -0.1825 -0.2850  0.3754
 7044TIP3   OH242546   2.594   4.481  12.707  0.1091 -0.3530  0.0203
 7044TIP3    H142547   2.636   4.560  12.673 -0.5852 -0.0193 -0.0619
 7044TIP3    H242548   2.503   4.487  12.678  0.2242 -1.5719 -0.6661
 7045TIP3   OH242549   1.521   5.735   2.150  0.2788 -0.0606 -0.6552
 7045TIP3    H142550   1.514   5.673   2.222  0.9404 -1.8063 -2.0530
 7045TIP3    H242551   1.431   5.749   2.121  0.2114 -1.1775 -0.9920
 7046TIP3   OH242552   5.660   3.284   6.447  0.1202  0.1815  0.1674
 7046TIP3    H142553   5.660   3.375   6.417  2.1844  0.7030  1.6783
 7046TIP3    H242554   5.625   3.234   6.373  0.4591  2.0291 -1.2566
 7047TIP3   OH242555   6.120   2.808   5.351 -0.8587 -0.0558 -0.0567
 7047TIP3    H142556   6.049   2.871   5.339 -1.4950 -1.0457 -1.4878
 7047TIP3    H242557   6.197   2.863   5.368 -1.4104  1.1156 -1.2899
 7048TIP3   OH242558   3.321   6.521  16.609 -0.3223 -0.4242  0.3056
 7048TIP3    H142559   3.257   6.465  16.567 -1.6475  0.7770  0.7059
 7048TIP3    H242560   3.279   6.607  16.616  1.7798  0.7228 -0.5726
 7049TIP3   OH242561   2.700   0.792   5.966  0.0453 -0.0904  0.1543
 7049TIP3    H142562   2.667   0.787   6.056  1.8020 -0.0347  0.8099
 7049TIP3    H242563   2.740   0.706   5.951 -0.7827 -0.3118 -0.7903
 7050TIP3   OH242564   4.763   0.535   2.176  0.5472  0.6676  0.1376
 7050TIP3    H142565   4.688   0.528   2.235 -0.0988  0.9638 -0.6495
 7050TIP3    H242566   4.838   0.540   2.234 -0.1318  1.5208  0.9553
 7051TIP3   OH242567   3.208   5.135   0.249  0.3198  0.5711  0.1933
 7051TIP3    H142568   3.131   5.163   0.298 -2.1030 -1.7286 -2.1455
 7051TIP3    H242569   3.210   5.192   0.172 -0.3789 -0.7662 -0.8532
 7052TIP3   OH242570   0.421   6.677  11.179  0.1778  0.0647  0.2744
 7052TIP3    H142571   0.341   6.724  11.158  0.0056  0.3082  1.4520
 7052TIP3    H242572   0.470   6.675  11.096  1.1675  4.1999  0.6621
 7053TIP3   OH242573   3.160   6.713   5.176  0.1029  0.2549 -0.5988
 7053TIP3    H142574   3.172   6.735   5.084  0.9882  0.4378 -0.4471
 7053TIP3    H242575   3.076   6.667   5.179  0.5200 -0.5982 -1.6420
 7054TIP3   OH242576   3.892   5.995  15.343  0.2433  0.2506  0.0374
 7054TIP3    H142577   3.873   6.046  15.422 -1.3987 -0.7235  0.2893
 7054TIP3    H242578   3.954   6.049  15.294  0.2613  1.4605  1.3679
 7055TIP3   OH242579   3.755   2.385   5.945 -0.1257 -0.1139 -0.0640
 7055TIP3    H142580   3.752   2.362   5.852  1.7378 -0.3687 -0.0765
 7055TIP3    H242581   3.772   2.302   5.990  1.3893  0.3822  0.3015
 7056TIP3   OH242582   3.134   1.195   3.749  0.0237  0.2293  0.0065
 7056TIP3    H142583   3.087   1.137   3.809  0.8753  0.1272  0.5818
 7056TIP3    H242584   3.107   1.283   3.775  0.5520  0.1980  0.6997
 7057TIP3   OH242585   4.574   1.619   4.976  0.1323 -0.2455  0.2055
 7057TIP3    H142586   4.496   1.664   4.944 -1.2198 -2.9571 -0.4657
 7057TIP3    H242587   4.605   1.568   4.902  0.7960 -1.5391  1.3430
 7058TIP3   OH242588   3.681   6.353   3.321  0.3327  0.3273 -0.5244
 7058TIP3    H142589   3.697   6.357   3.227  1.5672  2.2603 -0.2536
 7058TIP3    H242590   3.615   6.420   3.338  0.4180  0.2660  0.0593
 7059TIP3   OH242591   3.694   3.748   0.005 -0.1511 -0.0141 -0.2574
 7059TIP3    H142592   3.691   3.777  -0.086 -4.0813 -0.0624 -0.2114
 7059TIP3    H242593   3.705   3.828   0.056  0.9641  0.1178 -0.6874
 7060TIP3   OH242594   4.554   6.194  16.150 -0.2743  0.6885 -0.6505
 7060TIP3    H142595   4.627   6.201  16.212 -1.1109 -1.4016  0.6350
 7060TIP3    H242596   4.593   6.153  16.072  0.1339  0.4687 -0.3336
 7061TIP3   OH242597   4.466   1.552   3.071 -0.2714 -0.5214 -0.2256
 7061TIP3    H142598   4.458   1.640   3.106  1.5802 -0.2740 -0.4180
 7061TIP3    H242599   4.472   1.564   2.976 -1.7770 -0.9834 -0.4033
 7062TIP3   OH242600   6.019   1.725  16.923  0.0975  0.0361 -0.5328
 7062TIP3    H142601   5.966   1.678  16.987  0.7212  2.0977  1.5483
 7062TIP3    H242602   6.103   1.679  16.924  0.2131  0.2553  0.3818
 7063TIP3   OH242603   4.949   2.779  11.465  0.2297 -0.0168 -0.8193
 7063TIP3    H142604   4.914   2.735  11.542 -0.4449 -0.8176 -1.5759
 7063TIP3    H242605   5.037   2.742  11.454 -0.2029 -0.9464 -1.2496
 7064TIP3   OH242606   0.752   4.241   5.631  0.2659 -0.3960 -0.4301
 7064TIP3    H142607   0.752   4.309   5.697  0.1455 -0.5769 -0.2429
 7064TIP3    H242608   0.814   4.175   5.663  2.0363  0.6219 -1.6501
 7065TIP3   OH242609   4.765   2.609   2.835  0.8007  0.0192  0.2914
 7065TIP3    H142610   4.708   2.536   2.811  0.7155  0.0103  0.5266
 7065TIP3    H242611   4.842   2.568   2.876  0.6747  0.0717  0.5812
 7066TIP3   OH242612   6.657   4.559  13.199  0.2367 -0.3281  0.2502
 7066TIP3    H142613   6.609   4.641  13.189 -0.0606 -0.6624 -1.3264
 7066TIP3    H242614   6.748   4.582  13.178 -0.1003 -0.6811 -1.7106
 7067TIP3   OH242615   4.768   4.700  10.635 -0.2093  0.2133  0.5188
 7067TIP3    H142616   4.784   4.785  10.676 -0.1890  0.5872 -0.2462
 7067TIP3    H242617   4.756   4.639  10.708  1.2553  0.5849  1.0863
 7068TIP3   OH242618   0.693   6.272   0.007 -0.3835 -0.3547  0.4450
 7068TIP3    H142619   0.604   6.235   0.000  0.2676 -1.6968 -1.2376
 7068TIP3    H242620   0.682   6.364  -0.017 -1.0062 -1.0004 -1.8585
 7069TIP3   OH242621   4.968   5.711   2.159  0.5191 -0.4829 -0.3115
 7069TIP3    H142622   5.060   5.734   2.148  0.1346  1.8124  1.0412
 7069TIP3    H242623   4.937   5.767   2.230 -1.7103 -1.8418 -0.1510
 7070TIP3   OH242624   2.821   5.578  13.690 -0.3543 -0.9258 -0.1533
 7070TIP3    H142625   2.806   5.500  13.635 -0.0374 -1.1343  0.0572
 7070TIP3    H242626   2.851   5.645  13.629  0.8340 -1.4078 -0.1050
 7071TIP3   OH242627   3.709   4.232  15.347 -0.1324  0.4319  0.0979
 7071TIP3    H142628   3.629   4.215  15.297 -0.2300  0.4653  0.2408
 7071TIP3    H242629   3.679   4.239  15.438 -0.1453  1.6551  0.0163
 7072TIP3   OH242630   6.378   3.597  14.054  0.0138 -0.1764  0.5251
 7072TIP3    H142631   6.290   3.569  14.078  0.0702 -1.5255 -0.7674
 7072TIP3    H242632   6.368   3.636  13.967  0.5717  0.3503  0.6941
 7073TIP3   OH242633   0.901   1.944  11.014 -0.1861 -0.1717 -0.1320
 7073TIP3    H142634   0.838   1.948  11.086  0.8371 -2.9344  0.9922
 7073TIP3    H242635   0.856   1.895  10.945  0.2142 -0.8944  0.1185
 7074TIP3   OH242636   4.415   2.760   0.616 -0.2818  0.9433  0.4971
 7074TIP3    H142637   4.370   2.844   0.624  1.9597  2.1785  0.7174
 7074TIP3    H242638   4.362   2.710   0.555 -2.0435  2.2658  0.9032
 7075TIP3   OH242639   4.354   5.962   2.068 -0.2907 -0.6678 -0.6024
 7075TIP3    H142640   4.351   5.904   1.993 -0.9794 -2.6726  0.9331
 7075TIP3    H242641   4.444   5.997   2.068  0.2803 -2.1072 -1.2837
 7076TIP3   OH242642   4.124   6.681  16.803 -0.2159  1.0205 -0.8130
 7076TIP3    H142643   4.179   6.759  16.798  1.3080  0.0892  0.8008
 7076TIP3    H242644   4.110   6.667  16.896  0.0034 -0.9601 -1.0598
 7077TIP3   OH242645   0.155   5.936  16.466 -0.0920  0.0434  0.2933
 7077TIP3    H142646   0.142   5.922  16.372 -1.4534 -1.7261  0.6946
 7077TIP3    H242647   0.248   5.917  16.481 -0.2749 -1.5572 -0.4304
 7078TIP3   OH242648   1.055   3.693   4.552 -0.3187 -0.0778  0.1692
 7078TIP3    H142649   1.078   3.781   4.523 -1.3196 -0.0062 -0.4492
 7078TIP3    H242650   1.134   3.641   4.539  0.4921  0.8758  1.1940
 7079TIP3   OH242651   5.473   1.803   3.264 -0.4402  0.1837  0.2332
 7079TIP3    H142652   5.538   1.733   3.250 -2.5478 -1.4074 -1.8669
 7079TIP3    H242653   5.491   1.866   3.195 -0.3957  0.3354  0.3816
 7080TIP3   OH242654   3.726   1.340   5.642 -0.2358 -0.3523 -0.0800
 7080TIP3    H142655   3.761   1.262   5.599 -0.8123  0.1006 -1.3950
 7080TIP3    H242656   3.631   1.331   5.636 -0.3131  0.1273  0.3683
 7081TIP3   OH242657   6.370   4.385  11.564 -0.5747  0.0071  0.0928
 7081TIP3    H142658   6.304   4.447  11.597 -2.3412 -1.2176 -1.0528
 7081TIP3    H242659   6.363   4.309  11.622 -2.7421 -1.5935 -2.1268
 7082TIP3   OH242660   6.426   4.261  11.071  0.7535 -0.0699 -0.2605
 7082TIP3    H142661   6.428   4.200  11.144 -1.8898  0.0911  0.0149
 7082TIP3    H242662   6.362   4.223  11.010  0.5667  1.3866 -0.9897
 7083TIP3   OH242663   5.218   3.196   1.766 -0.0616 -0.7430  0.5357
 7083TIP3    H142664   5.274   3.189   1.689 -0.0740 -1.0699  0.5547
 7083TIP3    H242665   5.129   3.199   1.732  0.0091  0.7044  0.4578
 7084TIP3   OH242666   2.353   2.897   5.570  0.2174 -0.2206  0.1696
 7084TIP3    H142667   2.438   2.917   5.610  0.8245  1.4622 -1.8706
 7084TIP3    H242668   2.302   2.977   5.580 -0.0421 -0.1865 -1.3146
 7085TIP3   OH242669   2.204   5.118  10.321 -0.2273 -0.0550  0.6408
 7085TIP3    H142670   2.286   5.085  10.282  0.1394  0.1377  1.2328
 7085TIP3    H242671   2.221   5.210  10.339 -0.8431  0.1696  0.0774
 7086TIP3   OH242672   3.261   0.235   2.532 -0.1334 -0.3927  0.8013
 7086TIP3    H142673   3.333   0.205   2.588  0.6038 -0.6455 -0.2721
 7086TIP3    H242674   3.281   0.327   2.515  0.1081 -0.5420  0.2566
 7087TIP3   OH242675   4.205   0.063   3.619 -0.3410  0.0321  0.1474
 7087TIP3    H142676   4.155   0.036   3.542 -3.0868  0.5591  1.6798
 7087TIP3    H242677   4.160   0.023   3.693  0.9748  1.2774  1.6806
 7088TIP3   OH242678   0.563   3.644   1.683 -0.5721  0.5937 -0.3624
 7088TIP3    H142679   0.592   3.626   1.594 -0.2700  1.2501 -0.4017
 7088TIP3    H242680   0.501   3.574   1.703  0.2078 -0.1969 -0.6835
 7089TIP3   OH242681   1.563   1.476   0.401 -0.3249  0.5352 -0.4222
 7089TIP3    H142682   1.518   1.412   0.345  0.4445 -1.0733  0.7755
 7089TIP3    H242683   1.524   1.463   0.488  1.2253  0.3507  0.2472
 7090TIP3   OH242684   2.099   1.946   2.417  0.1664 -0.2102 -0.0020
 7090TIP3    H142685   2.122   2.033   2.450 -0.0974 -0.5659  1.1299
 7090TIP3    H242686   2.015   1.958   2.373  0.2703  0.1643 -0.0948
 7091TIP3   OH242687   6.613   0.043  11.087 -0.5523  0.4621 -0.2672
 7091TIP3    H142688   6.677   0.012  11.023 -0.8500 -2.9999  1.0324
 7091TIP3    H242689   6.661   0.104  11.142  1.4165 -1.4081  0.1347
 7092TIP3   OH242690   2.143   3.707  11.959 -0.0861 -0.5672  0.2825
 7092TIP3    H142691   2.225   3.756  11.948 -0.6142  0.8622  2.3503
 7092TIP3    H242692   2.130   3.663  11.875  0.5932  2.6195 -1.5925
 7093TIP3   OH242693   2.037   4.598  13.698 -0.0619 -0.1159 -0.6244
 7093TIP3    H142694   2.113   4.641  13.657 -0.7427  1.4193 -0.3088
 7093TIP3    H242695   1.978   4.670  13.719 -2.6601 -1.4881 -2.9852
 7094TIP3   OH242696   1.672   1.447  16.948  0.2432  0.4721  0.3005
 7094TIP3    H142697   1.695   1.488  16.864 -1.0662  0.5410 -0.0284
 7094TIP3    H242698   1.661   1.354  16.927  2.2370  0.0865  0.8558
 7095TIP3   OH242699   0.648   1.119   0.949  0.5770  0.3903 -0.1423
 7095TIP3    H142700   0.657   1.061   0.873 -0.6555 -0.2769  0.2327
 7095TIP3    H242701   0.647   1.207   0.910  0.3745  0.0762 -0.8655
 7096TIP3   OH242702   3.577   6.462  10.765 -0.3188 -0.0580 -0.3559
 7096TIP3    H142703   3.603   6.473  10.857  2.9187  4.1503 -1.6170
 7096TIP3    H242704   3.645   6.404  10.729 -1.6969 -1.8636 -0.1320
 7097TIP3   OH242705   0.962   3.604  10.579  0.3523  0.0486 -0.1311
 7097TIP3    H142706   1.021   3.587  10.505 -0.7487 -0.0857 -1.0030
 7097TIP3    H242707   1.018   3.599  10.656  1.0835 -2.1878 -0.7726
 7098TIP3   OH242708   5.533   2.513   4.964 -0.5685  0.6065 -0.3791
 7098TIP3    H142709   5.497   2.438   5.011  2.0404 -0.8974 -0.7217
 7098TIP3    H242710   5.495   2.506   4.877 -1.4087  0.4729 -0.0102
 7099TIP3   OH242711   6.184   5.605   0.697 -0.2415  0.7816  0.3689
 7099TIP3    H142712   6.173   5.558   0.779 -1.1754  0.0559 -0.1637
 7099TIP3    H242713   6.105   5.659   0.689 -0.2639  0.6775 -0.1623
 7100TIP3   OH242714   1.946   0.552  16.938 -0.0196 -0.0235  0.7894
 7100TIP3    H142715   1.955   0.485  16.870 -0.3721  1.0172 -0.3197
 7100TIP3    H242716   1.950   0.635  16.889 -0.9093  0.7265  1.9671
 7101TIP3   OH242717   4.669   5.590  14.019 -0.6725  0.0692 -0.7769
 7101TIP3    H142718   4.733   5.633  13.963 -0.9096 -0.3602 -1.3722
 7101TIP3    H242719   4.699   5.499  14.025 -0.5636  0.1468 -0.0846
 7102TIP3   OH242720   1.420   5.712  15.716 -0.0067 -0.3828  0.2015
 7102TIP3    H142721   1.396   5.775  15.648 -2.7482  1.3159  2.6106
 7102TIP3    H242722   1.495   5.752  15.760  0.4693 -0.5118 -0.4730
 7103TIP3   OH242723   4.960   3.699   4.212 -0.3508 -0.3452 -0.0609
 7103TIP3    H142724   4.952   3.631   4.279 -0.8779  1.0329  1.3037
 7103TIP3    H242725   4.869   3.719   4.188 -0.2103  0.3287 -0.0135
 7104TIP3   OH242726   6.416   5.921  15.897  0.1876 -0.1249  0.4301
 7104TIP3    H142727   6.335   5.870  15.907 -0.8195  1.4851  0.7287
 7104TIP3    H242728   6.442   5.942  15.986 -0.5959  1.6901  0.2407
 7105TIP3   OH242729   1.404   0.549  15.070 -0.1007 -0.6954 -0.0480
 7105TIP3    H142730   1.489   0.533  15.029  0.3546  1.6689 -0.0581
 7105TIP3    H242731   1.425   0.580  15.158 -0.9151  1.0520 -0.4614
 7106TIP3   OH242732   3.554   5.665  14.994 -0.1820 -0.1410 -0.0080
 7106TIP3    H142733   3.625   5.716  15.033  0.3121 -0.8954  0.1033
 7106TIP3    H242734   3.476   5.719  15.004 -0.1181 -0.4252  2.2461
 7107TIP3   OH242735   5.373   6.514   1.342  0.5850  0.2927 -0.3610
 7107TIP3    H142736   5.303   6.575   1.364  1.4427  0.0843  3.3479
 7107TIP3    H242737   5.339   6.428   1.363  0.5748 -0.2070 -2.3512
 7108TIP3   OH242738   1.417   0.858   2.120  0.8388  0.0760  0.2103
 7108TIP3    H142739   1.402   0.902   2.204 -0.0949  1.4484 -0.6385
 7108TIP3    H242740   1.408   0.765   2.140 -0.2363  0.4240  1.4803
 7109TIP3   OH242741   6.242   0.042   1.905 -0.0269  0.2650  0.1563
 7109TIP3    H142742   6.301  -0.033   1.896  0.1278  0.3601  0.3614
 7109TIP3    H242743   6.284   0.097   1.971  0.4865  1.1306 -0.8709
 7110TIP3   OH242744   4.432   3.630   4.574  0.4365  0.1495  0.4273
 7110TIP3    H142745   4.404   3.541   4.595  0.1656  0.3335  0.8774
 7110TIP3    H242746   4.356   3.669   4.532  0.8468 -0.0936 -0.5418
 7111TIP3   OH242747   4.538   2.906   5.839  0.1490 -0.3886  0.8041
 7111TIP3    H142748   4.583   2.908   5.755 -0.1737 -0.8340  0.6190
 7111TIP3    H242749   4.471   2.975   5.832 -0.1470 -0.7024  0.5449
 7112TIP3   OH242750   1.336   4.142   4.704  0.4067  0.2468  0.3497
 7112TIP3    H142751   1.431   4.146   4.698  0.4463 -0.9297  0.0244
 7112TIP3    H242752   1.318   4.055   4.739 -0.5849  0.0038 -0.7100
 7113TIP3   OH242753   1.327   1.103  11.537  0.0699  0.3550 -0.7201
 7113TIP3    H142754   1.251   1.081  11.592  2.2139  0.4491  2.4433
 7113TIP3    H242755   1.329   1.198  11.536 -0.9083  0.3841 -2.4212
 7114TIP3   OH242756   4.449   0.936  17.220  0.3651  0.2139  0.0781
 7114TIP3    H142757   4.489   0.926  17.306  0.2339 -0.9482  0.0147
 7114TIP3    H242758   4.372   0.991  17.235  0.2028 -0.1912  0.7427
 7115TIP3   OH242759   5.976   4.777  12.971  0.0990  0.2842  0.0622
 7115TIP3    H142760   5.909   4.734  12.919  1.4214 -1.2454 -0.4200
 7115TIP3    H242761   6.041   4.807  12.907  1.4004 -1.0173  0.7417
 7116TIP3   OH242762   2.408   6.692  13.469  0.0154  0.3121  0.3278
 7116TIP3    H142763   2.460   6.661  13.543  0.6438  0.2021 -0.1445
 7116TIP3    H242764   2.461   6.668  13.392  0.0620  1.7078 -0.0924
 7117TIP3   OH242765   3.366   0.292  12.779 -0.3555 -0.2644 -0.9366
 7117TIP3    H142766   3.414   0.317  12.858 -0.3865 -0.4957 -0.8443
 7117TIP3    H242767   3.343   0.200  12.794 -0.6700 -0.2059 -1.0586
 7118TIP3   OH242768   3.075   5.971  11.741 -0.6193 -0.2779 -0.6803
 7118TIP3    H142769   3.075   6.015  11.656  1.4134  2.9297  0.8995
 7118TIP3    H242770   3.014   6.022  11.794  1.0156  0.0783  0.8833
 7119TIP3   OH242771   3.970   0.080   2.514 -0.0478 -0.4361 -1.0755
 7119TIP3    H142772   3.910   0.154   2.502 -0.2911 -0.0295  2.3719
 7119TIP3    H242773   4.005   0.091   2.602  1.2263 -3.5237 -1.1418
 7120TIP3   OH242774   3.732   6.551  12.172  0.2945 -0.6675 -0.0426
 7120TIP3    H142775   3.772   6.485  12.228  0.5749 -0.3338  0.1503
 7120TIP3    H242776   3.709   6.623  12.232 -0.6036 -0.8607 -0.1478
 7121TIP3   OH242777   1.257   4.523  12.890  0.4556 -0.3292 -0.2263
 7121TIP3    H142778   1.217   4.440  12.862  0.6865 -0.9038  1.0984
 7121TIP3    H242779   1.183   4.581  12.905  0.0924 -1.2495  1.7641
 7122TIP3   OH242780   5.492   4.764   3.715  0.3287  0.3401  0.3323
 7122TIP3    H142781   5.556   4.707   3.674 -1.3754 -1.4261  0.0493
 7122TIP3    H242782   5.437   4.795   3.643  0.8880  1.8862  0.5587
 7123TIP3   OH242783   6.510   2.056   1.672 -0.6990  0.3381  0.1027
 7123TIP3    H142784   6.448   2.097   1.733 -1.0537 -0.2113  0.1086
 7123TIP3    H242785   6.500   1.962   1.686  0.3321  0.2477  0.2946
 7124TIP3   OH242786   5.249   3.192  10.311 -0.1429  0.5636  0.2077
 7124TIP3    H142787   5.277   3.258  10.375  0.3115  1.1351 -0.5748
 7124TIP3    H242788   5.251   3.238  10.227  0.6928 -0.6124 -0.4121
 7125TIP3   OH242789   5.872   2.693   3.568  0.4150 -0.1639  0.3135
 7125TIP3    H142790   5.805   2.643   3.615 -0.7211  1.2779  0.2458
 7125TIP3    H242791   5.825   2.766   3.529  1.5356 -0.7064 -2.1528
 7126TIP3   OH242792   0.433   3.995  12.427  0.0182  0.2721  0.4065
 7126TIP3    H142793   0.418   3.900  12.436 -1.4624  0.2256 -2.1354
 7126TIP3    H242794   0.450   4.024  12.517  0.0893 -2.3264  1.3059
 7127TIP3   OH242795   1.676   0.617   2.441 -0.4341 -0.3414  0.2956
 7127TIP3    H142796   1.761   0.589   2.475 -1.0383  0.5838  2.6842
 7127TIP3    H242797   1.639   0.538   2.401  1.7582 -0.6037 -1.2637
 7128TIP3   OH242798   5.416   5.753  12.141 -0.0268  0.3770 -0.1678
 7128TIP3    H142799   5.369   5.715  12.067  0.8887  0.6612 -0.9074
 7128TIP3    H242800   5.455   5.834  12.106  0.4683  0.4789  0.5999
 7129TIP3   OH242801   0.670   2.716  15.598  0.3326  0.0314 -0.3391
 7129TIP3    H142802   0.663   2.773  15.674  0.2122  0.2033 -0.4778
 7129TIP3    H242803   0.597   2.742  15.541  0.7265  0.2537 -0.7470
 7130TIP3   OH242804   5.213   2.747   3.387 -0.5189 -0.0388 -0.3878
 7130TIP3    H142805   5.289   2.798   3.417  0.1442 -2.3053  2.0580
 7130TIP3    H242806   5.250   2.684   3.325 -0.6806 -0.1116 -0.4094
 7131TIP3   OH242807   4.178   0.429   0.674  0.4040  0.2023  0.1597
 7131TIP3    H142808   4.173   0.523   0.659  0.6728  0.3358  0.8699
 7131TIP3    H242809   4.217   0.394   0.594  2.7666  1.0122  0.9252
 7132TIP3   OH242810   3.724   6.707  12.667 -0.2647 -0.1630 -0.3583
 7132TIP3    H142811   3.634   6.742  12.668  0.1672  1.0193  3.4388
 7132TIP3    H242812   3.777   6.781  12.638 -0.1823  0.1332  0.5276
 7133TIP3   OH242813   4.795   5.903   4.023  0.0135 -0.0042  0.7752
 7133TIP3    H142814   4.840   5.987   4.036  1.1494 -0.6049  0.7654
 7133TIP3    H242815   4.824   5.873   3.937 -1.9320  0.5249 -0.0917
 7134TIP3   OH242816   4.809   5.961   5.144  0.6687  0.1020  0.8056
 7134TIP3    H142817   4.730   5.956   5.090  1.2856 -1.8033  0.0291
 7134TIP3    H242818   4.838   6.052   5.135 -1.0501  0.6490  0.5572
 7135TIP3   OH242819   1.160   6.208   0.486  0.1293 -0.2175  0.1850
 7135TIP3    H142820   1.196   6.291   0.455 -1.2352  0.6974  0.9725
 7135TIP3    H242821   1.209   6.141   0.439  0.6834  1.0534 -1.0784
 7136TIP3   OH242822   5.699   0.505   4.345  0.2889 -0.7075  0.1530
 7136TIP3    H142823   5.630   0.559   4.385  0.2802  0.0633 -0.8879
 7136TIP3    H242824   5.737   0.457   4.418 -0.4086 -0.0775  0.9412
 7137TIP3   OH242825   2.467   5.615   1.429  0.1155  0.4332  0.1247
 7137TIP3    H142826   2.403   5.546   1.445 -2.5509  2.3262 -1.8024
 7137TIP3    H242827   2.543   5.570   1.391 -1.0915 -1.5673  0.0265
 7138TIP3   OH242828   4.407   0.772  15.361  0.2572  0.7554 -0.2380
 7138TIP3    H142829   4.474   0.791  15.295  0.3224 -0.0937 -0.4297
 7138TIP3    H242830   4.354   0.851  15.365  0.4679  0.9461 -1.0608
 7139TIP3   OH242831   1.853   5.476   4.618  0.8138 -0.0860  0.0606
 7139TIP3    H142832   1.826   5.517   4.536 -0.8857  1.1128  1.1667
 7139TIP3    H242833   1.944   5.501   4.630  0.1444  2.4664  0.1177
 7140TIP3   OH242834   2.486   3.807   4.155 -0.1590 -0.2454  0.0922
 7140TIP3    H142835   2.444   3.875   4.102 -0.0457  0.0023  0.3184
 7140TIP3    H242836   2.512   3.740   4.092 -2.1976 -1.0842  0.1083
 7141TIP3   OH242837   4.689   4.466  16.734 -0.1258  0.1072 -0.0260
 7141TIP3    H142838   4.604   4.495  16.701 -0.5288  0.6747  1.4562
 7141TIP3    H242839   4.735   4.547  16.757  0.2773 -0.2450  0.4393
 7142TIP3   OH242840   4.530   0.341   1.708  0.3444  0.1284 -0.3399
 7142TIP3    H142841   4.562   0.365   1.795  2.2932 -2.5176 -0.2691
 7142TIP3    H242842   4.436   0.357   1.712  0.2822 -0.6734  2.5116
 7143TIP3   OH242843   5.359   3.837  14.511 -0.1929 -0.0765  0.5717
 7143TIP3    H142844   5.302   3.769  14.549  0.8597 -0.2728  1.8239
 7143TIP3    H242845   5.331   3.918  14.554 -0.1261 -0.0292  0.5265
 7144TIP3   OH242846   3.180   4.197  15.107 -0.0736 -0.2630 -0.2282
 7144TIP3    H142847   3.138   4.241  15.181 -0.9548 -0.5105 -0.5755
 7144TIP3    H242848   3.197   4.266  15.044  1.7372  0.1388  0.6791
 7145TIP3   OH242849   0.761   2.420   2.835  0.2492  0.7570 -0.1983
 7145TIP3    H142850   0.766   2.466   2.918  0.2894  0.1762  0.1269
 7145TIP3    H242851   0.797   2.333   2.854 -0.4712  0.3588 -0.6351
 7146TIP3   OH242852   3.105   3.082   4.030  0.2559 -0.4380  0.8358
 7146TIP3    H142853   3.161   3.015   3.991  0.2886 -0.9738  1.7912
 7146TIP3    H242854   3.031   3.033   4.066 -0.5417  0.2065  0.0933
 7147TIP3   OH242855   2.385   2.501   6.613 -0.6981  0.4816 -0.1759
 7147TIP3    H142856   2.382   2.405   6.609  1.1329  0.3220  1.7797
 7147TIP3    H242857   2.476   2.523   6.594 -1.0059  1.8341 -0.1362
 7148TIP3   OH242858   5.485   2.684  13.028 -0.4984  0.2574  0.0045
 7148TIP3    H142859   5.408   2.722  12.987 -0.7147  2.6980  2.5445
 7148TIP3    H242860   5.451   2.620  13.091 -0.4003  0.3925  0.1958
 7149TIP3   OH242861   5.878   3.091  16.045  0.2525  0.3301 -0.4581
 7149TIP3    H142862   5.885   3.063  16.137 -0.2312  1.5763 -0.0239
 7149TIP3    H242863   5.968   3.117  16.022 -0.0569  2.2893  0.4403
 7150TIP3   OH242864   4.264   5.872   1.432  0.6571  0.1488 -0.0381
 7150TIP3    H142865   4.306   5.870   1.345 -1.7853  2.1265 -1.3241
 7150TIP3    H242866   4.331   5.838   1.491  2.4517 -1.1109 -2.6694
 7151TIP3   OH242867   1.000   4.151  16.351 -0.0802  0.0721 -0.2544
 7151TIP3    H142868   0.987   4.066  16.392  1.2408 -0.1061 -0.1953
 7151TIP3    H242869   0.912   4.180  16.327 -0.6254 -0.8739  0.5903
 7152TIP3   OH242870   5.222   3.833  15.524  0.1810  0.4966  0.1971
 7152TIP3    H142871   5.211   3.917  15.479  2.0363  1.3138  1.2067
 7152TIP3    H242872   5.138   3.817  15.566 -0.4144  1.4901 -0.5942
 7153TIP3   OH242873   1.653   6.035  11.158  0.0076  0.3036  0.1417
 7153TIP3    H142874   1.633   6.104  11.221 -1.7996  0.9054 -1.0919
 7153TIP3    H242875   1.706   6.078  11.091  1.4311 -0.2102  0.8986
 7154TIP3   OH242876   3.943   1.949   5.044  1.0184  0.7391  0.0581
 7154TIP3    H142877   3.985   1.952   4.958  2.0960  0.5548  0.5634
 7154TIP3    H242878   3.949   2.039   5.077  2.0707  0.4834  0.6081
 7155TIP3   OH242879   2.321   0.931  13.819  0.1008 -0.4311  0.0907
 7155TIP3    H142880   2.340   0.838  13.828  2.4176  0.0009  0.0779
 7155TIP3    H242881   2.395   0.974  13.862 -0.7955  1.4099 -0.1698
 7156TIP3   OH242882   5.267   6.236  15.785 -0.2217 -0.0719  0.2090
 7156TIP3    H142883   5.322   6.299  15.831 -1.8214  2.1264 -0.7675
 7156TIP3    H242884   5.243   6.172  15.851  1.0044  0.6522  1.3780
 7157TIP3   OH242885   4.556   4.395   5.996 -0.7576  0.3617  0.2440
 7157TIP3    H142886   4.498   4.339   5.944 -0.9954  0.5799  0.2725
 7157TIP3    H242887   4.527   4.484   5.976  0.3779  0.5359 -0.7170
 7158TIP3   OH242888   0.410   6.288   4.200 -0.0416 -0.2500 -0.1475
 7158TIP3    H142889   0.454   6.254   4.122  1.2681  0.2791  0.3553
 7158TIP3    H242890   0.319   6.261   4.189 -0.2642  1.4468 -2.7923
 7159TIP3   OH242891   2.427   2.204  15.994  0.6607  0.3953  0.5434
 7159TIP3    H142892   2.396   2.165  15.913 -0.1011  2.5053 -0.2199
 7159TIP3    H242893   2.443   2.130  16.052 -0.5041 -1.0367 -0.9240
 7160TIP3   OH242894   3.590   0.733   4.327 -0.4338 -0.4798  0.4576
 7160TIP3    H142895   3.653   0.696   4.390 -0.1020 -1.7989 -0.6424
 7160TIP3    H242896   3.574   0.663   4.265 -1.1512  0.6655 -0.6632
 7161TIP3   OH242897   2.737   5.595   4.022 -0.0919  0.0719  0.0282
 7161TIP3    H142898   2.707   5.617   3.934 -2.6149 -0.5088  0.7076
 7161TIP3    H242899   2.792   5.669   4.048 -0.2822  0.7909 -1.5713
 7162TIP3   OH242900   2.543   3.041   2.851 -0.1945 -0.2815  0.1700
 7162TIP3    H142901   2.462   3.080   2.883  0.0497  1.5481 -1.3744
 7162TIP3    H242902   2.590   3.016   2.930 -1.6140 -0.0243  1.1136
 7163TIP3   OH242903   0.530   1.650  11.409 -0.3220  0.2563  0.0368
 7163TIP3    H142904   0.576   1.679  11.487 -0.3947  1.8421 -0.4891
 7163TIP3    H242905   0.440   1.680  11.421 -0.3284  0.5316 -0.6531
 7164TIP3   OH242906   0.109   4.373  11.197  0.7680 -0.2977  0.3135
 7164TIP3    H142907   0.187   4.427  11.207  0.4028  0.1666  0.6555
 7164TIP3    H242908   0.140   4.294  11.153  1.8999 -1.1767  2.6244
 7165TIP3   OH242909   3.223   1.301  12.933  0.5132  0.4897  0.1784
 7165TIP3    H142910   3.312   1.266  12.933 -0.3746 -1.8600  0.2106
 7165TIP3    H242911   3.172   1.237  12.882 -1.5167  0.7936  1.7553
 7166TIP3   OH242912   0.178   3.742   4.189  0.0968  0.2766 -0.5239
 7166TIP3    H142913   0.257   3.706   4.229 -1.5323 -1.9760  0.7646
 7166TIP3    H242914   0.158   3.819   4.242  0.8466  0.2418 -0.1821
 7167TIP3   OH242915   1.280   0.112   0.147  0.3480  0.5913  0.6496
 7167TIP3    H142916   1.247   0.052   0.213  2.8150  0.8636  2.1868
 7167TIP3    H242917   1.354   0.065   0.107 -0.6995  0.6920 -1.4620
 7168TIP3   OH242918   6.615   4.090   4.182 -0.0595 -0.5200  0.2527
 7168TIP3    H142919   6.589   4.036   4.256 -1.4863 -1.7965 -1.1238
 7168TIP3    H242920   6.575   4.175   4.199  0.6721 -0.4186  1.5396
 7169TIP3   OH242921   6.628   2.345  14.929  0.2660 -0.0135  0.3377
 7169TIP3    H142922   6.656   2.435  14.912 -1.3996  0.3967 -0.4052
 7169TIP3    H242923   6.532   2.348  14.919  0.2698 -2.0599 -0.6555
 7170TIP3   OH242924   6.058   0.708   3.337 -0.1924  0.5096 -0.3306
 7170TIP3    H142925   6.126   0.719   3.404  0.4291  1.0278 -1.0281
 7170TIP3    H242926   5.987   0.766   3.365 -0.6340 -0.5296  0.7526
 7171TIP3   OH242927   6.275   1.532   4.929  0.1772  0.2337 -0.1222
 7171TIP3    H142928   6.273   1.602   4.864  1.4528  2.0724  1.7654
 7171TIP3    H242929   6.313   1.457   4.882 -0.2744  1.0801 -1.8849
 7172TIP3   OH242930   2.915   2.378  12.829 -0.6810 -0.4078  0.9497
 7172TIP3    H142931   2.937   2.286  12.820  0.1756 -0.0464 -0.9555
 7172TIP3    H242932   3.000   2.421  12.842 -0.9543  0.2377  0.6036
 7173TIP3   OH242933   2.287   1.474  15.782  1.0588  0.5739 -0.5771
 7173TIP3    H142934   2.264   1.384  15.759  2.0183  0.1473  0.1054
 7173TIP3    H242935   2.378   1.484  15.753  0.8897  1.4037 -0.8572
 7174TIP3   OH242936   5.571   0.061  12.958  0.0596 -0.3561 -0.7029
 7174TIP3    H142937   5.662   0.089  12.957 -0.3339  1.0097  0.0952
 7174TIP3    H242938   5.530   0.115  13.026 -0.8179 -2.6252  0.6418
 7175TIP3   OH242939   4.983   6.548  14.089  0.5107  0.4806 -0.5915
 7175TIP3    H142940   4.904   6.601  14.100  1.3638  1.7792 -0.6076
 7175TIP3    H242941   4.996   6.506  14.174 -1.0976 -1.0173 -1.0726
 7176TIP3   OH242942   2.271   0.279  14.326  0.5051  0.5259 -0.1422
 7176TIP3    H142943   2.182   0.246  14.316  0.5678  0.8269 -1.9366
 7176TIP3    H242944   2.275   0.314  14.415 -0.2280 -2.2795  1.0342
 7177TIP3   OH242945   2.404   1.752  16.064  0.4913  0.1861 -0.1092
 7177TIP3    H142946   2.470   1.786  16.004 -0.5460 -0.8171 -1.8529
 7177TIP3    H242947   2.440   1.668  16.092  0.9391  0.6191  0.6395
 7178TIP3   OH242948   4.011   4.069   5.990  0.3540  0.0256 -0.2042
 7178TIP3    H142949   4.061   3.996   6.026  0.6632  0.2280 -0.2319
 7178TIP3    H242950   3.921   4.036   5.988  0.6914 -0.8875 -1.5444
 7179TIP3   OH242951   3.899   2.583   1.731  0.3012  0.2562  0.1981
 7179TIP3    H142952   3.978   2.636   1.739  1.0650 -1.2008  2.8375
 7179TIP3    H242953   3.856   2.591   1.816 -0.2894 -2.2417  0.1627
 7180TIP3   OH242954   1.601   0.236  10.764  0.0594 -0.6854 -0.2692
 7180TIP3    H142955   1.649   0.242  10.847  1.4226  2.9666 -1.2320
 7180TIP3    H242956   1.656   0.281  10.701 -2.7935  0.0595 -2.3206
 7181TIP3   OH242957   6.107   6.322   4.358  0.1609  0.0571 -0.7994
 7181TIP3    H142958   6.030   6.314   4.414  0.7357  2.0269  0.3194
 7181TIP3    H242959   6.167   6.254   4.390 -0.1285  0.1581 -0.0362
 7182TIP3   OH242960   1.493   5.667   4.154 -0.0495  0.2577  0.2160
 7182TIP3    H142961   1.497   5.615   4.074 -1.9599  0.5559 -0.0989
 7182TIP3    H242962   1.468   5.604   4.222 -0.7634  0.4400  0.1299
 7183TIP3   OH242963   4.960   0.727   3.174  0.0094 -0.0088  0.1011
 7183TIP3    H142964   4.905   0.793   3.133 -1.8552 -1.2003  0.6254
 7183TIP3    H242965   4.917   0.708   3.258  2.2076  0.3482  1.3618
 7184TIP3   OH242966   4.575   2.964   1.272  0.1418  0.0997  0.3861
 7184TIP3    H142967   4.653   2.949   1.326 -0.0470  1.1129  0.9625
 7184TIP3    H242968   4.515   2.894   1.297  0.0436  0.5753  1.5480
 7185TIP3   OH242969   3.160   1.060   5.893 -0.6339 -0.4181  0.4678
 7185TIP3    H142970   3.085   1.105   5.854 -0.1042  1.3286  1.3963
 7185TIP3    H242971   3.131   0.969   5.901 -2.4598  0.1133  0.3318
 7186TIP3   OH242972   5.802   1.831  13.653  0.2683  0.2438 -0.3494
 7186TIP3    H142973   5.729   1.890  13.633 -0.6466 -0.8869 -0.4215
 7186TIP3    H242974   5.876   1.889  13.668 -0.5393  1.3996 -0.7237
 7187TIP3   OH242975   6.700   0.862   1.103 -0.2264 -0.2308  0.1314
 7187TIP3    H142976   6.709   0.828   1.014 -0.1666 -1.7430  0.7049
 7187TIP3    H242977   6.722   0.788   1.160  0.5735  0.9490  1.4051
 7188TIP3   OH242978   5.082   4.610   1.275  0.5806 -0.1031 -0.7802
 7188TIP3    H142979   5.000   4.652   1.299  1.4175  1.5965 -0.8020
 7188TIP3    H242980   5.058   4.520   1.253 -0.9260 -0.3069  1.5551
 7189TIP3   OH242981   6.786   1.174  15.505 -0.8202  0.7306 -0.4988
 7189TIP3    H142982   6.739   1.113  15.449 -1.1641  1.1043 -0.6163
 7189TIP3    H242983   6.761   1.150  15.594 -2.2592  1.7749 -0.6167
 7190TIP3   OH242984   4.896   3.449   3.135  0.2857 -0.1069 -0.1624
 7190TIP3    H142985   4.888   3.526   3.192 -1.2169 -2.1187  2.4319
 7190TIP3    H242986   4.815   3.448   3.084 -0.3940 -0.7718  0.8977
 7191TIP3   OH242987   4.256   2.888  11.500  0.4288  0.2104 -0.0283
 7191TIP3    H142988   4.235   2.804  11.542  1.7332  0.3272  0.9002
 7191TIP3    H242989   4.253   2.951  11.572  2.5820  0.4359 -0.1158
 7192TIP3   OH242990   0.511   3.000  13.531 -0.1347  0.1516 -0.2637
 7192TIP3    H142991   0.440   3.013  13.593  0.4762 -0.0281  0.4807
 7192TIP3    H242992   0.488   3.056  13.456 -0.5083  0.9289  0.4221
 7193TIP3   OH242993   5.588   5.257  15.658  0.0181 -0.1628 -0.1637
 7193TIP3    H142994   5.592   5.186  15.722 -1.5859 -0.1985 -0.0902
 7193TIP3    H242995   5.512   5.309  15.685  0.8135  1.2254 -0.5797
 7194TIP3   OH242996   3.190   2.527  17.008  0.2202 -0.2431  0.7231
 7194TIP3    H142997   3.200   2.461  17.077 -0.1322  0.9693  1.9545
 7194TIP3    H242998   3.095   2.535  16.996  0.2463  0.3957  0.9350
 7195TIP3   OH242999   0.782   1.563  16.042 -0.0505  0.1719 -0.1312
 7195TIP3    H143000   0.824   1.523  16.119  0.1753  1.0381  0.1978
 7195TIP3    H243001   0.761   1.652  16.070  0.6366  0.7046 -1.2915
 7196TIP3   OH243002   0.116   5.087  16.837  0.4786 -0.3362  0.2309
 7196TIP3    H143003   0.033   5.044  16.859  0.9298 -1.6175 -0.5768
 7196TIP3    H243004   0.096   5.181  16.843 -0.1576 -0.6133  3.3429
 7197TIP3   OH243005   4.704   4.723   0.277 -0.4440  0.8557 -0.4987
 7197TIP3    H143006   4.678   4.791   0.340  0.9144 -0.2448  1.2814
 7197TIP3    H243007   4.677   4.641   0.318 -1.8329  0.2579 -2.5255
 7198TIP3   OH243008   3.655   3.020   3.496 -0.0216 -0.1934 -0.7267
 7198TIP3    H143009   3.708   2.973   3.432 -0.1204 -0.6093 -0.5082
 7198TIP3    H243010   3.681   3.112   3.487  0.5676 -0.3657 -0.7772
 7199TIP3   OH243011   5.084   4.407  14.444  1.1045 -0.0125 -0.1290
 7199TIP3    H143012   4.990   4.414  14.465  1.2744 -0.7852  0.9214
 7199TIP3    H243013   5.090   4.327  14.392  1.2082 -0.0721 -0.0255
 7200TIP3   OH243014   0.506   1.083  14.133  0.6301 -0.5277  0.1944
 7200TIP3    H143015   0.455   1.163  14.146  0.0900 -0.9695  0.8348
 7200TIP3    H243016   0.441   1.018  14.107  0.4350 -1.7415  3.5073
 7201TIP3   OH243017   6.587   2.362   1.165  0.2321  0.8949  0.3893
 7201TIP3    H143018   6.543   2.315   1.094 -0.7780 -0.0163  1.5970
 7201TIP3    H243019   6.661   2.305   1.189 -0.2854  0.4964  1.0452
 7202TIP3   OH243020   2.798   0.104   2.016  0.1983 -0.7363  0.2030
 7202TIP3    H143021   2.839   0.182   1.978  0.4961 -0.3495  1.3062
 7202TIP3    H243022   2.817   0.034   1.953  1.3627 -0.2662  0.0144
 7203TIP3   OH243023   3.866   1.918  16.489 -0.4248  0.0655 -0.0571
 7203TIP3    H143024   3.798   1.851  16.479 -0.6185  0.1491  0.6549
 7203TIP3    H243025   3.817   2.000  16.498 -0.2741  0.0304  1.2556
 7204TIP3   OH243026   5.743   2.845   2.938  0.1274  0.0794  0.2088
 7204TIP3    H143027   5.777   2.934   2.930 -0.7828  0.4280  0.0978
 7204TIP3    H243028   5.684   2.836   2.863  2.0569 -1.4662 -1.1939
 7205TIP3   OH243029   4.183   4.678   3.703 -0.2065  0.5897 -0.0274
 7205TIP3    H143030   4.196   4.601   3.758 -0.0133  1.9584  1.8794
 7205TIP3    H243031   4.162   4.643   3.616 -1.3862 -1.5983  1.1238
 7206TIP3   OH243032   2.456   4.732   5.609 -0.4719 -0.1174  0.3936
 7206TIP3    H143033   2.550   4.748   5.608 -0.4878 -0.0134 -1.3917
 7206TIP3    H243034   2.428   4.755   5.698  0.9034  1.5563  0.4202
 7207TIP3   OH243035   2.944   2.652  15.562  0.6002  0.4484 -0.0917
 7207TIP3    H143036   2.864   2.693  15.595 -1.1421 -2.4520 -0.4895
 7207TIP3    H243037   2.942   2.668  15.468  0.2299 -0.0250 -0.1655
 7208TIP3   OH243038   0.268   3.855   2.640  1.3025 -0.7307 -0.1346
 7208TIP3    H143039   0.287   3.780   2.696 -0.3642 -0.2487  1.0985
 7208TIP3    H243040   0.330   3.923   2.668  0.9785 -0.7423  0.6230
 7209TIP3   OH243041   1.962   1.028  15.727 -0.4783  0.3497 -0.1679
 7209TIP3    H143042   1.886   1.085  15.733 -0.7939  0.5740 -4.5556
 7209TIP3    H243043   1.994   1.040  15.637  3.9323 -0.7641  1.1193
 7210TIP3   OH243044   6.087   1.867  10.722 -0.3976  0.6750  0.7444
 7210TIP3    H143045   6.172   1.895  10.755  0.9094 -1.7009 -0.4824
 7210TIP3    H243046   6.055   1.942  10.671  0.5040  1.9351  1.9971
 7211TIP3   OH243047   5.226   1.111   0.562 -0.2494 -0.0923  0.3102
 7211TIP3    H143048   5.189   1.173   0.499  2.6003  0.2213 -1.1715
 7211TIP3    H243049   5.231   1.028   0.515  2.4442  0.2795 -0.1874
 7212TIP3   OH243050   4.070   4.543  10.871  0.2769 -0.2487  0.2154
 7212TIP3    H143051   4.130   4.493  10.817  0.3346 -1.4409  1.3602
 7212TIP3    H243052   3.990   4.552  10.819  0.9810  0.2129 -0.7875
 7213TIP3   OH243053   0.899   1.753  14.246  0.4218  0.8343  0.1389
 7213TIP3    H143054   0.926   1.825  14.303 -0.8335  1.5780 -0.2015
 7213TIP3    H243055   0.978   1.733  14.194  0.7019  2.1342  0.0534
 7214TIP3   OH243056   1.505   2.989  11.563 -0.0363  0.6474 -0.0563
 7214TIP3    H143057   1.478   2.934  11.489 -2.6671  0.4745  1.0024
 7214TIP3    H243058   1.599   3.001  11.550  0.3089 -2.7181 -1.2434
 7215TIP3   OH243059   6.624   1.537  15.729  0.5184  0.1429 -0.3771
 7215TIP3    H143060   6.690   1.592  15.771 -0.4204  0.7293  0.3345
 7215TIP3    H243061   6.558   1.598  15.698  0.0318 -0.4950 -0.6064
 7216TIP3   OH243062   0.250   2.679   1.252  0.3179 -0.4087 -0.8572
 7216TIP3    H143063   0.186   2.708   1.316  2.4177  0.2171  1.0263
 7216TIP3    H243064   0.277   2.759   1.207 -0.0419 -0.6305 -1.4628
 7217TIP3   OH243065   3.192   5.687  15.243  0.9267 -0.0921  0.4509
 7217TIP3    H143066   3.217   5.736  15.166  1.6687  0.4822  1.0487
 7217TIP3    H243067   3.181   5.597  15.212 -0.3199  0.4101 -0.6217
 7218TIP3   OH243068   1.612   3.555   4.012 -0.1936 -0.3484  0.4068
 7218TIP3    H143069   1.700   3.544   4.046 -0.3737  1.5079  1.5339
 7218TIP3    H243070   1.605   3.649   3.992 -2.7848  0.0593  2.8784
 7219TIP3   OH243071   3.226   5.306  16.531  0.0161 -0.6670  0.1030
 7219TIP3    H143072   3.245   5.218  16.565  1.7683 -0.7226 -0.9488
 7219TIP3    H243073   3.261   5.305  16.442  1.5889  1.6198  0.6586
 7220TIP3   OH243074   1.664   3.110  11.268  0.2737  0.4140 -0.0815
 7220TIP3    H143075   1.702   3.181  11.319  0.1856  0.6082 -0.2852
 7220TIP3    H243076   1.728   3.095  11.198 -0.1449  0.9179 -0.5791
 7221TIP3   OH243077   3.742   6.417   0.775  0.6301 -0.4091  0.3000
 7221TIP3    H143078   3.813   6.462   0.729  2.7917 -1.8936  2.0386
 7221TIP3    H243079   3.685   6.487   0.807  0.5146  0.7495 -2.3457
 7222TIP3   OH243080   0.089   2.457   5.278 -0.5277 -0.1598  0.2435
 7222TIP3    H143081   0.041   2.420   5.203  0.0889  1.5913 -1.0616
 7222TIP3    H243082   0.026   2.515   5.320 -0.3288  0.2324  0.0060
 7223TIP3   OH243083   6.719   3.155   3.296  0.3867  0.1757  0.3870
 7223TIP3    H143084   6.716   3.245   3.328  1.0412  0.2587  0.2270
 7223TIP3    H243085   6.749   3.162   3.206  1.7957 -0.2972  0.8033
 7224TIP3   OH243086   0.913   6.710  12.701 -0.0577  0.1234  0.4835
 7224TIP3    H143087   0.913   6.803  12.679  0.4191  0.3681  1.4637
 7224TIP3    H243088   0.911   6.664  12.617 -0.5663  1.0188  0.0051
 7225TIP3   OH243089   3.809   5.435   1.901 -0.5965 -0.3824  0.3156
 7225TIP3    H143090   3.825   5.529   1.912  1.1045 -0.8828  2.3764
 7225TIP3    H243091   3.775   5.427   1.812  0.8936  1.9909 -0.5094
 7226TIP3   OH243092   6.237   2.992   5.050  0.2284 -0.0343 -0.2513
 7226TIP3    H143093   6.312   2.941   5.021  0.4700 -0.0621  0.3988
 7226TIP3    H243094   6.170   2.978   4.983  0.2972 -1.1906 -0.0882
 7227TIP3   OH243095   1.669   2.802  11.741 -0.6827 -0.2098 -0.7822
 7227TIP3    H143096   1.710   2.873  11.691  1.5921  0.7322  2.2937
 7227TIP3    H243097   1.579   2.798  11.706 -0.5441  3.4213 -1.8376
 7228TIP3   OH243098   0.440   2.126   1.536  0.1965  0.5171  0.0086
 7228TIP3    H143099   0.479   2.044   1.566 -0.6341  1.2472  3.2958
 7228TIP3    H243100   0.373   2.099   1.472 -0.0976 -1.3609  1.0899
 7229TIP3   OH243101   1.841   6.132   4.191  0.1197 -0.3853  0.4267
 7229TIP3    H143102   1.934   6.112   4.175 -0.0854  0.3401 -2.0329
 7229TIP3    H243103   1.829   6.119   4.284  2.7797 -0.2535  0.8384
 7230TIP3   OH243104   3.243   5.642   0.443  0.1106  0.2202 -0.1022
 7230TIP3    H143105   3.305   5.569   0.443  1.8326  1.5998  2.0225
 7230TIP3    H243106   3.274   5.700   0.374 -0.7619 -0.6493 -1.2309
 7231TIP3   OH243107   4.176   3.399  14.586 -0.4228 -0.5615 -0.1845
 7231TIP3    H143108   4.207   3.356  14.506 -0.7727  0.7319 -1.0346
 7231TIP3    H243109   4.103   3.454  14.557 -1.4829 -1.1651  1.2738
 7232TIP3   OH243110   0.425   1.214   5.782 -0.0599 -0.0853 -0.0266
 7232TIP3    H143111   0.473   1.231   5.701  0.7824 -2.1906  0.0063
 7232TIP3    H243112   0.493   1.193   5.847 -0.8606 -0.5706  0.6653
 7233TIP3   OH243113   4.384   1.887   1.861  0.2068  0.5328 -0.1933
 7233TIP3    H143114   4.352   1.936   1.785  0.1882  0.3006 -0.3355
 7233TIP3    H243115   4.348   1.799   1.850  0.1111  0.5292  0.1437
 7234TIP3   OH243116   0.171   0.343  12.340  0.4258  0.0177  0.2922
 7234TIP3    H143117   0.201   0.254  12.322  1.2324  0.1070  1.1530
 7234TIP3    H243118   0.084   0.332  12.379  1.7174 -0.5755  3.1239
 7235TIP3   OH243119   5.365   6.649  16.559  0.6847 -0.3363  0.0889
 7235TIP3    H143120   5.443   6.686  16.599  1.3904 -0.9475 -0.6910
 7235TIP3    H243121   5.355   6.696  16.476 -0.4998  0.6036  0.7482
 7236TIP3   OH243122   6.408   3.326   2.390 -0.0654 -0.4068  0.1259
 7236TIP3    H143123   6.495   3.292   2.413  0.2992  0.5294  0.1619
 7236TIP3    H243124   6.424   3.418   2.368 -1.2834  0.1531  1.5783
 7237TIP3   OH243125   1.685   1.554  16.377  0.0138 -0.0188 -0.7091
 7237TIP3    H143126   1.710   1.532  16.287 -0.5986  0.1865 -0.9369
 7237TIP3    H243127   1.704   1.648  16.385 -1.0602  0.2356 -1.0245
 7238TIP3   OH243128   0.554   4.042  11.961  0.4272  0.8390  0.2914
 7238TIP3    H143129   0.566   3.976  11.894 -1.0499 -1.3713  2.1094
 7238TIP3    H243130   0.636   4.041  12.011  0.0879 -0.3273  0.8624
 7239TIP3   OH243131   4.498   1.355   2.533  0.3489 -0.2917 -0.1761
 7239TIP3    H143132   4.415   1.398   2.553  0.4780  0.2073 -0.7003
 7239TIP3    H243133   4.473   1.277   2.484  0.2160  0.1621 -0.8439
 7240TIP3   OH243134   1.083   5.136   6.799 -0.0885  0.3081 -0.2229
 7240TIP3    H143135   1.089   5.093   6.884 -1.6648  1.7566  0.6548
 7240TIP3    H243136   0.998   5.179   6.800  0.7345  2.0273 -1.7451
 7241TIP3   OH243137   2.150   4.095   4.254  0.7881  0.0935 -0.1332
 7241TIP3    H143138   2.060   4.100   4.285  0.9046  0.3812  0.1679
 7241TIP3    H243139   2.195   4.165   4.302  0.3687  2.4392 -3.0458
 7242TIP3   OH243140   1.969   4.784  17.160  0.4948  0.5003  0.1942
 7242TIP3    H143141   1.971   4.809  17.253  0.8496  2.8596 -0.4116
 7242TIP3    H243142   1.902   4.842  17.121 -0.0267 -0.8345 -0.9273
 7243TIP3   OH243143   1.126   5.421   4.943  0.0481  0.1337  0.2795
 7243TIP3    H143144   1.209   5.391   4.906 -0.0609 -0.7188  0.7170
 7243TIP3    H243145   1.120   5.377   5.027 -1.6251 -1.0964 -0.4485
 7244TIP3   OH243146   5.277   3.289  10.738 -0.0752 -0.5889  0.0491
 7244TIP3    H143147   5.224   3.361  10.705  0.8316 -0.0133 -0.1936
 7244TIP3    H243148   5.269   3.221  10.672 -0.0934 -0.3034 -0.2481
 7245TIP3   OH243149   4.411   3.734  16.413 -0.5703  0.8587 -0.1678
 7245TIP3    H143150   4.337   3.685  16.451 -1.0503 -0.6266 -2.9006
 7245TIP3    H243151   4.376   3.771  16.332  1.8007 -0.1898 -1.7046
 7246TIP3   OH243152   2.823   6.106  11.010 -0.0863  0.1211 -0.3164
 7246TIP3    H143153   2.798   6.198  11.013 -0.9607 -0.1553  1.4370
 7246TIP3    H243154   2.914   6.107  10.980  0.5461  1.6944  1.5502
 7247TIP3   OH243155   4.193   5.419  13.568  0.0655  0.2112  0.2287
 7247TIP3    H143156   4.238   5.368  13.500 -1.1625 -0.9167  0.2330
 7247TIP3    H243157   4.113   5.451  13.525 -0.4205 -0.0035  0.9549
 7248TIP3   OH243158   4.154   6.520  15.431 -0.3316 -0.5496  0.0322
 7248TIP3    H143159   4.090   6.591  15.421 -2.1068 -2.2996 -1.2277
 7248TIP3    H243160   4.123   6.472  15.509  0.3234 -0.5029  0.3205
 7249TIP3   OH243161   6.426   4.748  11.176  0.2334  0.6969 -0.0945
 7249TIP3    H143162   6.426   4.784  11.088 -0.7455 -1.0644 -0.8348
 7249TIP3    H243163   6.450   4.656  11.165 -0.6464  0.2732  1.3803
 7250TIP3   OH243164   0.017   3.242   1.844 -0.0012 -0.0988 -0.9273
 7250TIP3    H143165  -0.059   3.248   1.786  0.3288 -1.6409 -1.5595
 7250TIP3    H243166   0.002   3.162   1.894  1.6173 -0.9170 -1.6989
 7251TIP3   OH243167   2.921   3.167  14.971 -0.0664 -0.3984  0.3681
 7251TIP3    H143168   2.945   3.144  15.060 -0.6700  1.6202  1.0780
 7251TIP3    H243169   3.005   3.171  14.924  0.0469 -4.2392  0.0878
 7252TIP3   OH243170   4.662   6.053  15.911  0.1331 -0.1142 -0.1616
 7252TIP3    H143171   4.701   6.114  15.848  0.0946  1.8771  1.6654
 7252TIP3    H243172   4.573   6.039  15.879  0.4278  0.1295 -1.0787
 7253TIP3   OH243173   2.873   4.657   5.130 -0.4447  0.0719 -0.4754
 7253TIP3    H143174   2.903   4.673   5.219 -2.3313 -0.6180  0.3100
 7253TIP3    H243175   2.834   4.740   5.103 -0.6414  0.0181 -0.3527
 7254TIP3   OH243176   4.937   1.525  15.200 -0.2081 -0.6585 -0.0671
 7254TIP3    H143177   4.956   1.436  15.232 -0.2959 -0.3084  0.9854
 7254TIP3    H243178   4.892   1.567  15.273 -0.2770  0.2171 -0.6102
 7255TIP3   OH243179   3.118   1.555  15.730 -0.2978 -0.4128  0.0548
 7255TIP3    H143180   3.154   1.554  15.819 -0.5865 -0.9437  0.1642
 7255TIP3    H243181   3.023   1.551  15.742 -0.2837 -2.0063 -0.3131
 7256TIP3   OH243182   3.264   4.092  12.064  0.7520  0.0551 -0.1330
 7256TIP3    H143183   3.236   4.121  12.150  2.7928  0.0064  0.5891
 7256TIP3    H243184   3.297   4.171  12.021  1.8255 -0.2992  0.0076
 7257TIP3   OH243185   3.911   3.190   3.090 -0.5277 -0.7310 -0.3638
 7257TIP3    H143186   3.860   3.232   3.159 -0.5898  1.4409 -1.6921
 7257TIP3    H243187   3.998   3.178   3.127 -0.9275 -0.8161  0.5427
 7258TIP3   OH243188   0.121   1.121  10.472  0.2382  0.0431  0.4521
 7258TIP3    H143189   0.179   1.060  10.425  0.0776  0.3077 -0.0894
 7258TIP3    H243190   0.033   1.085  10.459 -0.1155  1.5748 -1.7487
 7259TIP3   OH243191   2.254   2.566  16.331  0.0749 -0.1284 -0.5922
 7259TIP3    H143192   2.167   2.576  16.292  0.1557 -0.6569 -0.9063
 7259TIP3    H243193   2.297   2.499  16.278  0.1694 -0.8931  0.4386
 7260TIP3   OH243194   4.687   1.360  16.583 -0.2002  0.3100 -0.2687
 7260TIP3    H143195   4.617   1.402  16.632 -0.5663 -0.8097  0.1862
 7260TIP3    H243196   4.670   1.266  16.593  0.7362  0.0503 -1.0635
 7261TIP3   OH243197   1.636   0.381   5.452 -0.0601  0.1003 -0.1588
 7261TIP3    H143198   1.677   0.428   5.524 -0.8805 -0.0364  0.4102
 7261TIP3    H243199   1.594   0.449   5.400  2.2289  0.4102 -1.6513
 7262TIP3   OH243200   2.547   6.666  16.286  0.4311 -0.2352  0.4593
 7262TIP3    H143201   2.534   6.717  16.366 -0.1946  1.7979 -0.8831
 7262TIP3    H243202   2.465   6.618  16.274  0.7823 -1.0878  1.3832
 7263TIP3   OH243203   0.237   5.450  11.456  0.3099  0.1688  0.8352
 7263TIP3    H143204   0.320   5.492  11.481 -0.0976  1.5462 -0.0537
 7263TIP3    H243205   0.231   5.373  11.513  2.1332  0.1206  1.0012
 7264TIP3   OH243206   0.502   2.325   3.003  0.3089 -0.1062  0.2081
 7264TIP3    H143207   0.471   2.312   3.093  1.5470  0.8919  0.7872
 7264TIP3    H243208   0.507   2.237   2.966 -1.9551 -0.3993  0.5106
 7265TIP3   OH243209   0.379   3.278  10.610  0.2617 -0.1083  0.1933
 7265TIP3    H143210   0.344   3.321  10.532  0.7426 -0.8479 -0.4285
 7265TIP3    H243211   0.337   3.324  10.683 -1.3502 -0.4065 -0.5254
 7266TIP3   OH243212   6.740   4.197   1.701  0.2067 -0.4189  0.0400
 7266TIP3    H143213   6.717   4.256   1.629 -0.0368 -1.3773 -0.6723
 7266TIP3    H243214   6.683   4.121   1.689  1.1456 -1.1869  0.4436
 7267TIP3   OH243215   6.725   1.515   3.421 -0.6286  0.0277  0.0138
 7267TIP3    H143216   6.772   1.492   3.341  2.7030  1.8048  1.3720
 7267TIP3    H243217   6.748   1.446   3.483 -1.4239 -0.1585  0.1074
 7268TIP3   OH243218   4.216   0.438  16.493 -0.0141  0.0832  0.2161
 7268TIP3    H143219   4.180   0.358  16.531  1.4356 -1.1020 -0.8307
 7268TIP3    H243220   4.240   0.414  16.403  0.8837  1.5455  0.0350
 7269TIP3   OH243221   6.341   2.961  15.505  0.6669 -0.1259 -0.0035
 7269TIP3    H143222   6.357   3.042  15.455  0.3561 -0.0373  0.0439
 7269TIP3    H243223   6.304   2.900  15.441  3.3117 -1.1005 -0.6912
 7270TIP3   OH243224   3.943   0.796   4.535 -0.1698 -0.0902  0.3855
 7270TIP3    H143225   3.854   0.826   4.550 -0.3652 -1.4970  2.1732
 7270TIP3    H243226   3.963   0.823   4.446 -2.0226  1.1159  0.3204
 7271TIP3   OH243227   6.536   1.361   6.242 -0.3262 -0.0415 -0.0236
 7271TIP3    H143228   6.464   1.341   6.301 -0.6663 -0.3881 -0.5551
 7271TIP3    H243229   6.525   1.301   6.169  2.5192 -2.5985  1.5031
 7272TIP3   OH243230   3.134   4.215  14.347 -0.1767 -0.4866  0.1162
 7272TIP3    H143231   3.064   4.207  14.283  0.4296 -0.4867 -0.5619
 7272TIP3    H243232   3.214   4.210  14.295  0.3252 -0.5386  0.8841
 7273TIP3   OH243233   0.020   5.714   4.522  0.2873  0.0927  0.1918
 7273TIP3    H143234   0.036   5.641   4.582 -0.8527  0.3926  0.8791
 7273TIP3    H243235  -0.070   5.740   4.540 -0.3030 -0.2607 -2.1659
 7274TIP3   OH243236   2.491   2.668   3.667  0.1540  0.0786 -0.2057
 7274TIP3    H143237   2.434   2.714   3.728 -1.5811 -0.9513 -1.0019
 7274TIP3    H243238   2.431   2.616   3.614  1.7766 -0.3045 -1.6898
 7275TIP3   OH243239   6.057   5.829  14.171  0.1314  0.0155 -0.4156
 7275TIP3    H143240   6.121   5.765  14.203 -1.3051 -0.9436  0.5901
 7275TIP3    H243241   6.019   5.866  14.250  1.0780  2.2774 -0.9912
 7276TIP3   OH243242   6.263   4.121   4.483 -1.3399  0.0735  0.2995
 7276TIP3    H143243   6.208   4.186   4.440  1.9510  1.6522 -1.7598
 7276TIP3    H243244   6.253   4.140   4.577 -1.5588  2.6290 -0.2129
 7277TIP3   OH243245   6.231   2.917  11.993  0.1980 -0.3642 -0.4132
 7277TIP3    H143246   6.246   3.012  11.998  1.4628 -0.5472 -0.4593
 7277TIP3    H243247   6.153   2.902  12.047 -0.8112  0.8683 -1.4904
 7278TIP3   OH243248   2.956   6.492  14.096 -0.1252 -0.1118  0.3997
 7278TIP3    H143249   2.936   6.561  14.033  1.0651 -0.1986 -0.0999
 7278TIP3    H243250   3.051   6.498  14.108 -0.1588 -0.9758  1.1581
 7279TIP3   OH243251   4.868   2.174  15.514 -0.0899 -0.3883 -0.4805
 7279TIP3    H143252   4.840   2.084  15.535  2.3846 -0.8217  1.1525
 7279TIP3    H243253   4.790   2.227  15.531 -0.1796 -1.5849  3.6668
 7280TIP3   OH243254   5.455   0.496  15.687  0.3710  0.1004 -0.0238
 7280TIP3    H143255   5.485   0.417  15.641 -0.5764  0.9266 -2.1207
 7280TIP3    H243256   5.523   0.512  15.753  1.6574 -1.2466 -0.9657
 7281TIP3   OH243257   1.334   3.803   2.760  0.2617  0.0948  0.6158
 7281TIP3    H143258   1.383   3.787   2.841 -0.5788 -1.5115  0.8216
 7281TIP3    H243259   1.365   3.889   2.731  0.3235  0.8825  2.8365
 7282TIP3   OH243260   0.154   4.102   0.249  0.7267 -0.3183  0.3267
 7282TIP3    H143261   0.188   4.015   0.231  0.5227 -0.2389 -0.4582
 7282TIP3    H243262   0.232   4.157   0.260  0.8798 -0.0470 -1.9006
 7283TIP3   OH243263   4.395   1.500  16.418 -0.8124  0.2945  0.4203
 7283TIP3    H143264   4.488   1.476  16.425 -0.7544  0.4912  0.3371
 7283TIP3    H243265   4.389   1.584  16.465 -0.8669  0.4864  0.0705
 7284TIP3   OH243266   6.254   6.453   2.959 -0.5252 -0.0246 -0.1975
 7284TIP3    H143267   6.228   6.523   2.899 -0.4543  1.5750  1.5909
 7284TIP3    H243268   6.348   6.441   2.943 -0.7416 -0.4044 -1.2014
 7285TIP3   OH243269   6.698   5.608  14.021 -0.0781 -0.0677  0.7491
 7285TIP3    H143270   6.660   5.534  13.973 -0.6850  0.2703  0.7100
 7285TIP3    H243271   6.705   5.678  13.956  2.4184 -0.7262  0.2567
 7286TIP3   OH243272   4.025   6.542   4.720  0.1173 -0.7471  0.0129
 7286TIP3    H143273   4.084   6.473   4.690  0.6369 -0.6541  0.8156
 7286TIP3    H243274   4.062   6.623   4.687  0.2204 -0.7283  0.1744
 7287TIP3   OH243275   1.608   1.408   3.994 -0.2402  0.0506 -0.6818
 7287TIP3    H143276   1.585   1.496   3.964  0.8996 -0.3271 -2.7693
 7287TIP3    H243277   1.699   1.396   3.967  0.1671 -1.1557  1.0871
 7288TIP3   OH243278   6.066   5.453  14.042 -0.0112 -0.0175 -0.0548
 7288TIP3    H143279   5.983   5.430  14.082  0.5580 -1.4832  0.3078
 7288TIP3    H243280   6.069   5.549  14.047 -1.0950 -0.0288  1.0811
 7289TIP3   OH243281   0.172   6.163  13.793 -0.4245  0.5780  0.0892
 7289TIP3    H143282   0.102   6.214  13.833 -0.1546  0.7787  0.3054
 7289TIP3    H243283   0.208   6.220  13.725 -0.6450  0.3728 -0.2069
 7290TIP3   OH243284   4.638   4.902  11.542  0.5313 -0.2156  0.1049
 7290TIP3    H143285   4.588   4.894  11.623 -0.5505  0.4863 -0.4877
 7290TIP3    H243286   4.613   4.825  11.491  0.2238  0.0192 -0.0990
 7291TIP3   OH243287   3.086   3.257   5.442  0.2048  0.1178 -0.0828
 7291TIP3    H143288   3.077   3.282   5.350  1.3096 -1.7473 -0.7162
 7291TIP3    H243289   3.179   3.267   5.460  0.2225 -0.9654  0.4167
 7292TIP3   OH243290   4.086   5.179  16.420 -0.1686 -0.5170 -0.0152
 7292TIP3    H143291   4.124   5.096  16.449  0.6178 -0.6261 -1.3310
 7292TIP3    H243292   4.153   5.218  16.364 -1.5031 -0.1325 -1.3637
 7293TIP3   OH243293   4.331   6.277  14.635  0.5263  0.1213 -0.1288
 7293TIP3    H143294   4.242   6.311  14.638  0.1865 -0.6080 -1.2665
 7293TIP3    H243295   4.325   6.189  14.673  0.9043  0.3776  0.5131
 7294TIP3   OH243296   2.195   1.742  15.739 -0.8659  0.2912 -0.8697
 7294TIP3    H143297   2.209   1.674  15.805 -0.9105 -0.3903 -1.5479
 7294TIP3    H243298   2.271   1.734  15.681 -0.4062  1.4319 -0.4469
 7295TIP3   OH243299   1.663   5.663   3.464  0.1767  0.0670 -0.3931
 7295TIP3    H143300   1.688   5.601   3.395  1.3128  0.7648 -0.6302
 7295TIP3    H243301   1.627   5.738   3.416  1.7369  0.9024 -0.2874
 7296TIP3   OH243302   6.780   2.939  10.518 -0.0541 -0.0934 -0.0337
 7296TIP3    H143303   6.727   2.966  10.442  1.2109  1.3913 -0.4195
 7296TIP3    H243304   6.718   2.937  10.591 -1.3902 -2.0185 -1.1754
 7297TIP3   OH243305   0.055   2.274   6.674 -0.0793 -0.2999  0.5104
 7297TIP3    H143306   0.098   2.358   6.656  2.5272 -1.3219  1.5905
 7297TIP3    H243307   0.113   2.231   6.737 -1.9303 -2.4584  0.8086
 7298TIP3   OH243308   2.530   0.557   3.957 -0.1844  0.0757 -0.2102
 7298TIP3    H143309   2.502   0.508   4.034  0.6093  3.2296  2.1767
 7298TIP3    H243310   2.468   0.630   3.951  1.1301  1.1262 -1.1911
 7299TIP3   OH243311   4.209   1.183  12.108  0.8307 -0.5306  0.0683
 7299TIP3    H143312   4.275   1.247  12.081  0.9302 -1.2385 -1.4841
 7299TIP3    H243313   4.179   1.213  12.193  1.5542  1.0466 -0.2082
 7300TIP3   OH243314   4.349   6.441   2.221 -0.0124 -0.2417  0.4180
 7300TIP3    H143315   4.320   6.360   2.177  2.1929 -0.6416 -0.3895
 7300TIP3    H243316   4.406   6.483   2.156  0.5436  0.9009  1.6431
 7301TIP3   OH243317   3.763   5.891   6.341  0.0389 -0.1558 -0.1466
 7301TIP3    H143318   3.720   5.848   6.268 -1.7240  1.0538  0.1397
 7301TIP3    H243319   3.704   5.876   6.416 -0.7649  2.8729 -0.0896
 7302TIP3   OH243320   4.439   0.010   0.829 -0.3579  0.4817 -0.2787
 7302TIP3    H143321   4.437   0.073   0.757 -0.2710 -0.1480 -0.8398
 7302TIP3    H243322   4.371   0.039   0.889 -1.3477  0.2371 -1.2794
 7303TIP3   OH243323   1.703   5.205   2.754 -0.3849  0.2846  0.0224
 7303TIP3    H143324   1.712   5.300   2.757  2.9419  0.0834 -0.7065
 7303TIP3    H243325   1.700   5.184   2.660  0.5329 -0.4053  0.1332
 7304TIP3   OH243326   5.287   5.052   1.932 -0.2865  0.1309  0.5196
 7304TIP3    H143327   5.244   4.972   1.961  0.9667 -0.8790 -0.3512
 7304TIP3    H243328   5.378   5.042   1.960  0.1562  0.6876 -0.6683
 7305TIP3   OH243329   5.209   5.879  11.361 -0.3504 -0.1887  0.8723
 7305TIP3    H143330   5.231   5.831  11.282  1.1073  0.9499  0.5558
 7305TIP3    H243331   5.120   5.912  11.346  0.3418  0.9634 -0.7733
 7306TIP3   OH243332   4.934   1.779  15.622 -0.2382  0.1433  0.4812
 7306TIP3    H143333   4.894   1.713  15.679 -0.0158 -1.3919 -1.0934
 7306TIP3    H243334   5.017   1.740  15.594  0.8939  1.9895  1.2110
 7307TIP3   OH243335   3.777   1.369  11.864 -0.7538  0.0290 -0.1888
 7307TIP3    H143336   3.843   1.354  11.932 -1.6428 -3.2053  0.0431
 7307TIP3    H243337   3.719   1.435  11.901 -0.3415 -0.5690  1.5834
 7308TIP3   OH243338   1.007   2.261   0.609 -0.4305 -0.1620 -0.8304
 7308TIP3    H143339   0.917   2.292   0.618 -0.5611 -0.8054  0.0373
 7308TIP3    H243340   1.038   2.304   0.529 -1.1924  0.8084 -0.6154
 7309TIP3   OH243341   3.270   0.099  14.939  0.1871  0.6388  0.2509
 7309TIP3    H143342   3.354   0.068  14.973  0.2170 -0.8315 -1.0689
 7309TIP3    H243343   3.292   0.141  14.855 -0.3321  0.6703  0.1290
 7310TIP3   OH243344   5.022   0.606   1.068  0.2464  0.6199 -0.1943
 7310TIP3    H143345   5.011   0.612   0.973  1.4224 -1.2979 -0.4943
 7310TIP3    H243346   4.986   0.520   1.091  0.9953  0.5926  0.9386
 7311TIP3   OH243347   3.364   0.838   4.935  0.2477  0.8374  0.1819
 7311TIP3    H143348   3.293   0.893   4.966  0.1366  1.2036 -0.7246
 7311TIP3    H243349   3.339   0.812   4.847 -0.0872 -1.3481  0.9001
 7312TIP3   OH243350   2.474   6.520   3.707  0.1205  0.7491  0.1779
 7312TIP3    H143351   2.405   6.585   3.697 -0.4748  0.0573 -0.2782
 7312TIP3    H243352   2.555   6.571   3.703 -0.3865  1.8504  3.0309
 7313TIP3   OH243353   4.653   1.639   6.519  0.1054  0.2148 -0.2443
 7313TIP3    H143354   4.625   1.550   6.540 -0.3364  0.5691  0.6808
 7313TIP3    H243355   4.741   1.629   6.482  0.6343 -0.4722  1.1957
 7314TIP3   OH243356   3.900   2.147   3.683 -0.0267  0.0292  0.0122
 7314TIP3    H143357   3.900   2.234   3.723  1.2344  0.8362 -1.6912
 7314TIP3    H243358   3.988   2.113   3.697  0.2663  0.0960 -1.5405
 7315TIP3   OH243359   2.306   3.275  15.187 -0.6500 -0.2186  0.3089
 7315TIP3    H143360   2.383   3.226  15.158 -1.6570 -0.7444 -1.5074
 7315TIP3    H243361   2.255   3.212  15.238  0.2403  0.2049  1.7407
 7316TIP3   OH243362   0.376   3.443  14.823  0.6001 -0.3138  0.2018
 7316TIP3    H143363   0.314   3.388  14.775  0.8218 -1.4158  1.1546
 7316TIP3    H243364   0.378   3.525  14.774 -1.4191 -0.3505  0.0237
 7317TIP3   OH243365   6.422   5.852   3.239  0.3030 -0.0397 -0.3825
 7317TIP3    H143366   6.394   5.913   3.171  1.2285  1.2359  0.3466
 7317TIP3    H243367   6.475   5.787   3.194  0.9945  0.8555 -0.8687
 7318TIP3   OH243368   3.190   3.515   0.683 -0.0479  0.4744  0.1394
 7318TIP3    H143369   3.187   3.460   0.761 -1.7848 -1.6775 -1.3710
 7318TIP3    H243370   3.102   3.552   0.676  0.1677  0.8591 -0.6526
 7319TIP3   OH243371   5.809   3.969   0.201  0.5291  0.7615  0.1141
 7319TIP3    H143372   5.902   3.989   0.192  1.0113 -1.1522  0.4945
 7319TIP3    H243373   5.775   4.038   0.258  1.9540  0.8665  0.8728
 7320TIP3   OH243374   0.198   5.367   6.486 -0.1316 -0.1598  0.0592
 7320TIP3    H143375   0.168   5.345   6.398 -0.8660 -0.0322  0.2799
 7320TIP3    H243376   0.156   5.304   6.543  1.3076 -1.0184  0.1964
 7321TIP3   OH243377   1.272   4.310   5.736 -0.4140 -0.2874 -0.1160
 7321TIP3    H143378   1.303   4.256   5.809  0.8708 -0.5082 -0.8159
 7321TIP3    H243379   1.327   4.285   5.662 -0.9227  0.7866 -0.8739
 7322TIP3   OH243380   2.984   2.076   2.055  0.1301  0.0046  0.0566
 7322TIP3    H143381   2.905   2.093   2.106 -0.2985 -0.4437 -0.4480
 7322TIP3    H243382   3.056   2.084   2.117 -0.1574  2.2861  0.1378
 7323TIP3   OH243383   4.218   1.198   5.504 -0.0309  0.1261 -0.2332
 7323TIP3    H143384   4.309   1.175   5.523 -0.0459  1.5850  1.7885
 7323TIP3    H243385   4.189   1.132   5.441  1.8857 -1.3945  0.4197
 7324TIP3   OH243386   5.873   4.547  12.804 -0.0101 -0.0565  0.4885
 7324TIP3    H143387   5.809   4.485  12.771 -0.8830  1.5462 -0.8726
 7324TIP3    H243388   5.867   4.622  12.746  3.8757 -0.2897 -0.3616
 7325TIP3   OH243389   1.082   2.467   2.212 -0.3278  0.1229  0.1581
 7325TIP3    H143390   1.114   2.492   2.125  2.0203  0.0282  0.9642
 7325TIP3    H243391   1.037   2.546   2.244  0.5680  0.8442 -0.3308
 7326TIP3   OH243392   3.791   6.671   2.916 -0.5626 -0.4984  0.4737
 7326TIP3    H143393   3.751   6.728   2.850 -0.2825  0.5657  1.2046
 7326TIP3    H243394   3.866   6.632   2.872  0.1443  0.8989  0.4189
 7327TIP3   OH243395   6.736   6.335   3.035 -0.1825  0.0623 -0.1107
 7327TIP3    H143396   6.676   6.271   3.074  0.1576  0.3382  0.8813
 7327TIP3    H243397   6.721   6.415   3.084  0.0452  0.5026 -0.7522
 7328TIP3   OH243398   3.788   1.181  15.964  0.3161  0.3539 -0.3868
 7328TIP3    H143399   3.870   1.138  15.937  0.3314  0.5637 -0.6754
 7328TIP3    H243400   3.813   1.233  16.040 -0.3383 -2.5704  1.9327
 7329TIP3   OH243401   6.469   5.762  14.639  0.1485 -0.7936  0.7830
 7329TIP3    H143402   6.441   5.684  14.591 -1.4554  1.2395 -1.6982
 7329TIP3    H243403   6.559   5.777  14.610  0.1731 -1.2504  0.6270
 7330TIP3   OH243404   3.852   6.495  16.783 -0.1640  0.2651  0.0690
 7330TIP3    H143405   3.879   6.405  16.769 -0.5146  0.3599 -1.3929
 7330TIP3    H243406   3.783   6.509  16.717 -2.4405  0.5843  2.4495
 7331TIP3   OH243407   3.213   1.537   6.842 -0.3406  0.3214 -0.5906
 7331TIP3    H143408   3.184   1.452   6.875  0.3006  0.5771  0.6571
 7331TIP3    H243409   3.154   1.556   6.770 -2.9485  0.5939  1.5501
 7332TIP3   OH243410   1.755   1.093  17.116  0.3973 -0.5937 -0.5248
 7332TIP3    H143411   1.721   1.162  17.058  0.4681 -0.0243  0.1066
 7332TIP3    H243412   1.697   1.019  17.101 -0.1524 -0.1458 -0.6399
 7333TIP3   OH243413   4.328   1.588  12.739  0.4059  0.0892 -0.3688
 7333TIP3    H143414   4.359   1.672  12.707  1.0502  0.0171  0.0387
 7333TIP3    H243415   4.318   1.601  12.834 -0.1100 -0.1053 -0.3974
 7334TIP3   OH243416   6.604   0.109   2.611  0.1417  0.2517  0.3958
 7334TIP3    H143417   6.699   0.104   2.622  0.0385 -2.5421  0.2553
 7334TIP3    H243418   6.572   0.143   2.695  1.2300  1.2290  0.4405
 7335TIP3   OH243419   1.689   5.708  13.914 -0.2116 -0.2799 -0.6733
 7335TIP3    H143420   1.660   5.778  13.973 -1.2058 -0.5482 -0.8253
 7335TIP3    H243421   1.767   5.742  13.873  1.6383 -0.8331  2.2221
 7336TIP3   OH243422   5.269   0.510   1.384  1.0306 -0.3604  0.3295
 7336TIP3    H143423   5.335   0.559   1.335 -0.0637  0.8315  0.0417
 7336TIP3    H243424   5.307   0.502   1.472  1.7679 -0.1031  0.0430
 7337TIP3   OH243425   5.857   6.500   2.005  0.1998  0.6043  0.2822
 7337TIP3    H143426   5.763   6.518   2.014 -0.2251 -0.6320 -1.4101
 7337TIP3    H243427   5.899   6.585   2.013 -1.1080  1.2318  0.5986
 7338TIP3   OH243428   4.038   1.128   2.280 -0.4663  0.2044 -0.3113
 7338TIP3    H143429   4.054   1.066   2.351 -0.8061  0.5160  0.0398
 7338TIP3    H243430   4.125   1.154   2.251 -0.3151  1.2253  0.9998
 7339TIP3   OH243431   2.078   0.478   1.759  0.1506  0.0635 -0.2284
 7339TIP3    H143432   2.080   0.512   1.848 -1.6650 -3.5911  1.2807
 7339TIP3    H243433   2.168   0.489   1.728  1.1426  0.1995  2.5311
 7340TIP3   OH243434   2.256   2.712   4.631  0.4905 -0.2859  0.6897
 7340TIP3    H143435   2.167   2.681   4.649  0.9299 -1.9984  0.0017
 7340TIP3    H243436   2.290   2.651   4.566  0.9111  2.4756 -1.7999
 7341TIP3   OH243437   1.767   0.992  16.653  0.3323  0.5896  0.5367
 7341TIP3    H143438   1.704   1.064  16.653 -0.0967  0.2131  0.8680
 7341TIP3    H243439   1.755   0.949  16.568  1.2812  1.5100 -0.0748
 7342TIP3   OH243440   2.322   2.113  14.280 -0.0830 -0.0332 -0.4104
 7342TIP3    H143441   2.278   2.035  14.315  2.3379 -1.1622  0.2340
 7342TIP3    H243442   2.324   2.099  14.186 -0.9524 -0.0503 -0.4282
 7343TIP3   OH243443   3.840   0.994  14.053  0.1426  0.1959  0.0080
 7343TIP3    H143444   3.909   0.980  13.988 -1.0467  0.2853 -1.2744
 7343TIP3    H243445   3.864   0.934  14.125  2.3164  1.2398  0.2091
 7344TIP3   OH243446   1.089   6.134   2.907 -0.4553  0.4273  0.5646
 7344TIP3    H143447   0.997   6.122   2.931 -0.1463 -0.6777  1.2312
 7344TIP3    H243448   1.132   6.053   2.935  0.7735  1.0505  0.5208
 7345TIP3   OH243449   2.869   4.400  14.335 -0.1622  0.2196 -0.5791
 7345TIP3    H143450   2.882   4.308  14.311 -0.1990  0.4368 -1.4283
 7345TIP3    H243451   2.824   4.396  14.419  1.4559 -0.5445  0.2968
 7346TIP3   OH243452   2.972   0.476  16.523 -0.1990 -0.1023 -0.4876
 7346TIP3    H143453   3.021   0.401  16.554  0.7405  0.0023 -1.6826
 7346TIP3    H243454   2.979   0.472  16.427 -0.1031  1.5125 -0.5633
 7347TIP3   OH243455   5.988   1.473   4.907 -0.7960  0.2201  0.1282
 7347TIP3    H143456   6.075   1.498   4.937  0.1615  0.8459 -2.9162
 7347TIP3    H243457   5.992   1.378   4.897 -0.7342  0.1517  0.8096
 7348TIP3   OH243458   5.828   6.152  14.177 -0.3162 -0.2585  0.7162
 7348TIP3    H143459   5.869   6.127  14.095  0.8648  1.2758  0.8088
 7348TIP3    H243460   5.832   6.074  14.232  1.9293 -0.3328  0.4889
 7349TIP3   OH243461   2.599   5.576   4.965 -0.1009  0.1770  0.2230
 7349TIP3    H143462   2.533   5.636   4.930  0.5994  0.7581 -0.1226
 7349TIP3    H243463   2.595   5.500   4.907 -0.0398  0.4766 -0.1770
 7350TIP3   OH243464   0.151   3.778   2.277 -0.5353 -0.4340 -0.3960
 7350TIP3    H143465   0.093   3.834   2.225 -0.5362 -0.3922 -0.3499
 7350TIP3    H243466   0.099   3.756   2.354  0.3994  1.6317  0.8584
 7351TIP3   OH243467   5.711   4.498  12.554 -0.2260  0.2965  0.0744
 7351TIP3    H143468   5.680   4.508  12.464  0.2747 -0.7970 -0.2189
 7351TIP3    H243469   5.680   4.413  12.582  0.7564  0.0588  0.4783
 7352TIP3   OH243470   1.800   4.126  11.148  0.1812 -0.4014 -0.4290
 7352TIP3    H143471   1.726   4.164  11.194  0.8985 -0.7556  1.0311
 7352TIP3    H243472   1.768   4.114  11.058 -0.0095  3.7291 -0.9921
 7353TIP3   OH243473   5.162   4.144  15.791 -0.2159 -0.4774  0.2538
 7353TIP3    H143474   5.202   4.095  15.863 -1.4983 -0.5238  0.9419
 7353TIP3    H243475   5.068   4.135  15.804 -0.4763 -0.8329 -1.6706
 7354TIP3   OH243476   2.502   1.873   4.762  0.0283  0.3111  0.1400
 7354TIP3    H143477   2.512   1.795   4.817  0.5604  0.0870 -0.2680
 7354TIP3    H243478   2.409   1.877   4.742  0.1015 -0.6414 -0.4487
 7355TIP3   OH243479   5.524   0.086  16.076  0.0144  0.1127  0.1426
 7355TIP3    H143480   5.456   0.143  16.042 -1.5850 -0.5213  2.1804
 7355TIP3    H243481   5.601   0.142  16.084 -1.1162  1.6011  0.7083
 7356TIP3   OH243482   1.593   2.277  10.191  0.1276 -0.3091 -0.0006
 7356TIP3    H143483   1.546   2.337  10.248 -0.2212 -1.1747  0.6467
 7356TIP3    H243484   1.524   2.236  10.138  0.5935  1.7003 -2.2560
 7357TIP3   OH243485   4.532   0.523   2.348 -0.2647  0.0287  0.4418
 7357TIP3    H143486   4.444   0.488   2.333 -0.6041  1.2731 -0.5482
 7357TIP3    H243487   4.530   0.553   2.439 -0.9994  0.4008  0.3111
 7358TIP3   OH243488   5.196   4.476  12.898  0.0149 -0.0155 -0.0987
 7358TIP3    H143489   5.282   4.448  12.867  0.8888  2.0449  0.3736
 7358TIP3    H243490   5.149   4.395  12.914  1.0107 -1.1815 -2.7015
 7359TIP3   OH243491   3.865   3.450  11.567  0.3454 -0.2805 -0.2788
 7359TIP3    H143492   3.909   3.372  11.600  1.7563  0.8816  0.6790
 7359TIP3    H243493   3.859   3.508  11.643 -2.3010 -0.1437 -0.5489
 7360TIP3   OH243494   3.709   2.998   1.572 -0.4428  0.1966 -0.0301
 7360TIP3    H143495   3.709   2.925   1.509  0.7594  0.1277  0.0390
 7360TIP3    H243496   3.673   3.072   1.523 -1.1149 -0.3030 -0.2824
 7361TIP3   OH243497   3.617   1.608   2.032  0.4551  0.0777 -0.2817
 7361TIP3    H143498   3.687   1.640   1.977  1.1230 -0.9812 -0.0546
 7361TIP3    H243499   3.597   1.521   1.998 -1.4817  0.7804 -1.0203
 7362TIP3   OH243500   3.809   4.240   0.730  0.1282  0.3283  0.3817
 7362TIP3    H143501   3.732   4.281   0.770  0.4350  0.6932  0.5959
 7362TIP3    H243502   3.870   4.229   0.803  0.0998 -0.3961  0.3063
 7363TIP3   OH243503   1.668   6.367  15.149  0.2413 -0.3645 -0.4252
 7363TIP3    H143504   1.610   6.351  15.075 -0.8538 -1.3580  0.6335
 7363TIP3    H243505   1.613   6.356  15.227  1.6281 -0.4328  0.5755
 7364TIP3   OH243506   3.857   6.049   3.110  0.0154  0.3074 -0.3834
 7364TIP3    H143507   3.819   6.124   3.064 -1.8743  0.2276  1.0070
 7364TIP3    H243508   3.935   6.084   3.153 -0.9299  1.5351  0.3720
 7365TIP3   OH243509   6.493   3.243  13.270  0.4760 -0.3389 -0.2092
 7365TIP3    H143510   6.438   3.313  13.303 -0.8668 -2.1779  1.5921
 7365TIP3    H243511   6.506   3.264  13.177  0.9730  2.7859  0.5113
 7366TIP3   OH243512   3.192   1.388  14.030 -0.0503 -0.3585 -0.3489
 7366TIP3    H143513   3.221   1.408  13.941  0.6409  0.9751  0.1645
 7366TIP3    H243514   3.099   1.367  14.021  0.0258 -0.2760 -1.3846
 7367TIP3   OH243515   4.051   6.570  14.738  0.1434  0.4709 -0.5791
 7367TIP3    H143516   3.982   6.622  14.779  1.4227  2.0080 -0.3148
 7367TIP3    H243517   4.075   6.620  14.660 -1.0184 -1.5157 -2.2804
 7368TIP3   OH243518   1.149   1.180  16.105  0.6478  0.1399  0.0753
 7368TIP3    H143519   1.119   1.266  16.135  0.7038  1.2624 -2.8583
 7368TIP3    H243520   1.141   1.185  16.010 -0.5569 -3.5917 -0.0749
 7369TIP3   OH243521   4.633   5.015  16.449  0.3200 -0.0554  0.3736
 7369TIP3    H143522   4.585   4.933  16.437 -1.0266  0.8415 -0.3922
 7369TIP3    H243523   4.670   5.008  16.537  0.3888 -1.5706  0.2322
 7370TIP3   OH243524   2.214   6.148   4.460  1.5058  0.1638 -0.0580
 7370TIP3    H143525   2.292   6.200   4.440 -1.0663  4.4827  0.3896
 7370TIP3    H243526   2.206   6.154   4.555 -0.8011  2.1220 -0.3247
 7371TIP3   OH243527   4.578   5.355   6.187 -0.3538  0.2750 -0.4120
 7371TIP3    H143528   4.522   5.287   6.150 -0.4081  0.4279 -0.6069
 7371TIP3    H243529   4.518   5.425   6.212 -0.4336 -0.2163  0.8498
 7372TIP3   OH243530   0.939   4.689  10.549  1.0015 -0.2147 -0.7968
 7372TIP3    H143531   0.884   4.612  10.561 -1.4622  1.5685 -0.4000
 7372TIP3    H243532   1.017   4.671  10.603 -0.5354 -1.4675  1.0912
 7373TIP3   OH243533   2.621   5.135  17.217  0.0774 -0.2979 -0.5531
 7373TIP3    H143534   2.600   5.131  17.124 -1.1009 -0.4373 -0.2849
 7373TIP3    H243535   2.601   5.048  17.250 -0.4682  0.0345  0.0200
 7374TIP3   OH243536   5.802   0.827   3.412  0.1367  0.6996 -0.2609
 7374TIP3    H143537   5.745   0.893   3.372  1.3742  1.6112 -0.5360
 7374TIP3    H243538   5.847   0.873   3.483  2.0538  0.5481 -1.3467
 7375TIP3   OH243539   5.181   0.394   1.123  0.6530  0.2247  0.3093
 7375TIP3    H143540   5.190   0.353   1.209 -0.7923  0.4983  0.6108
 7375TIP3    H243541   5.169   0.487   1.142 -2.4912 -0.0529  0.0121
 7376TIP3   OH243542   3.180   0.299   3.892  0.1006 -0.1189 -0.2419
 7376TIP3    H143543   3.107   0.361   3.898  0.7359  0.5134  1.1097
 7376TIP3    H243544   3.145   0.218   3.927 -0.4660 -0.2978 -1.1941
 7377TIP3   OH243545   1.955   4.671  11.403 -0.4212  0.2220 -0.3163
 7377TIP3    H143546   1.876   4.658  11.350 -0.7541  0.3968  0.1292
 7377TIP3    H243547   1.925   4.726  11.476 -0.2536 -1.0609  0.7213
 7378TIP3   OH243548   0.896   3.621  13.366  0.2691 -0.2674  0.3256
 7378TIP3    H143549   0.845   3.702  13.366 -0.5578 -0.7813  0.3045
 7378TIP3    H243550   0.967   3.637  13.304 -1.4380 -0.5151 -1.7456
 7379TIP3   OH243551   5.131   6.356  16.224  0.0593  0.0019 -0.4674
 7379TIP3    H143552   5.078   6.428  16.188  0.0251 -0.4480 -1.3429
 7379TIP3    H243553   5.071   6.282  16.228  0.2347 -0.1171 -0.0606
 7380TIP3   OH243554   5.014   6.141   4.384  0.1758  0.0816  0.1230
 7380TIP3    H143555   4.931   6.146   4.430  0.4424 -1.2129  0.7733
 7380TIP3    H243556   4.991   6.146   4.291 -0.6580 -0.5822  0.2906
 7381TIP3   OH243557   1.895   0.436  16.114 -0.4133 -0.4802 -0.4030
 7381TIP3    H143558   1.879   0.351  16.073  0.5075 -1.2933  0.8966
 7381TIP3    H243559   1.983   0.460  16.084 -0.9923  0.4103 -1.4215
 7382TIP3   OH243560   5.814   6.049   2.531  0.4687 -0.0435 -0.1222
 7382TIP3    H143561   5.822   5.964   2.487  1.4701 -0.1848  0.3005
 7382TIP3    H243562   5.767   6.029   2.612 -0.6854  0.0827 -0.7495
 7383TIP3   OH243563   5.566   2.569   4.081  0.5720  0.0448 -0.1118
 7383TIP3    H143564   5.551   2.531   4.167 -1.5341  0.3046 -0.3343
 7383TIP3    H243565   5.566   2.664   4.096 -2.1719  0.1745 -0.7101
 7384TIP3   OH243566   5.086   3.040  15.858 -0.0156  0.1648 -0.5025
 7384TIP3    H143567   5.075   3.134  15.868  1.5169  0.0638  2.8370
 7384TIP3    H243568   5.020   3.002  15.916  0.5712 -0.7888 -0.4510
 7385TIP3   OH243569   0.933   6.115  13.793  0.9133 -0.2141 -0.6980
 7385TIP3    H143570   0.947   6.036  13.740 -0.3779 -1.2873  0.5090
 7385TIP3    H243571   0.844   6.105  13.827  1.5716  0.6327  1.3387
 7386TIP3   OH243572   2.518   2.298   2.775  0.4343  0.2031 -0.4845
 7386TIP3    H143573   2.462   2.357   2.725 -1.3720 -1.9087 -1.0228
 7386TIP3    H243574   2.528   2.340   2.860 -0.4894  1.4517 -0.9857
 7387TIP3   OH243575   2.384   2.269  11.885  0.1185 -0.1220 -0.4809
 7387TIP3    H143576   2.477   2.289  11.876  0.6053 -1.0834  2.0003
 7387TIP3    H243577   2.348   2.345  11.930  0.7264 -1.8528  3.1038
 7388TIP3   OH243578   5.203   6.448   3.997  0.3509  0.4218  1.3341
 7388TIP3    H143579   5.216   6.361   3.961 -1.2315  0.7441 -0.0580
 7388TIP3    H243580   5.268   6.502   3.953  1.2158 -0.0010  2.0711
 7389TIP3   OH243581   4.941   1.195   1.844 -0.1836 -0.0701 -0.0226
 7389TIP3    H143582   5.007   1.253   1.884  0.2887  0.4305 -1.4847
 7389TIP3    H243583   4.950   1.113   1.891  2.5896 -0.5152 -1.1994
 7390TIP3   OH243584   4.265   3.077  16.042  0.0554 -0.4850  0.2902
 7390TIP3    H143585   4.296   2.987  16.052  1.9832  0.4300  3.2088
 7390TIP3    H243586   4.290   3.121  16.124  1.4094  3.3395 -2.0229
 7391TIP3   OH243587   6.714   5.279   2.175  0.0872 -0.0391 -0.4212
 7391TIP3    H143588   6.656   5.343   2.217  0.3623  0.1977 -0.3951
 7391TIP3    H243589   6.800   5.299   2.212 -0.1616 -1.7217  1.1086
 7392TIP3   OH243590   0.787   2.786  12.682 -0.1237  0.5381  0.0988
 7392TIP3    H143591   0.875   2.759  12.706 -0.4349 -0.4339  0.1557
 7392TIP3    H243592   0.800   2.856  12.618  0.6890  0.5382  0.2640
 7393TIP3   OH243593   4.358   0.310   3.370  0.3092 -0.3891  0.0538
 7393TIP3    H143594   4.435   0.255   3.356  0.7085 -0.0158  0.7708
 7393TIP3    H243595   4.284   0.256   3.340  0.8643 -0.6560 -0.8725
 7394TIP3   OH243596   0.120   4.293  14.432 -0.3676 -0.1400 -0.0850
 7394TIP3    H143597   0.045   4.237  14.449 -1.3612  1.6768  1.7001
 7394TIP3    H243598   0.087   4.382  14.443  2.3545  0.6748  2.2500
 7395TIP3   OH243599   5.481   3.494  13.599  0.2526 -0.2791  0.2043
 7395TIP3    H143600   5.477   3.574  13.652 -0.4460  0.5761 -1.0893
 7395TIP3    H243601   5.395   3.454  13.609  0.2053 -0.2475 -0.0570
 7396TIP3   OH243602   3.678   1.397  13.228 -0.2295 -0.1860  0.4488
 7396TIP3    H143603   3.600   1.451  13.222  1.3196  1.9495 -1.1609
 7396TIP3    H243604   3.680   1.348  13.145 -2.3357 -3.8213  2.4224
 7397TIP3   OH243605   0.475   4.691   2.752 -0.0192  0.4081  0.0736
 7397TIP3    H143606   0.468   4.786   2.739  0.1519  0.2824 -0.9186
 7397TIP3    H243607   0.426   4.675   2.833  1.7959  1.6417  1.4668
 7398TIP3   OH243608   5.569   5.898   3.369  0.3447 -0.3982 -0.1932
 7398TIP3    H143609   5.499   5.957   3.396  0.5590  0.1176 -0.7423
 7398TIP3    H243610   5.554   5.818   3.419 -0.0608  0.0548  0.4191
 7399TIP3   OH243611   3.223   1.332  16.066 -0.8926 -0.3502  0.4788
 7399TIP3    H143612   3.184   1.287  15.991 -0.9731 -0.5298  0.6269
 7399TIP3    H243613   3.169   1.410  16.078 -0.4343  0.0604 -0.1066
 7400TIP3   OH243614   6.745   2.593  10.803 -0.7652  0.5298  0.0444
 7400TIP3    H143615   6.811   2.643  10.755 -0.6608  0.7651  0.4342
 7400TIP3    H243616   6.662   2.634  10.780 -0.9123 -0.5330 -1.4231
 7401TIP3   OH243617   4.546   2.527   4.946 -0.6384 -0.2191  0.6829
 7401TIP3    H143618   4.535   2.531   4.851 -2.5517  1.1870  0.9391
 7401TIP3    H243619   4.504   2.445   4.971 -2.6817  0.7579  0.5996
 7402TIP3   OH243620   2.305   1.019   1.184 -0.4025 -0.4748 -0.2315
 7402TIP3    H143621   2.246   1.057   1.249  0.9379 -0.1378  0.7974
 7402TIP3    H243622   2.305   1.082   1.112 -0.1049  0.2910  0.4255
 7403TIP3   OH243623   1.817   3.257   0.374  0.0941 -0.0422  0.1623
 7403TIP3    H143624   1.877   3.184   0.363 -0.0291 -0.3416  1.3528
 7403TIP3    H243625   1.815   3.272   0.469 -1.1638  0.4228  0.0740
 7404TIP3   OH243626   2.404   5.988   5.621 -0.2331 -0.3381 -0.0416
 7404TIP3    H143627   2.317   5.994   5.661 -0.3662 -2.6818  0.0865
 7404TIP3    H243628   2.409   5.899   5.588  1.8032  0.0467 -0.8463
 7405TIP3   OH243629   3.873   4.465   3.144  0.4573 -0.4324 -0.0788
 7405TIP3    H143630   3.801   4.514   3.105  0.1021 -0.5662  0.4075
 7405TIP3    H243631   3.915   4.421   3.070 -0.6139 -1.2168 -0.2362
 7406TIP3   OH243632   1.520   0.309  11.317  0.4877  0.3773  0.3477
 7406TIP3    H143633   1.523   0.326  11.411  0.1954  0.8305  0.2731
 7406TIP3    H243634   1.478   0.386  11.279  2.0513  0.9110 -0.3335
 7407TIP3   OH243635   5.685   3.543  11.925 -0.2717 -0.2402  0.5344
 7407TIP3    H143636   5.696   3.627  11.881 -0.9173 -1.3932 -1.9140
 7407TIP3    H243637   5.699   3.478  11.855  1.3057 -2.1802  2.5986
 7408TIP3   OH243638   5.008   1.850   3.283 -0.2790  0.3762  0.0404
 7408TIP3    H143639   5.064   1.925   3.304  0.9668 -0.5912  0.2518
 7408TIP3    H243640   5.014   1.842   3.188 -1.3679  1.2618 -0.1135
 7409TIP3   OH243641   2.862   3.690  12.346 -0.4235 -0.0813 -0.2135
 7409TIP3    H143642   2.818   3.655  12.268  1.5683 -0.3552 -1.2323
 7409TIP3    H243643   2.933   3.628  12.363 -0.7471  0.0466  1.7670
 7410TIP3   OH243644   5.605   0.922   6.048  0.3784 -0.2048 -0.0044
 7410TIP3    H143645   5.697   0.903   6.031  0.2169 -0.5842 -0.4661
 7410TIP3    H243646   5.558   0.845   6.015 -0.0768 -0.1645  0.5434
 7411TIP3   OH243647   3.597   1.778   2.802  0.4062 -0.1017 -0.1915
 7411TIP3    H143648   3.597   1.761   2.708 -0.0220  0.6248 -0.3294
 7411TIP3    H243649   3.660   1.850   2.813 -1.3473  1.5008 -0.2607
 7412TIP3   OH243650   6.115   3.615  11.466 -0.4885  1.0890 -0.0583
 7412TIP3    H143651   6.152   3.574  11.388  1.2611 -0.7823  1.7002
 7412TIP3    H243652   6.183   3.674  11.497 -0.6633  0.8588  0.7839
 7413TIP3   OH243653   0.347   1.995  17.145 -0.4998 -0.5028  0.3015
 7413TIP3    H143654   0.425   1.948  17.115 -1.8988 -1.4391 -2.0094
 7413TIP3    H243655   0.379   2.083  17.166  1.0250 -0.5754 -1.5923
 7414TIP3   OH243656   4.273   3.636   4.255  0.7965 -0.7228 -0.2434
 7414TIP3    H143657   4.254   3.548   4.288 -0.7465 -0.9055 -1.5534
 7414TIP3    H243658   4.247   3.695   4.326 -0.1819 -1.2286 -0.1764
 7415TIP3   OH243659   1.755   5.803   2.024  0.4983  0.2001 -0.1048
 7415TIP3    H143660   1.663   5.788   2.045 -0.1985  1.1290 -2.2963
 7415TIP3    H243661   1.786   5.718   1.989  0.2516  0.1136 -0.1111
 7416TIP3   OH243662   1.878   4.115   4.807 -0.3113 -0.9309 -0.4880
 7416TIP3    H143663   1.951   4.082   4.755  1.5664  0.3565  1.2323
 7416TIP3    H243664   1.872   4.208   4.785 -0.0882 -0.5796  0.8316
 7417TIP3   OH243665   1.468   3.148   4.380 -0.4447  0.2089 -0.4013
 7417TIP3    H143666   1.548   3.096   4.371 -0.4558  0.0130  0.6254
 7417TIP3    H243667   1.493   3.235   4.349 -0.5452 -0.4997 -2.5591
 7418TIP3   OH243668   3.243   1.470   2.332  0.3638  0.0310  0.2806
 7418TIP3    H143669   3.247   1.387   2.284  1.6129  0.1536  0.1476
 7418TIP3    H243670   3.332   1.484   2.363 -0.1061  0.7210  1.3532
 7419TIP3   OH243671   0.348   6.033  12.876  0.8022  0.4236  0.4044
 7419TIP3    H143672   0.304   6.105  12.922  0.8177 -0.7471  2.3109
 7419TIP3    H243673   0.419   6.075  12.828 -0.6018  1.9681 -0.3672
 7420TIP3   OH243674   0.635   0.949  16.177  0.2006 -0.4072  0.1235
 7420TIP3    H143675   0.676   1.032  16.151  0.6230 -0.9661 -0.9992
 7420TIP3    H243676   0.542   0.961  16.158 -0.1389  0.7289  2.3363
 7421TIP3   OH243677   1.203   6.781  12.653 -0.3327 -0.1481  0.0747
 7421TIP3    H143678   1.212   6.794  12.558 -2.4765 -0.4451 -0.1961
 7421TIP3    H243679   1.177   6.866  12.686  1.2823  0.1760  0.5333
 7422TIP3   OH243680   2.278   6.616  16.087  0.0183  0.3681  0.3517
 7422TIP3    H143681   2.338   6.683  16.053  0.6475 -0.6343 -0.5506
 7422TIP3    H243682   2.191   6.647  16.064  0.2721  1.1497  0.4374
 7423TIP3   OH243683   5.275   1.463  17.101 -0.3112  0.7714  0.0397
 7423TIP3    H143684   5.202   1.449  17.161  0.1468 -2.1705 -0.0235
 7423TIP3    H243685   5.234   1.464  17.014 -0.2028 -2.2519 -0.1091
 7424TIP3   OH243686   2.675   4.255  16.186  0.1140 -0.0329  0.1837
 7424TIP3    H143687   2.684   4.177  16.241  2.9295  0.1726  0.1009
 7424TIP3    H243688   2.600   4.236  16.130 -0.7698 -1.6277  1.8348
 7425TIP3   OH243689   6.391   4.270  13.196 -0.3165  0.4972 -0.4493
 7425TIP3    H143690   6.485   4.277  13.212 -0.4599  1.6468  0.0154
 7425TIP3    H243691   6.351   4.312  13.273 -1.2082 -0.0482 -0.6061
 7426TIP3   OH243692   1.421   1.204   1.286 -0.2453  0.0938  0.3732
 7426TIP3    H143693   1.511   1.188   1.314 -0.4210  0.1826  0.9999
 7426TIP3    H243694   1.373   1.125   1.311 -0.5155  0.3953  0.8245
 7427TIP3   OH243695   1.128   4.732   4.800  0.0768 -0.7245  0.0034
 7427TIP3    H143696   1.197   4.690   4.749  0.1545 -1.1686  0.4820
 7427TIP3    H243697   1.131   4.824   4.772 -0.6108 -1.1677 -1.6223
 7428TIP3   OH243698   0.028   3.004  16.083 -0.0307 -0.1367 -0.0344
 7428TIP3    H143699   0.013   2.952  16.004 -0.9457  0.7629 -0.4712
 7428TIP3    H243700  -0.059   3.035  16.108  0.2103 -0.6743  1.5228
 7429TIP3   OH243701   1.073   5.183   6.160  0.4961  0.1875 -0.0653
 7429TIP3    H143702   1.110   5.126   6.093  0.0131 -0.4690  0.2282
 7429TIP3    H243703   0.978   5.178   6.147  0.4862  1.9032 -0.8462
 7430TIP3   OH243704   2.304   3.496  14.132 -0.1728 -0.3163  0.1426
 7430TIP3    H143705   2.395   3.465  14.133 -0.0136  0.1145 -0.5520
 7430TIP3    H243706   2.296   3.544  14.050 -0.5129  1.2001  1.0310
 7431TIP3   OH243707   3.089   2.246   1.210 -0.3347  0.1822  0.3525
 7431TIP3    H143708   3.033   2.248   1.132 -0.3690  2.0637  0.4019
 7431TIP3    H243709   3.178   2.256   1.177 -0.3211  0.6382  0.5190
 7432TIP3   OH243710   6.640   2.950   0.564  0.3887  0.4036  0.4610
 7432TIP3    H143711   6.604   2.986   0.483 -2.4746 -0.4128  1.3186
 7432TIP3    H243712   6.678   2.866   0.537  1.2401  1.0402 -0.3663
 7433TIP3   OH243713   3.117   0.595   1.764 -0.1291 -0.2197 -0.4739
 7433TIP3    H143714   3.041   0.646   1.793  0.4628  1.5801 -2.0296
 7433TIP3    H243715   3.079   0.522   1.714 -0.8894 -0.3092  0.2211
 7434TIP3   OH243716   1.448   3.152  12.179 -0.1581 -0.6523  0.4064
 7434TIP3    H143717   1.468   3.198  12.098 -1.0965 -0.3390  0.3428
 7434TIP3    H243718   1.489   3.066  12.170 -1.4110 -1.1189 -0.9822
 7435TIP3   OH243719   5.541   3.595  12.375  0.0411 -0.0484  0.8451
 7435TIP3    H143720   5.629   3.592  12.336 -0.2570  2.7255 -0.1268
 7435TIP3    H243721   5.482   3.587  12.301 -0.5430 -0.6981  1.3783
 7436TIP3   OH243722   4.400   4.236   5.845  0.2148  0.2096 -0.0620
 7436TIP3    H143723   4.403   4.149   5.886  1.4327 -0.5995 -1.8122
 7436TIP3    H243724   4.322   4.234   5.790 -0.1882  0.5038  0.4981
 7437TIP3   OH243725   4.348   5.992  15.482  0.0651 -0.1771 -0.5273
 7437TIP3    H143726   4.377   6.081  15.505  1.9431 -0.7749 -0.5224
 7437TIP3    H243727   4.336   5.995  15.387 -2.3405  0.7533 -0.2459
 7438TIP3   OH243728   2.705   3.219  10.928  0.2125 -0.0178  0.1055
 7438TIP3    H143729   2.719   3.135  10.970  1.4330 -0.1477 -0.5253
 7438TIP3    H243730   2.700   3.198  10.834 -1.7740  0.3395  0.1172
 7439TIP3   OH243731   2.727   6.601   0.007 -0.0931 -0.5938  1.1784
 7439TIP3    H143732   2.796   6.626   0.068  1.2209 -0.5431 -0.2832
 7439TIP3    H243733   2.749   6.513  -0.022  0.2486  0.0076 -0.4786
 7440TIP3   OH243734   3.852   3.497  17.236  0.0338 -0.2702 -0.2771
 7440TIP3    H143735   3.863   3.580  17.282  1.9475 -0.8417  0.3617
 7440TIP3    H243736   3.817   3.437  17.302 -0.9313 -0.0922 -0.6218
 7441TIP3   OH243737   0.560   0.251  15.361  0.3718  0.1162  0.0541
 7441TIP3    H143738   0.575   0.158  15.344  0.9549  0.4115 -1.0964
 7441TIP3    H243739   0.542   0.255  15.455  1.6799 -1.0000  0.3776
 7442TIP3   OH243740   5.115   1.564  14.039 -0.4524  0.6026  0.5329
 7442TIP3    H143741   5.135   1.610  13.957 -1.4826  1.6115  0.8266
 7442TIP3    H243742   5.058   1.624  14.086  0.1112  0.0155  1.9880
 7443TIP3   OH243743   0.342   0.288  12.979  0.1380  0.2948 -0.6456
 7443TIP3    H143744   0.342   0.231  13.055  0.8423 -1.4383 -1.9197
 7443TIP3    H243745   0.295   0.366  13.007 -2.4085 -1.6324  0.5550
 7444TIP3   OH243746   5.659   2.723  13.786  0.1896  0.0377 -0.4545
 7444TIP3    H143747   5.683   2.636  13.819  0.3424  0.3434  0.2285
 7444TIP3    H243748   5.615   2.765  13.859 -1.7538 -0.2321 -1.4434
 7445TIP3   OH243749   5.449   5.484   0.929  0.4319 -0.5497 -0.2856
 7445TIP3    H143750   5.525   5.436   0.896  0.0963 -3.3804  2.9295
 7445TIP3    H243751   5.487   5.560   0.973  1.3990 -1.7847  1.0400
 7446TIP3   OH243752   0.984   0.709  10.667  0.3424 -0.1502 -0.0976
 7446TIP3    H143753   0.914   0.645  10.658  1.6416 -1.6341  0.2155
 7446TIP3    H243754   0.953   0.769  10.735 -1.6416  0.6211 -1.6059
 7447TIP3   OH243755   0.281   1.296   0.870 -0.3771  0.2119  0.2242
 7447TIP3    H143756   0.229   1.371   0.842  1.0512  1.0095 -0.3514
 7447TIP3    H243757   0.329   1.269   0.792 -1.4511 -1.7993  0.2243
 7448TIP3   OH243758   5.378   3.706  11.870  0.3091  0.3366 -1.1616
 7448TIP3    H143759   5.424   3.685  11.789  0.2801 -0.5366 -0.9549
 7448TIP3    H243760   5.354   3.621  11.907  2.0887  0.6400  0.7833
 7449TIP3   OH243761   5.787   3.334  15.596  0.5918 -0.1608 -0.0216
 7449TIP3    H143762   5.773   3.424  15.564  0.8650  0.2343  0.9527
 7449TIP3    H243763   5.865   3.304  15.549  1.3715  0.6485  0.7314
 7450TIP3   OH243764   0.240   1.211   4.050  0.3157 -0.0898  0.2365
 7450TIP3    H143765   0.237   1.292   4.100  2.4206  1.6940 -2.3669
 7450TIP3    H243766   0.311   1.161   4.089  2.8530  1.8767 -1.6728
 7451TIP3   OH243767   6.418   1.374   4.239  0.0353  0.1742 -0.2296
 7451TIP3    H143768   6.385   1.320   4.311  0.1404 -1.0939 -1.1223
 7451TIP3    H243769   6.339   1.397   4.189  0.2270 -0.9917 -1.0906
 7452TIP3   OH243770   6.438   4.808  14.853  0.1997 -0.7853 -0.2652
 7452TIP3    H143771   6.383   4.869  14.804  2.1219 -0.2909 -1.8246
 7452TIP3    H243772   6.375   4.754  14.901 -1.5792  1.4768  0.0652
 7453TIP3   OH243773   4.035   5.989  12.705  0.6601 -0.2010 -0.2826
 7453TIP3    H143774   4.128   5.977  12.683  0.8567 -0.1041  0.4768
 7453TIP3    H243775   4.018   5.924  12.772  0.2139 -0.1112 -0.3095
 7454TIP3   OH243776   3.116   3.099   4.824 -0.1661 -0.2339 -0.6364
 7454TIP3    H143777   3.041   3.097   4.883 -0.0236  1.1506 -0.3742
 7454TIP3    H243778   3.080   3.124   4.739 -0.3073 -1.7825 -1.0438
 7455TIP3   OH243779   3.397   3.681   2.707 -0.8977  0.3634 -0.2859
 7455TIP3    H143780   3.327   3.652   2.765 -0.4521  1.2348  0.7028
 7455TIP3    H243781   3.418   3.604   2.654  0.4166 -1.1952  2.4227
 7456TIP3   OH243782   3.572   3.762  11.655 -0.7567  0.5023  0.4881
 7456TIP3    H143783   3.516   3.717  11.591 -1.0406  0.8052  0.5220
 7456TIP3    H243784   3.561   3.855  11.635 -3.5217  0.8135  3.1353
 7457TIP3   OH243785   5.782   3.570   2.731 -0.4216 -0.0585 -0.2816
 7457TIP3    H143786   5.856   3.509   2.735  1.0996  1.6030 -1.8471
 7457TIP3    H243787   5.774   3.604   2.821  1.6317  0.7324 -0.3604
 7458TIP3   OH243788   6.782   2.790  12.951 -0.0317  0.0763  0.2737
 7458TIP3    H143789   6.830   2.805  13.033  1.2595 -3.1246  0.1641
 7458TIP3    H243790   6.846   2.752  12.892 -1.4887  0.3926 -1.5597
 7459TIP3   OH243791   2.616   5.706   1.062  0.0239  0.1245  0.7225
 7459TIP3    H143792   2.572   5.789   1.082 -0.7990  0.2144 -1.3103
 7459TIP3    H243793   2.595   5.690   0.970  2.3010 -1.0612  0.3772
 7460TIP3   OH243794   6.708   4.008  14.814 -1.1163  0.0662  0.2512
 7460TIP3    H143795   6.649   3.971  14.748 -0.2164 -1.3883  0.2397
 7460TIP3    H243796   6.758   3.933  14.846 -0.2138  1.0685  1.2256
 7461TIP3   OH243797   3.033   0.291  11.166 -0.2804  0.3991 -0.2553
 7461TIP3    H143798   3.091   0.362  11.138 -0.1169 -0.1592 -1.3598
 7461TIP3    H243799   2.975   0.276  11.092 -0.2008 -0.7469 -0.1032
 7462TIP3   OH243800   4.063   6.749  11.419 -0.2225  0.4453  0.6752
 7462TIP3    H143801   4.081   6.833  11.461  1.1517  0.9712 -0.9118
 7462TIP3    H243802   4.099   6.758  11.331 -4.1705 -0.1596 -1.1354
 7463TIP3   OH243803   6.092   5.804   1.207 -0.5974 -0.1931  0.4490
 7463TIP3    H143804   6.051   5.890   1.216 -0.1618 -0.0945  1.6055
 7463TIP3    H243805   6.019   5.742   1.208 -1.1166  0.2968 -2.9287
 7464TIP3   OH243806   3.640   2.611   2.158 -0.4204  0.1434 -0.0197
 7464TIP3    H143807   3.576   2.681   2.168  1.1193  1.1653  3.2161
 7464TIP3    H243808   3.592   2.531   2.181 -0.7125  0.8252  1.7734
 7465TIP3   OH243809   1.239   5.200  17.081 -0.2141  0.1396  0.3261
 7465TIP3    H143810   1.231   5.278  17.026 -1.1956 -0.7821 -0.8629
 7465TIP3    H243811   1.166   5.144  17.054 -1.2460  0.0284  3.1795
 7466TIP3   OH243812   4.592   6.335  16.733  0.4858 -0.2480 -0.0743
 7466TIP3    H143813   4.529   6.375  16.673  0.4151 -0.8747 -0.4202
 7466TIP3    H243814   4.614   6.405  16.794 -0.7404 -0.0967  0.2071
 7467TIP3   OH243815   5.610   3.012   4.464 -0.2627 -0.1048  0.4548
 7467TIP3    H143816   5.651   3.096   4.484  0.6551 -0.4684  0.1426
 7467TIP3    H243817   5.561   3.026   4.384  0.1899  0.0367  0.2043
 7468TIP3   OH243818   2.832   5.555  12.775 -0.4644  0.5029  0.1105
 7468TIP3    H143819   2.910   5.561  12.829 -0.7647  0.6378  0.5357
 7468TIP3    H243820   2.863   5.570  12.685  0.2612 -1.1663  0.0770
 7469TIP3   OH243821   1.853   0.481   2.711 -0.3445  0.2687  0.6029
 7469TIP3    H143822   1.820   0.458   2.625 -0.7398 -0.7383  1.0171
 7469TIP3    H243823   1.947   0.494   2.699 -0.1233 -1.4817  0.3352
 7470TIP3   OH243824   2.928   6.098  11.942 -0.8267  0.2093  0.1143
 7470TIP3    H143825   2.943   6.190  11.920 -0.9759  0.4024  0.7894
 7470TIP3    H243826   2.993   6.079  12.010 -0.2875 -0.4036 -0.5672
 7471TIP3   OH243827   2.040   6.544   0.125  0.1907  0.0134  0.2058
 7471TIP3    H143828   2.126   6.503   0.130  0.0864 -0.1239  0.9698
 7471TIP3    H243829   1.978   6.471   0.126  0.1258  0.0065 -2.6018
 7472TIP3   OH243830   5.636   4.428   5.040  0.0921 -0.4271 -0.3396
 7472TIP3    H143831   5.624   4.508   5.091  0.5471 -1.0030  0.6813
 7472TIP3    H243832   5.548   4.409   5.005 -0.5368 -0.7394  1.3244
 7473TIP3   OH243833   5.844   2.305   4.892 -0.6478  0.2408  0.0850
 7473TIP3    H143834   5.825   2.351   4.810 -1.4476  0.8919  0.6293
 7473TIP3    H243835   5.814   2.365   4.960  0.3157 -0.1555  0.8640
 7474TIP3   OH243836   5.967   4.422   0.991 -0.4377  0.2831 -0.2022
 7474TIP3    H143837   6.059   4.403   1.009 -0.6496 -0.1869  0.4122
 7474TIP3    H243838   5.968   4.481   0.916  0.2243 -2.2967 -2.2695
 7475TIP3   OH243839   5.026   5.541  12.004  0.0525 -0.4530  0.5131
 7475TIP3    H143840   5.001   5.491  11.927  0.5835 -2.3691  1.5588
 7475TIP3    H243841   5.102   5.495  12.039  1.7817  2.2031  0.4180
 7476TIP3   OH243842   2.740   0.744  10.841 -0.1786 -0.3429 -0.1256
 7476TIP3    H143843   2.780   0.831  10.835 -0.3000 -0.2437  0.4829
 7476TIP3    H243844   2.810   0.687  10.875  0.6318 -0.9888 -2.7641
 7477TIP3   OH243845   6.023   0.571   5.180 -0.7619 -0.3183 -0.0071
 7477TIP3    H143846   6.104   0.542   5.223  0.7695  2.0610 -1.1513
 7477TIP3    H243847   6.044   0.570   5.087 -2.4836 -0.8233 -0.4089
 7478TIP3   OH243848   1.944   4.024   5.089 -0.0274  0.3790 -0.1329
 7478TIP3    H143849   1.907   3.940   5.063  0.5097 -0.3626  1.4296
 7478TIP3    H243850   1.962   4.069   5.007 -1.6807 -0.4360 -0.9652
 7479TIP3   OH243851   0.557   5.333   6.078  0.2458 -0.2685  0.0696
 7479TIP3    H143852   0.500   5.284   6.137 -0.1453  1.1524  0.8724
 7479TIP3    H243853   0.645   5.314   6.109  0.1415 -1.0114 -0.0633
 7480TIP3   OH243854   2.508   6.091  13.843  0.3864  0.4884 -0.2758
 7480TIP3    H143855   2.585   6.103  13.899  0.5043  0.2780 -0.3928
 7480TIP3    H243856   2.530   6.017  13.787  0.4542  0.9990 -0.9251
 7481TIP3   OH243857   1.480   3.909  16.271  0.2701  0.6035 -1.3860
 7481TIP3    H143858   1.573   3.890  16.288  0.2608  0.7265 -1.1930
 7481TIP3    H243859   1.474   4.004  16.279  0.0338  0.5491 -0.9422
 7482TIP3   OH243860   4.624   5.850  13.252 -0.6915  0.4527 -0.5302
 7482TIP3    H143861   4.676   5.923  13.286 -0.5405  0.7813 -1.4462
 7482TIP3    H243862   4.602   5.877  13.162 -3.1527  0.7208  0.1090
 7483TIP3   OH243863   3.174   2.043  16.940 -0.2213  0.3872 -0.3329
 7483TIP3    H143864   3.234   2.088  16.881 -0.4382  1.0055 -0.0845
 7483TIP3    H243865   3.231   2.003  17.006  0.1027 -1.2901 -1.6039
 7484TIP3   OH243866   2.485   5.223  12.495  0.7049 -0.0088 -0.2506
 7484TIP3    H143867   2.393   5.247  12.503  1.2257  1.6955  0.9062
 7484TIP3    H243868   2.531   5.282  12.555  2.4652 -1.3763 -0.2077
 7485TIP3   OH243869   2.735   2.897  16.259 -0.5819 -0.1162  0.3461
 7485TIP3    H143870   2.737   2.943  16.342  2.6981  1.4488 -0.5238
 7485TIP3    H243871   2.728   2.966  16.193  0.9196 -1.0422 -0.8252
 7486TIP3   OH243872   3.929   2.053   0.433  0.3183 -0.1379 -0.4129
 7486TIP3    H143873   3.977   2.126   0.472  0.5853 -0.5940  0.1199
 7486TIP3    H243874   3.936   1.983   0.498 -2.8089  0.4305  0.6422
 7487TIP3   OH243875   2.063   0.418  14.951  0.0941 -0.4638 -0.1222
 7487TIP3    H143876   2.021   0.387  15.032 -0.6396  0.5914 -0.0852
 7487TIP3    H243877   1.991   0.451  14.898  0.8749  1.3386 -0.0789
 7488TIP3   OH243878   0.598   4.855  12.221 -0.0488  0.2539  0.0343
 7488TIP3    H143879   0.666   4.806  12.269 -0.4140 -0.8455 -0.5369
 7488TIP3    H243880   0.646   4.904  12.155  0.2176 -0.4600 -0.3159
 7489TIP3   OH243881   4.321   3.574   6.254  0.1029  1.0083 -0.0239
 7489TIP3    H143882   4.263   3.511   6.212 -0.1380  0.8691  0.5050
 7489TIP3    H243883   4.392   3.520   6.289 -1.9852  0.5037  3.7083
 7490TIP3   OH243884   2.016   2.785   0.442 -0.2745  0.4096  0.3688
 7490TIP3    H143885   1.969   2.702   0.432  0.3890  0.0087  0.5299
 7490TIP3    H243886   2.060   2.798   0.358 -1.9034  1.5705 -0.3359
 7491TIP3   OH243887   4.326   2.429  11.691 -0.6261  0.0257  0.0268
 7491TIP3    H143888   4.330   2.481  11.611 -0.5811 -1.6346 -1.0780
 7491TIP3    H243889   4.383   2.475  11.753 -1.1342  1.6450 -0.6870
 7492TIP3   OH243890   4.589   4.464  13.984  0.4867 -0.4331  0.1067
 7492TIP3    H143891   4.628   4.416  13.911 -1.0526  1.2195 -1.9062
 7492TIP3    H243892   4.658   4.524  14.013  1.0040 -0.8473 -0.2535
 7493TIP3   OH243893   1.556   5.749  16.829  0.4679  0.1430 -0.4675
 7493TIP3    H143894   1.495   5.746  16.756 -0.8280  1.4027  0.5301
 7493TIP3    H243895   1.510   5.797  16.897  1.8674 -0.5111  0.9848
 7494TIP3   OH243896   2.039   3.838   3.984  0.5485 -0.6619 -0.1386
 7494TIP3    H143897   1.970   3.898   3.958  2.1550  0.7382 -1.2602
 7494TIP3    H243898   2.092   3.826   3.905  2.5395 -0.4066  1.1129
 7495TIP3   OH243899   1.037   1.736   3.646 -0.0275 -0.8207  0.0528
 7495TIP3    H143900   0.995   1.797   3.706  0.0978 -0.3056 -0.3752
 7495TIP3    H243901   1.038   1.783   3.562 -0.2837 -1.5602 -0.3670
 7496TIP3   OH243902   6.692   2.203  15.147  0.3975 -0.6637  0.4194
 7496TIP3    H143903   6.612   2.165  15.183 -0.3511  0.6853  0.2179
 7496TIP3    H243904   6.661   2.265  15.081  1.6127 -0.1328  0.3369
 7497TIP3   OH243905   5.670   4.407   3.808 -0.2303 -0.0931  0.0071
 7497TIP3    H143906   5.598   4.467   3.787 -0.9023 -1.6743 -2.4000
 7497TIP3    H243907   5.627   4.329   3.844  0.2911 -0.8491 -0.9736
 7498TIP3   OH243908   3.180   1.952  13.590 -0.7639  0.6513 -0.4189
 7498TIP3    H143909   3.146   2.008  13.521 -1.1501 -0.1982 -0.9329
 7498TIP3    H243910   3.171   1.863  13.555  1.5262  0.3704 -0.3743
 7499TIP3   OH243911   4.189   1.798  16.121  0.0151 -0.3594  0.1328
 7499TIP3    H143912   4.227   1.875  16.163 -0.5397  0.2217 -0.3967
 7499TIP3    H243913   4.152   1.747  16.192  1.5954 -0.8257  0.6256
 7500TIP3   OH243914   6.258   0.364   0.252 -0.4733 -0.5184  0.4647
 7500TIP3    H143915   6.311   0.321   0.319  0.2523 -0.2629  0.0628
 7500TIP3    H243916   6.174   0.379   0.294 -0.2186 -0.9001  1.1245
 7501TIP3   OH243917   4.266   0.048  13.220 -0.0841  0.4175  0.6962
 7501TIP3    H143918   4.338   0.111  13.218 -1.1994  1.6746 -0.2934
 7501TIP3    H243919   4.254   0.029  13.313  1.5648  0.1308  0.8691
 7502TIP3   OH243920   1.132   0.905   4.589 -0.3378  0.1388  0.1767
 7502TIP3    H143921   1.186   0.826   4.593 -1.3342 -0.5866 -0.2508
 7502TIP3    H243922   1.043   0.872   4.574 -0.7546  1.3464 -0.0864
 7503TIP3   OH243923   6.234   5.843   4.804  0.0095 -0.8772  0.0165
 7503TIP3    H143924   6.216   5.903   4.876 -1.9094 -2.2330  0.6876
 7503TIP3    H243925   6.200   5.889   4.726 -0.2356 -0.5250  0.3286
 7504TIP3   OH243926   5.023   5.863   5.561  0.0052  0.2436 -0.3153
 7504TIP3    H143927   4.952   5.809   5.527  0.2469  0.6550 -1.5128
 7504TIP3    H243928   5.073   5.804   5.619 -0.5866 -0.3893 -0.4463
 7505TIP3   OH243929   2.183   4.779  14.100  0.3852  1.3706 -0.4660
 7505TIP3    H143930   2.244   4.706  14.088  0.0240  0.4291  3.1168
 7505TIP3    H243931   2.239   4.857  14.102  1.3383  0.6530  1.3501
 7506TIP3   OH243932   6.004   5.894  13.260 -0.6986  0.2917  0.4391
 7506TIP3    H143933   6.061   5.829  13.301  0.8411  0.5707 -1.2163
 7506TIP3    H243934   6.061   5.970  13.246 -1.0675  0.0525 -2.5873
 7507TIP3   OH243935   0.635   5.580  12.307 -0.3120  0.1012  0.2072
 7507TIP3    H143936   0.721   5.543  12.326 -0.5671 -0.7458 -0.2121
 7507TIP3    H243937   0.577   5.540  12.372 -0.7210 -0.8126 -0.7026
 7508TIP3   OH243938   0.070   1.648  16.644 -0.0254  0.1982  0.1751
 7508TIP3    H143939   0.115   1.671  16.725 -0.5335  0.7566  0.3050
 7508TIP3    H243940   0.087   1.555  16.632  1.1185  0.3947  0.2449
 7509TIP3   OH243941   0.767   0.392  16.042 -0.6506 -0.2029  0.7072
 7509TIP3    H143942   0.671   0.389  16.041 -0.6084 -2.1452 -0.7509
 7509TIP3    H243943   0.794   0.301  16.033  1.3339  0.6264 -2.3855
 7510TIP3   OH243944   0.046   1.364   5.744  0.0369  0.2560 -0.1495
 7510TIP3    H143945  -0.011   1.423   5.695  0.6966  1.0389  0.0026
 7510TIP3    H243946   0.014   1.368   5.834 -0.2097  0.0143 -0.2246
 7511TIP3   OH243947   3.531   1.261  12.098  0.1017  0.3167  0.3024
 7511TIP3    H143948   3.622   1.282  12.118  0.5415 -0.5050 -0.8019
 7511TIP3    H243949   3.524   1.270  12.003 -0.7190 -0.6029  0.2624
 7512TIP3   OH243950   5.228   5.093  15.141  0.9095  0.2508  0.2006
 7512TIP3    H143951   5.152   5.076  15.084  2.4752 -0.7251 -1.6425
 7512TIP3    H243952   5.303   5.061  15.091  2.3695 -0.4307  2.7445
 7513TIP3   OH243953   4.602   3.445   1.906 -0.3397  0.5700  0.4169
 7513TIP3    H143954   4.604   3.352   1.880  1.4659  0.2280  1.7033
 7513TIP3    H243955   4.685   3.459   1.950 -0.0288  3.1753 -0.9297
 7514TIP3   OH243956   5.268   0.292  14.339 -0.3734  0.2389  0.0308
 7514TIP3    H143957   5.245   0.202  14.318  0.0135  0.1002  0.1985
 7514TIP3    H243958   5.341   0.285  14.401 -0.3895  0.6643  0.1032
 7515TIP3   OH243959   3.769   3.575  10.712  0.3329 -0.0952  0.0361
 7515TIP3    H143960   3.693   3.537  10.667  2.1210 -1.5754 -1.8481
 7515TIP3    H243961   3.796   3.507  10.774 -0.9746  1.1849  2.0637
 7516TIP3   OH243962   4.113   5.489   4.509 -0.1154 -0.0711  0.6328
 7516TIP3    H143963   4.080   5.484   4.599 -1.9777 -1.0508 -0.0740
 7516TIP3    H243964   4.045   5.447   4.457  0.6273  1.1188 -1.3260
 7517TIP3   OH243965   2.863   3.043  12.067 -0.4325  0.1171  0.0717
 7517TIP3    H143966   2.915   3.019  12.143  0.6150  1.4769 -0.1879
 7517TIP3    H243967   2.907   3.001  11.993 -2.0939 -2.1282  0.3312
 7518TIP3   OH243968   4.268   1.051   3.930  0.4640 -0.1085 -0.3406
 7518TIP3    H143969   4.263   1.113   3.857 -0.7602  0.3158  0.0860
 7518TIP3    H243970   4.190   0.996   3.920 -0.1263  0.4398  1.0770
 7519TIP3   OH243971   2.734   4.906   0.951  0.2003 -0.4814 -0.5789
 7519TIP3    H143972   2.647   4.927   0.917  1.4290  0.2551 -3.3979
 7519TIP3    H243973   2.742   4.960   1.030 -1.0080  1.2336 -1.5879
 7520TIP3   OH243974   0.207   6.777  16.083  0.1939  0.1060 -0.4602
 7520TIP3    H143975   0.131   6.821  16.044 -0.1591 -0.4932 -0.4522
 7520TIP3    H243976   0.193   6.684  16.065  1.6801  0.1221 -1.7526
 7521TIP3   OH243977   6.352   1.830   5.204 -0.1126  0.5453 -0.3759
 7521TIP3    H143978   6.331   1.758   5.263  1.3557 -0.9668 -1.6180
 7521TIP3    H243979   6.309   1.806   5.122  0.0669  1.2599 -0.6774
 7522TIP3   OH243980   0.535   3.423   1.177  0.0963  0.5316  0.3973
 7522TIP3    H143981   0.623   3.458   1.190  0.1413  0.8750 -0.7275
 7522TIP3    H243982   0.512   3.449   1.087 -1.0022  0.1303  0.5514
 7523TIP3   OH243983   0.422   2.815  14.631  0.7365  0.0053  0.2948
 7523TIP3    H143984   0.418   2.733  14.582  2.7037 -0.4301  0.8294
 7523TIP3    H243985   0.503   2.810  14.681  0.1066  1.6069  1.5429
 7524TIP3   OH243986   3.785   1.024   1.455  0.0810 -0.0684  0.1220
 7524TIP3    H143987   3.795   0.933   1.426  0.5246  0.2378 -0.6858
 7524TIP3    H243988   3.864   1.068   1.425 -1.3649  1.2287 -1.9405
 7525TIP3   OH243989   1.097   3.063  12.217  0.3707  0.3195  0.4080
 7525TIP3    H143990   1.134   3.064  12.129 -1.4539  1.0556 -0.3704
 7525TIP3    H243991   1.055   2.977  12.224  0.7013  0.1759  0.6481
 7526TIP3   OH243992   3.672   4.289   2.025  0.6271  0.3599  0.0084
 7526TIP3    H143993   3.662   4.315   2.117  0.4379 -1.7816  0.6179
 7526TIP3    H243994   3.590   4.316   1.984  0.5158  0.8969  0.5691
 7527TIP3   OH243995   2.741   1.792   0.465  0.2952 -0.0565 -0.5703
 7527TIP3    H143996   2.817   1.746   0.430  0.9224  0.9774 -0.5958
 7527TIP3    H243997   2.669   1.728   0.460  1.1025 -0.9587 -0.7615
 7528TIP3   OH243998   2.074   1.288  13.120  0.2957 -0.1400  0.5972
 7528TIP3    H143999   2.072   1.311  13.213  1.5901  1.2665  0.2847
 7528TIP3    H244000   2.117   1.361  13.078  1.1306 -1.4745 -0.9184
 7529TIP3   OH244001   5.258   6.023  15.992 -0.6116 -0.2702  0.6816
 7529TIP3    H144002   5.171   6.019  16.031 -1.4430 -1.5396 -1.2378
 7529TIP3    H244003   5.315   6.054  16.063 -2.2900 -1.2615  2.5124
 7530TIP3   OH244004   1.768   4.139  10.870 -0.1961  0.2967  0.3410
 7530TIP3    H144005   1.783   4.203  10.800 -0.7990 -0.3381 -0.3672
 7530TIP3    H244006   1.673   4.127  10.872 -0.1713  0.2430  1.2054
 7531TIP3   OH244007   0.860   4.387   5.112  0.4043 -0.2957  0.7285
 7531TIP3    H144008   0.781   4.391   5.059  1.2493 -2.1447 -0.7444
 7531TIP3    H244009   0.896   4.475   5.109 -0.3373 -0.0247 -0.5896
 7532TIP3   OH244010   3.113   5.148  13.008 -0.5575  0.4662 -0.4388
 7532TIP3    H144011   3.061   5.166  12.929 -0.7884  0.3270 -0.3185
 7532TIP3    H244012   3.150   5.233  13.031 -1.4255  0.7449 -0.0337
 7533TIP3   OH244013   4.473   2.986   5.533  0.1553 -0.5662  0.4727
 7533TIP3    H144014   4.567   2.982   5.551  0.3944  0.9175 -0.3238
 7533TIP3    H244015   4.439   3.046   5.599  0.5191  2.3571 -1.8769
 7534TIP3   OH244016   3.644   3.262   5.941  0.0434  0.0689 -0.8433
 7534TIP3    H144017   3.713   3.269   5.875 -0.0063 -0.7821 -1.0006
 7534TIP3    H244018   3.690   3.256   6.025  0.1219  0.6888 -0.8410
 7535TIP3   OH244019   5.340   1.924   0.815  0.0832  0.4273 -0.2884
 7535TIP3    H144020   5.387   1.999   0.778 -2.8155  1.6940 -1.5533
 7535TIP3    H244021   5.390   1.900   0.893  3.6330  0.7526 -2.3611
 7536TIP3   OH244022   4.266   4.887  11.625 -0.1736  0.4159 -0.6408
 7536TIP3    H144023   4.327   4.948  11.666  0.2288 -0.0983 -0.4596
 7536TIP3    H244024   4.292   4.885  11.533 -1.2595  1.7865 -0.9791
 7537TIP3   OH244025   2.529   6.064   5.278 -0.2961  0.3593 -0.0900
 7537TIP3    H144026   2.486   6.125   5.219 -1.5933  0.1629  0.6442
 7537TIP3    H244027   2.547   6.115   5.357 -0.2250  0.1350  0.0401
 7538TIP3   OH244028   1.019   3.808  14.958 -0.5865  0.3484 -0.0644
 7538TIP3    H144029   1.032   3.718  14.928 -1.9074 -0.2254  1.0124
 7538TIP3    H244030   1.037   3.862  14.881  0.0279 -0.8415 -0.7750
 7539TIP3   OH244031   4.747   1.728   6.755 -0.4043  0.1390 -0.6079
 7539TIP3    H144032   4.757   1.658   6.820 -2.1918  0.8637  0.4821
 7539TIP3    H244033   4.689   1.690   6.689 -0.3438  0.1457 -0.6639
 7540TIP3   OH244034   3.134   2.651   4.794  0.2162  0.5113  0.2938
 7540TIP3    H144035   3.214   2.638   4.743 -0.2497 -1.6537  0.0385
 7540TIP3    H244036   3.154   2.615   4.881 -0.1766  0.8173  0.5167
 7541TIP3   OH244037   3.869   4.962   6.503  0.1887  0.9860  0.3420
 7541TIP3    H144038   3.878   4.907   6.424  0.1638 -1.5198  2.0139
 7541TIP3    H244039   3.951   5.011   6.507  0.5768  0.4552 -0.7340
 7542TIP3   OH244040   5.270   3.948  11.366 -0.0905 -0.3594  0.6148
 7542TIP3    H144041   5.301   3.872  11.317  0.1942 -0.3798  0.8217
 7542TIP3    H244042   5.340   3.965  11.430 -0.0097  0.2666  0.3616
 7543TIP3   OH244043   5.430   3.739   4.983  0.2527 -0.0760 -0.7723
 7543TIP3    H144044   5.459   3.830   4.992  1.6902 -0.5812 -0.2217
 7543TIP3    H244045   5.335   3.746   4.975  0.3313  1.4726 -0.6456
 7544TIP3   OH244046   5.659   1.292  13.213  0.3178  0.4259  0.2360
 7544TIP3    H144047   5.598   1.360  13.183  0.5843  1.4058  1.8403
 7544TIP3    H244048   5.617   1.255  13.291  1.1830  0.2279  0.6125
 7545TIP3   OH244049   3.431   3.464  16.778 -0.7294 -0.4167 -0.2295
 7545TIP3    H144050   3.375   3.395  16.812  1.5606 -1.5528  1.4463
 7545TIP3    H244051   3.404   3.543  16.825 -1.6308 -0.7041 -0.2575
 7546TIP3   OH244052   3.886   5.074  13.923  0.5038 -0.4607  0.2902
 7546TIP3    H144053   3.914   5.111  14.007 -0.8603  1.2663  0.0181
 7546TIP3    H244054   3.928   4.988  13.919  1.8479  0.0937  2.0252
 7547TIP3   OH244055   4.783   4.750   5.693  0.1338  0.4599 -0.0186
 7547TIP3    H144056   4.803   4.673   5.745  0.3146  1.5630  1.6014
 7547TIP3    H244057   4.863   4.767   5.644  0.1806 -0.2382 -0.1842
 7548TIP3   OH244058   2.224   5.572   5.176 -0.1331  0.4429  0.5572
 7548TIP3    H144059   2.263   5.536   5.096 -2.3742 -1.0726  0.1261
 7548TIP3    H244060   2.151   5.626   5.145  0.1907  1.4484  1.4907
 7549TIP3   OH244061   2.213   6.664  10.993 -0.5105 -0.3826  0.0928
 7549TIP3    H144062   2.269   6.741  10.991  0.0484 -0.7014  2.2790
 7549TIP3    H244063   2.238   6.614  10.915  1.9223 -0.2759  0.7516
 7550TIP3   OH244064   2.038   4.968   3.910 -0.4546 -0.6814 -0.3691
 7550TIP3    H144065   2.118   4.946   3.957 -0.8583  2.2176  1.8064
 7550TIP3    H244066   1.972   4.908   3.944 -0.1012 -0.4612  0.7051
 7551TIP3   OH244067   4.277   0.179  12.437 -0.4820 -0.2340 -0.7091
 7551TIP3    H144068   4.362   0.154  12.474 -0.1516 -0.2499 -1.4650
 7551TIP3    H244069   4.238   0.096  12.409 -0.6615 -0.2067 -0.5372
 7552TIP3   OH244070   5.702   0.101  11.053  0.6735 -0.4008 -0.5757
 7552TIP3    H144071   5.781   0.050  11.034  0.9241  0.2250 -1.2482
 7552TIP3    H244072   5.715   0.183  11.005  0.3154  0.3240  0.5514
 7553TIP3   OH244073   6.088   1.125  12.571 -0.5675  0.2870  0.3310
 7553TIP3    H144074   6.007   1.114  12.622 -0.6739  2.1470  0.6145
 7553TIP3    H244075   6.077   1.210  12.529  0.9636  0.2300 -0.1919
 7554TIP3   OH244076   0.024   3.153  17.222  0.2993 -0.1834 -0.5584
 7554TIP3    H144077   0.091   3.187  17.281  1.6173  1.9386 -3.1211
 7554TIP3    H244078  -0.049   3.214  17.231  1.3662  1.4911 -2.6699
 7555TIP3   OH244079   2.537   3.030  15.996 -0.4611  0.1565 -0.7020
 7555TIP3    H144080   2.463   3.052  16.051  0.0158  1.1031 -0.4271
 7555TIP3    H244081   2.614   3.054  16.048  0.0675 -1.4379 -0.7048
 7556TIP3   OH244082   0.960   6.388  15.969 -0.1322  0.4904 -0.4952
 7556TIP3    H144083   1.000   6.474  15.958 -1.1157  1.1405  0.8186
 7556TIP3    H244084   0.881   6.405  16.021 -0.1869 -1.2360  0.0236
 7557TIP3   OH244085   3.651   6.380  11.433  0.1969 -0.3341 -0.0384
 7557TIP3    H144086   3.675   6.471  11.451  0.2510 -0.7104  1.8609
 7557TIP3    H244087   3.601   6.385  11.352  0.9789  1.2767 -0.4429
 7558TIP3   OH244088   0.442   5.443   6.589  0.2440 -0.2555 -0.8925
 7558TIP3    H144089   0.363   5.402   6.555  0.0276 -0.8056  0.2439
 7558TIP3    H244090   0.425   5.454   6.683  0.8867  1.0862 -0.9144
 7559TIP3   OH244091   0.153   5.886   1.623  0.4834  0.5465  0.7409
 7559TIP3    H144092   0.184   5.890   1.533  0.7471  2.1265  0.8855
 7559TIP3    H244093   0.087   5.817   1.623  1.8699 -0.7896 -0.2290
 7560TIP3   OH244094   0.128   1.933  16.641 -1.0044 -0.1040 -0.1073
 7560TIP3    H144095   0.148   1.926  16.734  0.2975 -0.7164 -0.4287
 7560TIP3    H244096   0.113   1.842  16.612 -0.0536 -0.0581 -0.7794
 7561TIP3   OH244097   6.036   3.946  13.809 -0.2809 -1.2106  0.0638
 7561TIP3    H144098   6.074   4.021  13.763  2.1068 -1.7082  1.1561
 7561TIP3    H244099   6.013   3.885  13.739 -1.3401  0.1095 -0.7751
 7562TIP3   OH244100   3.054   4.908   4.331  0.3506  0.3246 -0.5310
 7562TIP3    H144101   2.998   4.966   4.382 -1.1248 -1.9631  0.5599
 7562TIP3    H244102   3.018   4.911   4.242  0.4654  1.2903 -0.5432
 7563TIP3   OH244103   0.893   2.559  15.161  0.8259 -0.1194  0.4057
 7563TIP3    H144104   0.849   2.641  15.183 -1.6259 -0.4943 -2.7672
 7563TIP3    H244105   0.830   2.491  15.184  1.0899 -0.8690 -1.0463
 7564TIP3   OH244106   3.673   3.275   4.377  0.1002 -0.2260  0.0605
 7564TIP3    H144107   3.645   3.321   4.298 -0.4564 -0.1076  0.3212
 7564TIP3    H244108   3.670   3.183   4.353  0.0307 -0.1856 -0.0897
 7565TIP3   OH244109   6.232   0.720   1.176  0.1693 -0.2362  0.0300
 7565TIP3    H144110   6.252   0.626   1.184  1.5265 -0.1873 -2.2830
 7565TIP3    H244111   6.227   0.735   1.082 -3.9959  1.2632  0.4078
 7566TIP3   OH244112   1.594   1.006  11.510  0.1867  0.2608  0.3820
 7566TIP3    H144113   1.639   1.090  11.508  0.0258  0.3538 -3.3638
 7566TIP3    H244114   1.501   1.028  11.506  0.1151 -0.0806  0.1143
 7567TIP3   OH244115   6.171   0.674   0.347 -0.2416  0.4499 -0.2171
 7567TIP3    H144116   6.253   0.632   0.321 -1.1819 -0.5897 -1.6176
 7567TIP3    H244117   6.151   0.636   0.432 -0.2558 -0.7913 -0.7561
 7568TIP3   OH244118   6.096   4.706   5.769 -1.0223  0.5124 -0.0268
 7568TIP3    H144119   6.178   4.675   5.731 -0.7915  0.2724  0.6514
 7568TIP3    H244120   6.114   4.713   5.863 -0.9956  2.9372 -0.1809
 7569TIP3   OH244121   2.829   1.958   2.346  0.3133  0.2287  0.2487
 7569TIP3    H144122   2.914   1.967   2.390 -0.9522 -0.0435  2.8452
 7569TIP3    H244123   2.809   2.046   2.314  1.6814  0.2406 -0.5880
 7570TIP3   OH244124   4.016   2.696  13.202  0.1583 -0.2006 -1.0021
 7570TIP3    H144125   3.986   2.675  13.290  0.8437  0.2524 -0.6491
 7570TIP3    H244126   4.112   2.694  13.208  0.2621  2.5307 -1.0343
 7571TIP3   OH244127   4.872   0.463   3.632 -0.6713 -0.5087 -0.5679
 7571TIP3    H144128   4.932   0.520   3.584 -0.3138  1.3552  2.0145
 7571TIP3    H244129   4.785   0.492   3.606 -0.5543 -1.9476 -2.8259
 7572TIP3   OH244130   0.887   4.591  16.972  0.4963  0.4205 -0.0669
 7572TIP3    H144131   0.959   4.531  16.991  0.5432  1.0537  1.8893
 7572TIP3    H244132   0.813   4.534  16.951  1.8517 -0.2207 -3.4407
 7573TIP3   OH244133   2.231   6.105   5.876  0.0010  0.2060  0.4344
 7573TIP3    H144134   2.279   6.181   5.908 -2.2347  1.0222  1.9723
 7573TIP3    H244135   2.206   6.057   5.955  0.5640 -1.6394 -0.4678
 7574TIP3   OH244136   5.933   2.166   1.769 -0.1777  0.1207 -0.2585
 7574TIP3    H144137   5.865   2.230   1.750 -0.9571 -0.6217  0.0027
 7574TIP3    H244138   6.011   2.200   1.725 -1.0010  0.3778 -1.5607
 7575TIP3   OH244139   1.111   1.817   2.316  0.6034 -0.5519  0.5007
 7575TIP3    H144140   1.084   1.771   2.396 -0.4497  1.4866  1.3447
 7575TIP3    H244141   1.087   1.757   2.245 -0.7660 -1.3174  1.5734
 7576TIP3   OH244142   0.577   1.546   4.764  0.1595  0.2567 -0.3812
 7576TIP3    H144143   0.593   1.614   4.830 -0.1494  0.1816 -0.2279
 7576TIP3    H244144   0.508   1.493   4.801 -0.6264  0.7272 -1.1518
 7577TIP3   OH244145   2.008   5.879   4.438 -0.2473 -0.2503 -0.3175
 7577TIP3    H144146   2.079   5.852   4.381  0.5296  0.9882  0.0237
 7577TIP3    H244147   2.049   5.889   4.524 -1.4794 -2.4783  0.5588
 7578TIP3   OH244148   0.274   5.277   0.890 -0.4232 -0.3086 -0.1294
 7578TIP3    H144149   0.254   5.255   0.799  2.2546 -0.9158 -0.6062
 7578TIP3    H244150   0.341   5.214   0.916 -0.9239  0.0670  2.1654
 7579TIP3   OH244151   5.639   6.052   1.653  0.5957  0.3985  0.0035
 7579TIP3    H144152   5.562   6.047   1.596  1.3808  2.2776 -1.2641
 7579TIP3    H244153   5.616   5.999   1.729 -1.1469 -0.7579 -1.2818
 7580TIP3   OH244154   6.301   4.546  14.903 -0.3633 -0.2140  0.1597
 7580TIP3    H144155   6.331   4.494  14.828  0.5147 -1.5883  1.4379
 7580TIP3    H244156   6.367   4.532  14.970 -2.1330 -0.5579  1.8787
 7581TIP3   OH244157   3.368   5.412  11.421 -0.1238 -0.5204 -0.5038
 7581TIP3    H144158   3.390   5.498  11.384 -1.5548  0.7923  1.5675
 7581TIP3    H244159   3.443   5.357  11.401  2.6311  2.3058  1.6510
 7582TIP3   OH244160   5.972   2.946  14.131 -0.4418 -0.7396 -0.7020
 7582TIP3    H144161   6.033   2.995  14.186 -1.1434 -1.5812  0.8580
 7582TIP3    H244162   6.028   2.882  14.085  0.1190 -0.1808 -0.8037
 7583TIP3   OH244163   1.504   0.788  14.753  0.2103  0.1382  0.0727
 7583TIP3    H144164   1.594   0.767  14.727 -0.0389 -0.7875 -0.0746
 7583TIP3    H244165   1.453   0.774  14.673  0.0014  1.1219  0.0308
 7584TIP3   OH244166   0.110   5.566  16.340  0.4894 -0.3661  0.4671
 7584TIP3    H144167   0.156   5.484  16.321  0.5315 -0.5596  1.3419
 7584TIP3    H244168   0.144   5.629  16.277  0.7100 -0.9447  0.0073
 7585TIP3   OH244169   3.122   2.302   0.653  0.2793  0.6446 -0.4346
 7585TIP3    H144170   3.031   2.330   0.663  0.6435  1.5958  0.3654
 7585TIP3    H244171   3.139   2.249   0.731  0.7704  1.4981  0.0503
 7586TIP3   OH244172   5.798   1.901   3.365  0.0530  0.3231  0.2925
 7586TIP3    H144173   5.749   1.959   3.423 -0.5449  1.1696 -1.0253
 7586TIP3    H244174   5.890   1.917   3.387 -0.1916 -0.0039  1.5908
 7587TIP3   OH244175   2.640   3.180  11.972  0.5069 -0.0129 -0.7091
 7587TIP3    H144176   2.725   3.143  11.998  0.0412 -1.5074 -1.2657
 7587TIP3    H244177   2.649   3.274  11.990  2.1414 -0.2030 -0.3826
 7588TIP3   OH244178   6.421   3.762   1.641 -0.3158 -0.2191  0.3001
 7588TIP3    H144179   6.397   3.819   1.569 -2.3311 -0.1550  0.9792
 7588TIP3    H244180   6.383   3.677   1.619  2.0986 -1.1561 -0.3905
 7589TIP3   OH244181   5.680   3.061  15.628  0.0205 -0.3484 -0.2601
 7589TIP3    H144182   5.672   3.155  15.613  0.0981 -0.3367 -0.2298
 7589TIP3    H244183   5.770   3.040  15.603 -0.7506 -0.8787 -2.7784
 7590TIP3   OH244184   2.354   1.873   0.992  0.1346  0.1437 -0.0572
 7590TIP3    H144185   2.333   1.960   0.958 -1.6486 -0.2319  0.0495
 7590TIP3    H244186   2.425   1.889   1.054  0.2172  1.4485 -0.4653
 7591TIP3   OH244187   3.720   2.079   2.193 -0.1259  0.2418  0.4765
 7591TIP3    H144188   3.778   2.010   2.162 -1.0468 -0.3249 -0.0182
 7591TIP3    H244189   3.737   2.085   2.287  0.9389  0.2862  0.2776
 7592TIP3   OH244190   0.646   5.922  12.750  0.0272  1.0120 -0.3642
 7592TIP3    H144191   0.599   5.982  12.691 -1.5622  0.1257 -0.0243
 7592TIP3    H244192   0.600   5.839  12.742  0.5023  0.5659  1.2506
 7593TIP3   OH244193   6.659   4.512  16.349 -0.8797 -0.4673 -0.2050
 7593TIP3    H144194   6.578   4.500  16.398 -0.1909 -0.5396  0.9370
 7593TIP3    H244195   6.651   4.600  16.311 -0.4906  0.5026  1.8695
 7594TIP3   OH244196   2.246   4.729  11.369 -0.3162 -0.1139 -0.4388
 7594TIP3    H144197   2.271   4.746  11.460  1.5356  1.4027 -1.1846
 7594TIP3    H244198   2.160   4.689  11.375 -1.0783  1.7509  1.8968
 7595TIP3   OH244199   6.656   1.493  10.768 -0.4633 -0.0430  0.1432
 7595TIP3    H144200   6.570   1.489  10.726 -0.4811  1.6967 -0.0210
 7595TIP3    H244201   6.716   1.459  10.702 -0.7183  1.0902 -0.7040
 7596TIP3   OH244202   4.306   4.312  13.713  0.2551 -0.2043  0.4941
 7596TIP3    H144203   4.293   4.259  13.792 -0.3234  0.6888  1.0155
 7596TIP3    H244204   4.289   4.401  13.742 -2.7399 -0.1242 -1.2351
 7597TIP3   OH244205   1.274   2.362  11.754 -0.1258  0.2415  0.5563
 7597TIP3    H144206   1.251   2.406  11.672 -2.4283  1.6379  1.8840
 7597TIP3    H244207   1.295   2.433  11.815 -0.9254 -0.6108  1.8714
 7598TIP3   OH244208   2.791   5.444   1.589  0.3587 -0.4417 -0.4493
 7598TIP3    H144209   2.823   5.484   1.508 -0.0611 -0.7325 -0.7656
 7598TIP3    H244210   2.700   5.420   1.569 -0.3482  1.1724  0.7188
 7599TIP3   OH244211   0.934   2.964   1.309  0.1177 -0.1377 -0.0632
 7599TIP3    H144212   0.930   3.058   1.292 -0.6521 -0.4779 -1.9614
 7599TIP3    H244213   1.028   2.944   1.312  0.2979  0.4252 -1.3797
 7600TIP3   OH244214   4.271   1.548  15.983  0.3643 -0.1337 -0.4972
 7600TIP3    H144215   4.261   1.491  16.059  1.0575 -1.2267 -1.2135
 7600TIP3    H244216   4.222   1.627  16.006 -1.0305 -1.2064  0.2928
 7601TIP3   OH244217   6.599   2.152  11.659  0.2603 -0.6270  0.3549
 7601TIP3    H144218   6.597   2.246  11.644  1.5259 -0.6991 -0.3040
 7601TIP3    H244219   6.638   2.116  11.580 -0.9597 -1.7871  0.2572
 7602TIP3   OH244220   0.765   6.604  14.977 -0.2509 -0.0469 -0.9319
 7602TIP3    H144221   0.807   6.656  15.045 -0.3057 -0.2800 -0.7211
 7602TIP3    H244222   0.785   6.650  14.896  2.8316 -1.6529 -1.1612
 7603TIP3   OH244223   2.226   2.620  16.908 -0.2154  0.0059 -1.1377
 7603TIP3    H144224   2.203   2.552  16.846 -0.9225 -0.3436 -0.4960
 7603TIP3    H244225   2.259   2.692  16.854  1.8931 -1.3583 -1.7227
 7604TIP3   OH244226   0.956   0.835   2.231 -0.0322 -0.0500  0.3501
 7604TIP3    H144227   0.905   0.915   2.241  0.2152  0.3545 -1.3464
 7604TIP3    H244228   0.971   0.829   2.136 -1.3753 -2.9270  0.2644
 7605TIP3   OH244229   6.487   2.366   0.913 -0.5527 -0.2404  0.1549
 7605TIP3    H144230   6.518   2.431   0.977  1.3207  0.5765 -1.5440
 7605TIP3    H244231   6.561   2.353   0.854 -2.3691 -0.7083 -2.0851
 7606TIP3   OH244232   4.938   6.251   5.699  0.3098 -0.2396  0.3112
 7606TIP3    H144233   4.951   6.160   5.725  2.0031  0.1151  0.7484
 7606TIP3    H244234   4.854   6.276   5.738  0.0742 -1.4627  0.5905
 7607TIP3   OH244235   3.671   5.656   4.084 -0.7303 -0.5792  0.3371
 7607TIP3    H144236   3.691   5.631   3.994 -2.4189 -2.0885  0.3629
 7607TIP3    H244237   3.756   5.661   4.127  0.0875  0.0524 -1.3033
 7608TIP3   OH244238   5.621   4.468   0.425 -0.0543 -0.6059  0.3621
 7608TIP3    H144239   5.611   4.462   0.329  0.2983 -2.6698  0.4531
 7608TIP3    H244240   5.552   4.411   0.459 -1.7201  1.9448  1.4172
 7609TIP3   OH244241   6.321   1.218  10.870  0.4567  0.1956  0.2873
 7609TIP3    H144242   6.304   1.197  10.778  1.1718  0.5454  0.0730
 7609TIP3    H244243   6.289   1.142  10.918 -0.8579  0.4418 -0.1735
 7610TIP3   OH244244   5.495   1.327  15.687 -0.6817 -0.0625 -0.5398
 7610TIP3    H144245   5.422   1.388  15.697 -0.7250 -0.1010 -0.6256
 7610TIP3    H244246   5.475   1.279  15.607 -0.6979 -0.2572 -0.4179
 7611TIP3   OH244247   6.596   3.399  10.677 -0.8587  0.3952 -0.2721
 7611TIP3    H144248   6.623   3.320  10.629  0.2917  1.9261 -2.2390
 7611TIP3    H244249   6.522   3.433  10.628 -0.4155  1.3414 -0.2934
 7612TIP3   OH244250   4.847   0.687   5.474 -0.3481  0.4661 -0.3533
 7612TIP3    H144251   4.888   0.756   5.423  0.0634  0.1745 -0.4188
 7612TIP3    H244252   4.771   0.660   5.423 -0.2581  0.5642 -0.5382
 7613TIP3   OH244253   3.052   1.041  12.133  0.3100 -0.3948 -0.5613
 7613TIP3    H144254   3.129   1.076  12.179  0.5619 -0.7563 -0.7078
 7613TIP3    H244255   2.979   1.059  12.192  0.5819 -0.5319 -0.1825
 7614TIP3   OH244256   1.468   2.252  15.860  0.6691 -0.3757  0.6902
 7614TIP3    H144257   1.414   2.223  15.934  1.2940 -1.1946  0.8328
 7614TIP3    H244258   1.408   2.302  15.805  0.2203  0.3450  1.8051
 7615TIP3   OH244259   5.782   6.430   4.740 -0.2821 -0.1950  0.0927
 7615TIP3    H144260   5.733   6.452   4.820 -0.8198  2.5517 -0.9328
 7615TIP3    H244261   5.717   6.392   4.681 -0.3604 -0.1219  0.1320
 7616TIP3   OH244262   2.086   1.824   5.448  0.0334 -0.5398 -0.4001
 7616TIP3    H144263   1.996   1.856   5.437 -0.2714 -0.8707  0.9328
 7616TIP3    H244264   2.076   1.743   5.498  0.9193 -1.7901 -2.2305
 7617TIP3   OH244265   2.664   0.326   5.357 -0.4237  0.8330 -0.1514
 7617TIP3    H144266   2.678   0.408   5.309  0.8139  0.2809 -0.7614
 7617TIP3    H244267   2.574   0.301   5.336 -0.2211  1.1186 -1.4030
 7618TIP3   OH244268   0.084   1.704   0.593  0.3370 -0.3296 -0.6071
 7618TIP3    H144269   0.013   1.668   0.539  0.0543 -0.2815 -0.2733
 7618TIP3    H244270   0.137   1.755   0.532 -0.7075  0.7857 -0.6009
 7619TIP3   OH244271   0.566   1.429  10.993  0.3763 -0.0055  0.1034
 7619TIP3    H144272   0.525   1.512  11.015 -2.2044 -1.3832  0.6920
 7619TIP3    H244273   0.498   1.380  10.945  1.7842 -1.8180 -0.1188
 7620TIP3   OH244274   2.673   2.022   5.083 -0.1765  0.5569  0.5711
 7620TIP3    H144275   2.672   2.058   4.994  0.2367  0.4076  0.5090
 7620TIP3    H244276   2.700   1.931   5.072  2.7076  1.3149  1.1402
 7621TIP3   OH244277   5.935   1.383   1.923 -0.2268 -0.1282 -0.7397
 7621TIP3    H144278   5.938   1.302   1.974  1.2326 -0.3545 -1.1767
 7621TIP3    H244279   5.842   1.393   1.901 -0.5601 -1.1690  0.1330
 7622TIP3   OH244280   1.502   4.359   0.550 -0.2947 -0.2898  0.4200
 7622TIP3    H144281   1.537   4.449   0.556  1.2535 -0.7270 -1.4837
 7622TIP3    H244282   1.417   4.370   0.509  0.2544  0.2600 -0.6071
 7623TIP3   OH244283   0.863   4.466   4.192 -0.4465  0.1243 -0.9772
 7623TIP3    H144284   0.851   4.474   4.286  0.8617 -0.6182 -0.7415
 7623TIP3    H244285   0.833   4.378   4.171  0.9905 -0.3869 -0.9547
 7624TIP3   OH244286   0.990   4.894   2.690 -0.5164 -0.0669  0.3918
 7624TIP3    H144287   0.951   4.891   2.777  0.1732 -0.8379  0.6781
 7624TIP3    H244288   1.084   4.890   2.705 -0.4199 -0.9886 -0.4258
 7625TIP3   OH244289   5.565   4.896   4.082  0.0948 -0.5684 -0.0684
 7625TIP3    H144290   5.611   4.904   4.165  0.0696  1.3831 -0.2001
 7625TIP3    H244291   5.473   4.911   4.103  0.1976  0.8255 -0.5596
 7626TIP3   OH244292   6.326   0.469  15.647  0.1524 -0.5939 -0.1335
 7626TIP3    H144293   6.303   0.384  15.607  0.7670 -0.0184 -1.7686
 7626TIP3    H244294   6.419   0.480  15.627  0.0140  0.5837 -0.1486
 7627TIP3   OH244295   1.180   5.402   2.735 -0.2412  0.2905  0.4185
 7627TIP3    H144296   1.190   5.494   2.761  2.5185 -0.0945  0.8623
 7627TIP3    H244297   1.248   5.356   2.785  1.9682 -1.2136 -3.7681
 7628TIP3   OH244298   0.275   0.385  13.659  0.4545  0.3517  0.1406
 7628TIP3    H144299   0.333   0.332  13.604  1.6221  0.9233  0.7898
 7628TIP3    H244300   0.189   0.375  13.619  1.3345  1.0790 -2.0148
 7629TIP3   OH244301   6.307   3.968  16.705  0.2431  0.0751 -0.3308
 7629TIP3    H144302   6.299   3.886  16.753 -0.2198  0.3828  0.1232
 7629TIP3    H244303   6.401   3.979  16.691  0.3355 -0.2901  0.0218
 7630TIP3   OH244304   6.476   5.070  15.143  0.6312 -0.3929 -0.1189
 7630TIP3    H144305   6.465   5.140  15.207  0.5762 -0.6823  0.1945
 7630TIP3    H244306   6.424   5.097  15.068 -1.3804 -1.2412  0.9378
 7631TIP3   OH244307   4.194   1.312  10.855  0.2209 -0.4247 -0.0731
 7631TIP3    H144308   4.213   1.406  10.850  0.2287 -0.3837  0.6255
 7631TIP3    H244309   4.269   1.270  10.814 -1.0162 -0.0256 -2.8415
 7632TIP3   OH244310   1.840   1.245  16.043 -0.6137  0.2885 -0.0844
 7632TIP3    H144311   1.929   1.276  16.057 -0.5288  0.3752 -0.8075
 7632TIP3    H244312   1.837   1.222  15.950 -1.4411  0.6150 -0.1442
 7633TIP3   OH244313   2.168   3.254   0.206 -0.0536  0.5518 -0.0477
 7633TIP3    H144314   2.081   3.215   0.214 -0.6655  2.1705  1.4587
 7633TIP3    H244315   2.156   3.328   0.148  0.2043  1.0899  0.5766
 7634TIP3   OH244316   1.491   6.653   0.394  0.1054  0.5676  0.0984
 7634TIP3    H144317   1.421   6.596   0.363 -0.4278  1.5702 -0.5568
 7634TIP3    H244318   1.545   6.597   0.450 -1.2741 -0.1759  0.6963
 7635TIP3   OH244319   2.943   1.400   3.320  0.3306 -0.5381  0.2123
 7635TIP3    H144320   2.909   1.370   3.404  1.1807 -0.5487  0.5538
 7635TIP3    H244321   3.018   1.343   3.302  1.2017  0.5709  0.2735
 7636TIP3   OH244322   3.786   5.576  11.185 -0.3082 -0.1586 -0.1160
 7636TIP3    H144323   3.712   5.622  11.146  0.3696  1.5847  0.5793
 7636TIP3    H244324   3.851   5.570  11.115 -0.1097  0.6255 -0.0041
 7637TIP3   OH244325   0.802   4.347  16.065 -0.3439 -0.2019 -0.9697
 7637TIP3    H144326   0.763   4.293  16.133 -1.3820  1.9995  0.2338
 7637TIP3    H244327   0.775   4.436  16.086  0.2911  0.6726 -3.5956
 7638TIP3   OH244328   5.447   0.278  16.342 -0.4697  0.0625  0.3863
 7638TIP3    H144329   5.518   0.215  16.336  0.5686  1.1421  0.9801
 7638TIP3    H244330   5.368   0.225  16.345  0.0436 -1.0600 -3.8283
 7639TIP3   OH244331   6.586   5.081  12.215 -0.9273 -0.6342 -0.3513
 7639TIP3    H144332   6.544   5.013  12.162 -1.7316 -0.9059  0.6365
 7639TIP3    H244333   6.641   5.129  12.152 -0.5529 -2.0218 -1.0986
 7640TIP3   OH244334   5.578   3.559   5.607  0.1177 -0.3297 -0.2912
 7640TIP3    H144335   5.552   3.505   5.681 -0.5390  2.1400  1.3467
 7640TIP3    H244336   5.523   3.638   5.614  1.8564  1.0772 -1.9070
 7641TIP3   OH244337   2.194   6.769   6.158  0.2133 -0.5614  0.2399
 7641TIP3    H144338   2.140   6.697   6.126 -0.4978  0.5163 -1.0236
 7641TIP3    H244339   2.246   6.730   6.228 -0.0418 -2.3431 -0.5270
 7642TIP3   OH244340   6.041   2.321  17.165 -0.8455  0.0767 -0.5496
 7642TIP3    H144341   5.962   2.269  17.180 -0.6190 -0.3662 -0.8751
 7642TIP3    H244342   6.009   2.408  17.142 -1.2212  0.5194  1.5005
 7643TIP3   OH244343   4.591   4.833   4.058  0.2383 -0.0938  0.1844
 7643TIP3    H144344   4.636   4.814   4.140  2.6818  1.6497 -0.6800
 7643TIP3    H244345   4.622   4.765   3.997 -0.1643 -0.2909  0.1914
 7644TIP3   OH244346   2.773   0.484   2.796 -0.2082 -0.1077  0.4000
 7644TIP3    H144347   2.793   0.440   2.879 -0.9460  2.8320  2.2216
 7644TIP3    H244348   2.856   0.521   2.767 -0.0011 -0.9151 -0.0423
 7645TIP3   OH244349   3.260   0.540  16.846  0.0229  0.2265 -0.2345
 7645TIP3    H144350   3.168   0.568  16.853  0.2562  1.7793 -2.7729
 7645TIP3    H244351   3.294   0.547  16.935 -1.7762  1.5571  0.3743
 7646TIP3   OH244352   4.329   0.909   5.602  0.0438 -0.4583 -0.3605
 7646TIP3    H144353   4.372   0.990   5.631  0.4704 -0.6325 -0.5107
 7646TIP3    H244354   4.399   0.843   5.603 -0.2665 -0.7863 -0.4059
 7647TIP3   OH244355   6.437   4.439   0.425 -0.2881 -0.2994 -0.2260
 7647TIP3    H144356   6.514   4.481   0.385  0.2861 -1.3647 -0.2480
 7647TIP3    H244357   6.375   4.511   0.437  0.6481  0.5481 -0.3513
 7648TIP3   OH244358   4.327   4.876   3.532  0.2562  0.7241  0.1275
 7648TIP3    H144359   4.346   4.959   3.490  1.5351  0.2697 -0.2174
 7648TIP3    H244360   4.232   4.865   3.523  0.4215  0.9324 -2.0496
 7649TIP3   OH244361   5.533   5.876   3.104  0.3545 -0.4875  0.3213
 7649TIP3    H144362   5.524   5.877   3.199  1.2139  0.9495  0.3973
 7649TIP3    H244363   5.455   5.921   3.072  0.1919 -0.7468  0.3504
 7650TIP3   OH244364   0.934   1.291  16.546 -0.6011 -0.1349  0.6449
 7650TIP3    H144365   0.873   1.293  16.471 -0.6346 -1.2143  0.6388
 7650TIP3    H244366   0.910   1.369  16.597  1.1979  2.1552 -1.8379
 7651TIP3   OH244367   2.711   3.288  15.719  0.3929 -0.1581 -0.1825
 7651TIP3    H144368   2.639   3.229  15.737  0.7284 -0.6845 -0.5701
 7651TIP3    H244369   2.759   3.293  15.802 -0.2325  0.4036  0.1557
 7652TIP3   OH244370   3.818   0.481   0.024 -0.2924  0.0846 -0.1706
 7652TIP3    H144371   3.789   0.555  -0.030  0.4436 -0.0721 -0.7822
 7652TIP3    H244372   3.803   0.404  -0.030  0.5154 -0.0689 -0.1818
 7653TIP3   OH244373   3.165   5.059  15.183  0.1949  0.2052 -0.2462
 7653TIP3    H144374   3.233   5.014  15.234 -0.0139 -0.3994 -0.4896
 7653TIP3    H244375   3.208   5.137  15.149  0.5360  0.2473  0.2730
 7654TIP3   OH244376   3.405   0.351   4.412  0.1497 -0.1064  0.8720
 7654TIP3    H144377   3.468   0.288   4.447  0.1547 -0.5118  0.1366
 7654TIP3    H244378   3.366   0.391   4.490  0.4981 -0.6673  1.3406
 7655TIP3   OH244379   2.174   0.612  11.257 -0.6023  0.0385  0.8656
 7655TIP3    H144380   2.137   0.699  11.266  0.3811  0.3324  2.2037
 7655TIP3    H244381   2.266   0.626  11.236 -0.6361 -0.6750  0.2079
 7656TIP3   OH244382   5.382   4.383  16.186  0.0776 -0.3489  0.4786
 7656TIP3    H144383   5.297   4.375  16.142 -0.1735  0.9731  0.6785
 7656TIP3    H244384   5.383   4.313  16.251 -0.1095 -1.4874 -0.7364
 7657TIP3   OH244385   6.466   2.136  17.089 -0.3700  0.1231  0.0327
 7657TIP3    H144386   6.414   2.074  17.141 -2.4009  1.6581 -0.0980
 7657TIP3    H244387   6.401   2.191  17.046  1.3662  2.7586  0.6553
 7658TIP3   OH244388   6.705   2.219  13.551 -0.4065 -0.2149 -0.5792
 7658TIP3    H144389   6.646   2.188  13.483 -2.2872  1.0517  0.4231
 7658TIP3    H244390   6.756   2.289  13.510 -1.2989  0.3179 -0.7745
 7659TIP3   OH244391   1.585   3.363  13.867 -0.1297  0.6997  0.0420
 7659TIP3    H144392   1.589   3.324  13.954  1.2973  1.6987  0.4416
 7659TIP3    H244393   1.492   3.375  13.850 -0.5064 -1.2512  0.6355
 7660TIP3   OH244394   3.761   5.072   2.248 -0.0668  0.0956  0.0394
 7660TIP3    H144395   3.782   5.077   2.342 -1.0912  1.4734  0.1993
 7660TIP3    H244396   3.830   5.123   2.206  0.8002 -1.1022 -0.0456
 7661TIP3   OH244397   5.090   1.002  14.118  0.2001  0.1618  0.4253
 7661TIP3    H144398   5.177   1.039  14.134  0.5675 -0.6598  0.4066
 7661TIP3    H244399   5.079   0.936  14.187  0.4073 -1.0756 -0.6893
 7662TIP3   OH244400   6.040   2.822  15.875  0.2041  0.1350  0.3421
 7662TIP3    H144401   6.022   2.801  15.966 -2.9732 -2.0512 -0.6973
 7662TIP3    H244402   6.134   2.806  15.864  0.6461  0.6092  3.2403
 7663TIP3   OH244403   4.767   4.585  14.253  0.4013  0.2235  0.1824
 7663TIP3    H144404   4.771   4.666  14.304 -0.1026  0.3820 -0.0277
 7663TIP3    H244405   4.823   4.602  14.177  1.0180  0.0468  0.5920
 7664TIP3   OH244406   6.734   1.211   5.131 -0.6478  0.0593  0.6436
 7664TIP3    H144407   6.766   1.280   5.189 -0.9530  1.1907 -0.5156
 7664TIP3    H244408   6.724   1.135   5.189  1.0560  0.5580  1.6522
 7665TIP3   OH244409   5.926   6.604   0.892  0.5078  0.3029 -0.0277
 7665TIP3    H144410   5.985   6.673   0.922  0.0877 -0.3839  2.5042
 7665TIP3    H244411   5.930   6.538   0.962 -2.7671 -0.0170 -0.0939
 7666TIP3   OH244412   2.540   6.069  12.068 -0.5350  0.8942  0.4476
 7666TIP3    H144413   2.610   6.098  12.126  0.7948  0.7769 -1.0699
 7666TIP3    H244414   2.461   6.110  12.104 -0.0502 -0.5335  3.3430
 7667TIP3   OH244415   0.517   0.588   4.338  0.5629  0.2244  0.2032
 7667TIP3    H144416   0.444   0.534   4.308  0.9861  0.1860 -0.7695
 7667TIP3    H244417   0.476   0.666   4.375 -0.0269 -0.4534  0.9998
 7668TIP3   OH244418   6.409   1.665  13.089 -0.4491 -0.5474  0.2172
 7668TIP3    H144419   6.416   1.581  13.044 -0.3143 -0.5238  0.1956
 7668TIP3    H244420   6.450   1.650  13.174  0.6025 -0.1831 -0.2192
 7669TIP3   OH244421   3.531   3.906  17.008  0.0464  0.3708 -0.1439
 7669TIP3    H144422   3.505   3.857  16.930 -1.2966  1.8505 -0.6737
 7669TIP3    H244423   3.619   3.937  16.988 -0.4479  1.1017 -1.2816
 7670TIP3   OH244424   2.380   4.953  14.122 -0.2025  0.1556 -0.2381
 7670TIP3    H144425   2.377   5.043  14.154  0.0493  0.2075 -0.3600
 7670TIP3    H244426   2.452   4.913  14.171  0.1370  0.2147 -0.6880
 7671TIP3   OH244427   6.302   2.574  16.178 -0.1303  0.0651  0.1031
 7671TIP3    H144428   6.355   2.637  16.227  1.2508 -0.2170 -0.9876
 7671TIP3    H244429   6.324   2.490  16.217  0.1940 -0.0460 -0.3138
 7672TIP3   OH244430   4.473   0.799  13.151  0.2563 -0.1326 -0.0934
 7672TIP3    H144431   4.407   0.813  13.083  0.9429  0.0328 -0.7353
 7672TIP3    H244432   4.446   0.857  13.223  0.3013  0.7497 -0.7835
 7673TIP3   OH244433   6.690   4.482   2.704 -0.1863 -0.0024  0.0535
 7673TIP3    H144434   6.642   4.416   2.755 -0.2302  0.0051  0.0216
 7673TIP3    H244435   6.720   4.545   2.769  1.9147 -1.3082  0.3814
 7674TIP3   OH244436   3.919   2.688   3.090 -0.4097 -0.2840  0.5048
 7674TIP3    H144437   3.906   2.665   2.998 -2.3641  0.4724  0.5646
 7674TIP3    H244438   4.007   2.725   3.094 -0.7481  0.7591 -1.2865
 7675TIP3   OH244439   1.398   3.617  12.859  0.1552  0.1838  0.2165
 7675TIP3    H144440   1.324   3.569  12.897  1.2731 -1.6025  0.1896
 7675TIP3    H244441   1.385   3.610  12.765 -0.3788  1.0815  0.2115
 7676TIP3   OH244442   3.582   1.230   3.513 -0.0180 -0.4735 -0.0781
 7676TIP3    H144443   3.520   1.232   3.585  1.8127 -0.3150  1.5289
 7676TIP3    H244444   3.654   1.286   3.542  1.0087 -0.8782 -1.7810
 7677TIP3   OH244445   1.434   3.893  16.964 -0.0585 -0.3731 -0.6743
 7677TIP3    H144446   1.435   3.852  16.878  1.6868 -2.1871  0.1520
 7677TIP3    H244447   1.515   3.862  17.006 -1.0743  0.1242  1.7525
 7678TIP3   OH244448   6.541   3.400   5.003 -0.1682  0.0761  0.3457
 7678TIP3    H144449   6.612   3.444   5.050 -1.1597  1.3913  0.6481
 7678TIP3    H244450   6.583   3.359   4.927  0.8136  1.3503  0.1937
 7679TIP3   OH244451   6.126   0.805  11.547 -0.6956  0.2923  0.1925
 7679TIP3    H144452   6.077   0.742  11.494 -0.3486  0.5863 -0.4862
 7679TIP3    H244453   6.117   0.773  11.637  0.2074 -1.2069 -0.2362
 7680TIP3   OH244454   3.660   0.600   5.456 -0.0399  0.3342 -0.0018
 7680TIP3    H144455   3.743   0.649   5.453 -0.8128  1.7882  1.3343
 7680TIP3    H244456   3.686   0.508   5.450  1.7391  0.7271  1.3108
 7681TIP3   OH244457   6.310   3.920  12.238  0.3057  0.2221 -0.1514
 7681TIP3    H144458   6.226   3.932  12.194  0.0981 -1.1326 -0.1363
 7681TIP3    H244459   6.306   3.979  12.312  0.5356  2.3116 -1.7576
 7682TIP3   OH244460   0.832   6.594  16.571  0.1047  0.1814  0.0189
 7682TIP3    H144461   0.920   6.575  16.539  0.8218  2.1484  0.7357
 7682TIP3    H244462   0.812   6.682  16.537 -2.2103 -0.8475 -1.4210
 7683TIP3   OH244463   1.955   2.228  10.914 -0.5409 -0.9271 -0.1349
 7683TIP3    H144464   1.927   2.155  10.969  0.4769 -1.4644 -0.3103
 7683TIP3    H244465   1.927   2.306  10.961 -1.3277 -1.4268  0.2296
 7684TIP3   OH244466   3.152   4.445  12.180 -0.1870  0.9214 -0.9463
 7684TIP3    H144467   3.082   4.427  12.116 -0.2932  0.6318 -0.7516
 7684TIP3    H244468   3.165   4.361  12.224  0.5079  0.8968 -1.2031
 7685TIP3   OH244469   3.210   5.879   2.530 -0.1344 -0.0357  0.1738
 7685TIP3    H144470   3.233   5.850   2.618  0.1594 -1.7510 -0.4524
 7685TIP3    H244471   3.114   5.878   2.529 -0.1219 -2.4506 -0.2968
 7686TIP3   OH244472   4.282   5.333   2.767 -0.0790 -0.6810 -0.2686
 7686TIP3    H144473   4.220   5.324   2.695 -0.2391 -1.3416 -0.0544
 7686TIP3    H244474   4.230   5.364   2.841 -0.1413 -1.1613 -0.1099
 7687TIP3   OH244475   0.185   2.861  16.839  0.2547  0.4982 -0.0001
 7687TIP3    H144476   0.204   2.954  16.853  0.1970  0.5438 -0.2250
 7687TIP3    H244477   0.269   2.817  16.850  0.7347  0.8149 -2.1291
 7688TIP3   OH244478   5.976   1.207   4.888  0.0159  0.4045 -0.1804
 7688TIP3    H144479   6.048   1.148   4.910  0.8075  2.2800  2.5354
 7688TIP3    H244480   5.916   1.199   4.962 -1.1236  1.0555 -1.0365
 7689TIP3   OH244481   4.059   5.181  15.519  0.0268 -0.0404 -0.4413
 7689TIP3    H144482   4.033   5.263  15.478 -0.1089  1.2186  2.0870
 7689TIP3    H244483   3.976   5.135  15.535  0.0466 -0.3083 -1.0863
 7690TIP3   OH244484   2.494   1.232   3.362  0.5171 -0.1668  0.3934
 7690TIP3    H144485   2.504   1.177   3.440  0.8289  0.0092  0.4742
 7690TIP3    H244486   2.459   1.172   3.295  0.7449 -0.4372  0.5162
 7691TIP3   OH244487   3.378   4.562  16.384 -0.6406 -0.0541  0.0127
 7691TIP3    H144488   3.301   4.516  16.418  0.2396 -0.6845  1.1757
 7691TIP3    H244489   3.452   4.521  16.429  0.3642  0.6438 -0.9997
 7692TIP3   OH244490   6.160   3.010   3.955 -0.6533 -0.6320 -0.2979
 7692TIP3    H144491   6.116   2.943   3.903  0.8655 -0.9922 -1.1394
 7692TIP3    H244492   6.223   3.050   3.894  0.3086 -0.2508  0.9346
 7693TIP3   OH244493   2.267   5.482  11.311 -0.5778  0.2035 -0.8314
 7693TIP3    H144494   2.335   5.515  11.253 -1.0163 -0.8882 -1.9869
 7693TIP3    H244495   2.293   5.392  11.330 -0.7374  0.3697  0.2229
 7694TIP3   OH244496   2.463   0.441   0.386  0.1013  0.6290  0.3080
 7694TIP3    H144497   2.514   0.435   0.305 -0.0999  0.9193  0.1572
 7694TIP3    H244498   2.471   0.354   0.426  0.0006  0.4030 -0.1528
 7695TIP3   OH244499   4.081   4.864  12.595  0.3074 -0.5700 -0.7493
 7695TIP3    H144500   4.023   4.805  12.643  0.1801 -0.3647 -0.6492
 7695TIP3    H244501   4.033   4.884  12.514 -0.8297  1.4895  0.3891
 7696TIP3   OH244502   1.870   5.277  16.017  0.0074 -0.0709  0.1481
 7696TIP3    H144503   1.934   5.223  15.971 -0.0678  0.7843 -0.9736
 7696TIP3    H244504   1.830   5.217  16.080  1.6592 -0.7109  0.6356
 7697TIP3   OH244505   5.552   0.920   5.199  0.0642 -0.2555 -0.0378
 7697TIP3    H144506   5.624   0.935   5.261  1.9166 -1.1057 -1.9551
 7697TIP3    H244507   5.543   1.003   5.152 -0.1405 -0.1898  0.1143
 7698TIP3   OH244508   0.466   6.371  14.227  0.2244 -0.1635  0.1063
 7698TIP3    H144509   0.444   6.329  14.311  1.4333 -0.8360  0.0926
 7698TIP3    H244510   0.470   6.299  14.164  1.4163  0.0825 -0.1000
 7699TIP3   OH244511   5.091   3.679   2.185 -0.7742  0.1494 -0.3942
 7699TIP3    H144512   5.151   3.707   2.254 -0.4999  0.9542 -0.9512
 7699TIP3    H244513   5.061   3.592   2.213  2.2606 -1.2120 -1.0887
 7700TIP3   OH244514   2.500   3.068   3.272  0.3855  0.4746  0.7773
 7700TIP3    H144515   2.511   2.990   3.217  0.6570  0.1247  1.3214
 7700TIP3    H244516   2.581   3.118   3.259 -0.2299  1.1952 -0.3898
 7701TIP3   OH244517   6.324   3.690   0.183  0.3738 -0.0972  0.4928
 7701TIP3    H144518   6.277   3.762   0.226  0.5268 -0.7732  1.8060
 7701TIP3    H244519   6.338   3.625   0.252 -0.6621 -1.8532 -0.8744
 7702TIP3   OH244520   1.227   2.370   1.535 -0.4503  0.0929 -0.1133
 7702TIP3    H144521   1.150   2.348   1.588  0.8165 -2.4870  0.7183
 7702TIP3    H244522   1.228   2.305   1.465 -0.1241  1.3517 -1.3139
 7703TIP3   OH244523   0.575   1.469   3.189 -0.3217 -0.3568  0.1246
 7703TIP3    H144524   0.575   1.564   3.189  3.5022 -0.2748  0.3635
 7703TIP3    H244525   0.547   1.445   3.100 -0.7695  0.9629 -0.1046
 7704TIP3   OH244526   6.077   4.523  15.052 -0.0739 -0.1266  0.0041
 7704TIP3    H144527   6.105   4.596  15.107 -1.5148  1.1907 -0.9338
 7704TIP3    H244528   6.143   4.518  14.983  0.1113  0.1983  0.1553
 7705TIP3   OH244529   1.102   4.323  11.686 -0.2047  0.7294  0.1928
 7705TIP3    H144530   1.007   4.327  11.695 -0.1123  0.8172  1.1774
 7705TIP3    H244531   1.125   4.402  11.637 -0.4882  1.5052  1.3015
 7706TIP3   OH244532   6.370   5.760   6.275 -0.1663 -0.4719 -0.1444
 7706TIP3    H144533   6.313   5.805   6.213  2.2723 -1.7770 -3.4697
 7706TIP3    H244534   6.405   5.830   6.331 -1.7705  0.8294 -0.7291
 7707TIP3   OH244535   0.664   4.095   2.154 -0.5387 -0.1894  0.3689
 7707TIP3    H144536   0.673   4.173   2.099  1.4333 -0.1342  0.7294
 7707TIP3    H244537   0.754   4.069   2.174 -1.1978 -1.1453  2.2589
 7708TIP3   OH244538   3.440   6.167  11.535  0.0503  0.4487  0.0193
 7708TIP3    H144539   3.529   6.132  11.532 -1.0263 -2.2994 -2.3200
 7708TIP3    H244540   3.394   6.109  11.596 -0.7463  0.2921 -0.7210
 7709TIP3   OH244541   6.110   2.433   1.475 -0.0319  0.3174 -0.1224
 7709TIP3    H144542   6.140   2.405   1.561  0.4053 -2.0580 -1.0249
 7709TIP3    H244543   6.189   2.466   1.432 -0.0360  0.4531 -0.0252
 7710TIP3   OH244544   3.145   4.073   5.820 -0.0409 -0.3970 -0.5274
 7710TIP3    H144545   3.078   4.034   5.876 -1.2024  0.2209 -1.4683
 7710TIP3    H244546   3.217   4.095   5.880 -1.5125  0.8424  0.8303
 7711TIP3   OH244547   2.181   1.200  14.863 -0.3501  0.6368 -0.5869
 7711TIP3    H144548   2.272   1.225  14.876  0.0709 -1.3729  0.4234
 7711TIP3    H244549   2.168   1.207  14.768  1.2339 -0.3526 -0.8830
 7712TIP3   OH244550   6.471   6.749  14.966 -0.1204 -0.0513 -0.5191
 7712TIP3    H144551   6.420   6.669  14.952  1.6113 -0.9477 -1.7537
 7712TIP3    H244552   6.543   6.723  15.023 -0.0975  0.8551 -0.1161
 7713TIP3   OH244553   6.014   3.610   1.691  0.1905  0.1227  0.1393
 7713TIP3    H144554   6.108   3.618   1.676  0.2651 -1.2019 -0.1659
 7713TIP3    H244555   5.974   3.631   1.606  0.2176  0.4147  0.1976
 7714TIP3   OH244556   6.444   5.971   2.474  0.3914 -0.1182 -0.2692
 7714TIP3    H144557   6.428   5.978   2.568 -0.3149 -0.9528 -0.3254
 7714TIP3    H244558   6.490   5.888   2.463 -0.6684 -0.6534 -0.7955
 7715TIP3   OH244559   3.509   5.919  12.755  0.0482  0.4240 -0.0218
 7715TIP3    H144560   3.538   5.834  12.789 -3.7011 -1.3055 -0.8982
 7715TIP3    H244561   3.548   5.983  12.814 -0.8048 -2.1370  3.4827
 7716TIP3   OH244562   0.713   4.890   3.234 -0.5352  0.5892  0.4602
 7716TIP3    H144563   0.663   4.863   3.157  1.0467 -2.5278  0.4581
 7716TIP3    H244564   0.771   4.959   3.202  1.4309 -1.9539 -1.6433
 7717TIP3   OH244565   4.989   0.557  12.024  0.4926  0.2019 -0.1887
 7717TIP3    H144566   4.924   0.581  11.958  0.3003 -0.8023 -0.3581
 7717TIP3    H244567   5.049   0.499  11.978 -0.3490 -1.5101  0.8504
 7718TIP3   OH244568   5.747   2.863   5.286  0.4838 -0.0586  0.2033
 7718TIP3    H144569   5.807   2.861   5.211  0.1572  1.0793 -0.0957
 7718TIP3    H244570   5.799   2.826   5.358  1.0251 -0.5315 -0.4145
 7719TIP3   OH244571   3.192   5.329  15.768 -0.3951  0.1121  0.1929
 7719TIP3    H144572   3.190   5.424  15.779  2.7027  0.5005 -1.9571
 7719TIP3    H244573   3.205   5.294  15.856 -2.8714  1.5571  1.1869
 7720TIP3   OH244574   3.448   2.650   6.047 -0.2858  0.3192  0.3758
 7720TIP3    H144575   3.357   2.641   6.075 -1.1724  1.3201 -2.1037
 7720TIP3    H244576   3.499   2.638   6.128 -2.5784 -0.5279  1.7348
 7721TIP3   OH244577   2.442   3.301   0.286  0.3835 -0.1411 -0.4721
 7721TIP3    H144578   2.347   3.310   0.280  0.2726  1.4031  2.5942
 7721TIP3    H244579   2.456   3.216   0.327  0.2997  0.1572  0.1668
 7722TIP3   OH244580   5.974   2.253   3.490 -0.2271 -0.5034  0.3685
 7722TIP3    H144581   5.964   2.343   3.460 -0.6879 -0.7466 -0.2059
 7722TIP3    H244582   6.065   2.249   3.522 -1.0993  0.9967  3.2585
 7723TIP3   OH244583   5.463   4.954   0.941 -0.0473  0.0184 -0.1766
 7723TIP3    H144584   5.425   4.905   0.868 -0.0256 -0.3905  0.0843
 7723TIP3    H244585   5.456   4.894   1.016  1.7110 -0.3198 -0.2711
 7724TIP3   OH244586   6.429   1.355  14.106  0.2118  0.1327 -0.3081
 7724TIP3    H144587   6.383   1.382  14.027 -0.8716 -0.7387  0.0050
 7724TIP3    H244588   6.474   1.434  14.136 -0.2315  0.7370 -1.2057
 7725TIP3   OH244589   1.916   5.802   4.768 -0.0291 -0.0850 -0.0900
 7725TIP3    H144590   1.838   5.771   4.813  0.6030  1.6983  2.3661
 7725TIP3    H244591   1.891   5.886   4.730  0.4544  0.1141  0.0202
 7726TIP3   OH244592   2.970   1.429  12.555 -0.0062  0.5542 -0.2399
 7726TIP3    H144593   2.984   1.411  12.648  0.7566  0.0062 -0.4561
 7726TIP3    H244594   3.022   1.363  12.509  0.3705  1.3887 -1.0518
 7727TIP3   OH244595   2.191   1.325   2.241 -0.3438  0.3179  0.1959
 7727TIP3    H144596   2.130   1.393   2.211 -0.1201  0.6854  0.5563
 7727TIP3    H244597   2.147   1.243   2.221  0.3049  0.5248 -2.2149
 7728TIP3   OH244598   5.262   6.606  16.957  0.4009  0.1099 -0.4325
 7728TIP3    H144599   5.332   6.670  16.968 -0.8221  1.2052  1.2462
 7728TIP3    H244600   5.282   6.537  17.020 -0.4947  0.8703  0.7064
 7729TIP3   OH244601   0.101   3.735  16.055  0.8412  0.2445 -0.2571
 7729TIP3    H144602   0.077   3.652  16.014 -4.1738  2.2498 -1.7819
 7729TIP3    H244603   0.070   3.727  16.145 -2.3069  1.3821 -1.1679
 7730TIP3   OH244604   6.235   5.523  15.838 -0.4578  0.1962  0.2657
 7730TIP3    H144605   6.240   5.592  15.771 -0.4574 -1.0426 -1.0303
 7730TIP3    H244606   6.240   5.571  15.921 -0.2418  1.7451 -0.6070
 7731TIP3   OH244607   6.591   4.491  13.840  0.5802 -0.1442 -0.3965
 7731TIP3    H144608   6.652   4.510  13.769  1.9189 -0.7535  0.5683
 7731TIP3    H244609   6.568   4.399  13.828 -2.0083  0.6674 -2.1226
 7732TIP3   OH244610   4.527   4.838   1.197  0.2375  0.3218  0.2502
 7732TIP3    H144611   4.603   4.781   1.211 -0.0004  0.2861  1.4552
 7732TIP3    H244612   4.563   4.915   1.152  1.2080  0.8419  1.8832
 7733TIP3   OH244613   4.689   3.517  15.668  0.1914 -0.6674 -0.6292
 7733TIP3    H144614   4.598   3.510  15.695  1.1923  0.3634  3.3112
 7733TIP3    H244615   4.693   3.601  15.621 -0.7196 -0.2990 -0.0647
 7734TIP3   OH244616   5.677   1.411  14.796 -0.3488 -0.3109  0.1130
 7734TIP3    H144617   5.723   1.418  14.712  0.8083 -2.1340  0.5756
 7734TIP3    H244618   5.635   1.326  14.793  0.0204 -0.5510  1.5543
 7735TIP3   OH244619   3.641   3.590   0.774  0.1354  0.1128 -0.0888
 7735TIP3    H144620   3.666   3.542   0.854  0.0374 -0.2001 -0.2444
 7735TIP3    H244621   3.723   3.606   0.729  0.0356 -1.1694 -0.7428
 7736TIP3   OH244622   5.728   5.819  12.034  0.1787 -0.1563  0.3926
 7736TIP3    H144623   5.711   5.764  12.110 -0.0110 -1.3706 -0.5205
 7736TIP3    H244624   5.799   5.774  11.987 -0.1303  0.2569 -0.4781
 7737TIP3   OH244625   0.786   5.443  12.015  0.0786 -0.1454  0.0291
 7737TIP3    H144626   0.771   5.538  12.006 -1.1661 -0.2657  0.7167
 7737TIP3    H244627   0.806   5.431  12.108  0.4423 -0.5335 -0.1011
 7738TIP3   OH244628   4.838   1.782   5.551 -1.1407 -0.1362 -1.0900
 7738TIP3    H144629   4.784   1.723   5.603  0.7542 -0.8663  0.1098
 7738TIP3    H244630   4.894   1.724   5.499  0.0265  0.5770 -0.6596
 7739TIP3   OH244631   4.885   3.285   5.059 -0.2345 -0.1652 -0.3988
 7739TIP3    H144632   4.827   3.209   5.052  0.8773 -1.0255 -0.3718
 7739TIP3    H244633   4.936   3.284   4.978  0.6041 -0.1270  0.1297
 7740TIP3   OH244634   1.553   5.719  12.233 -0.1077 -0.2115  0.0591
 7740TIP3    H144635   1.494   5.654  12.272  0.3585  0.9829  2.8648
 7740TIP3    H244636   1.517   5.803  12.262  1.8578  0.5933  0.2047
 7741TIP3   OH244637   6.306   4.640   6.004  0.4320  0.0550  0.0613
 7741TIP3    H144638   6.316   4.617   6.097  3.2297 -1.6092 -0.5743
 7741TIP3    H244639   6.377   4.702   5.988 -1.8409  2.5984 -0.3014
 7742TIP3   OH244640   0.058   4.748   5.483  0.2657  0.4206  0.1964
 7742TIP3    H144641   0.035   4.832   5.523 -0.5578 -0.1728  1.0160
 7742TIP3    H244642  -0.016   4.729   5.425  0.3289  0.1445  0.2083
 7743TIP3   OH244643   0.871   1.463   1.113  0.8283 -0.3287  0.2586
 7743TIP3    H144644   0.909   1.486   1.029 -1.4308  2.1843 -0.1494
 7743TIP3    H244645   0.809   1.392   1.094  1.0350 -0.4291 -0.0342
 7744TIP3   OH244646   2.468   6.369  17.110 -0.7107  0.3178  0.1136
 7744TIP3    H144647   2.481   6.279  17.138 -1.9586  0.3066  0.6923
 7744TIP3    H244648   2.432   6.413  17.187  0.8279  1.5527  0.1593
 7745TIP3   OH244649   3.685   6.599   0.559  0.0547  0.4566  0.5589
 7745TIP3    H144650   3.710   6.517   0.600 -1.3965 -0.0462  0.4868
 7745TIP3    H244651   3.594   6.585   0.531  0.7636  1.0360 -2.1719
 7746TIP3   OH244652   0.598   3.726   4.904 -0.2285  0.0199  0.1405
 7746TIP3    H144653   0.596   3.726   5.000 -1.7996  1.1135  0.1405
 7746TIP3    H244654   0.621   3.637   4.880 -0.3549 -0.4022  1.5427
 7747TIP3   OH244655   4.532   5.189   5.032 -0.4215 -0.3003 -0.2569
 7747TIP3    H144656   4.536   5.106   4.985  0.9672 -0.1463 -0.4463
 7747TIP3    H244657   4.439   5.206   5.044 -0.7260 -2.9685  1.7401
 7748TIP3   OH244658   1.281   4.021   4.235 -0.6847  0.4909 -0.1713
 7748TIP3    H144659   1.235   4.083   4.178  0.9555  0.2094 -1.8495
 7748TIP3    H244660   1.337   3.971   4.176 -1.3522 -2.0488  1.2817
 7749TIP3   OH244661   0.654   5.805   2.011 -0.3383  0.0034 -0.5394
 7749TIP3    H144662   0.606   5.887   2.016 -0.8230 -0.3618  1.0796
 7749TIP3    H244663   0.638   5.772   1.923 -0.2353  1.5829 -1.1563
 7750TIP3   OH244664   4.794   6.184  11.596  0.6894  0.1653 -0.0665
 7750TIP3    H144665   4.799   6.089  11.593 -0.3200  0.0845  0.6842
 7750TIP3    H244666   4.765   6.210  11.509 -3.9053 -0.5462  1.1449
 7751TIP3   OH244667   4.303   3.767   0.704 -0.0792  0.0488 -0.3796
 7751TIP3    H144668   4.323   3.768   0.610  1.8339  0.1227  0.0106
 7751TIP3    H244669   4.271   3.679   0.721  1.3552 -0.5618 -0.7640
 7752TIP3   OH244670   6.539   2.268  15.539 -0.0347  0.0512  0.3923
 7752TIP3    H144671   6.599   2.317  15.596  0.5317  2.0143 -1.8215
 7752TIP3    H244672   6.461   2.323  15.533  0.2205  0.2552 -1.3438
 7753TIP3   OH244673   4.207   0.092   4.405  0.2830 -0.2039 -0.1848
 7753TIP3    H144674   4.184   0.057   4.491 -2.7801  0.9649 -0.4582
 7753TIP3    H244675   4.214   0.015   4.349 -1.2818 -0.7636  0.3592
 7754TIP3   OH244676   6.267   6.348   6.642 -0.0579 -0.2743  0.0153
 7754TIP3    H144677   6.211   6.406   6.693  0.1000 -0.6670  0.6515
 7754TIP3    H244678   6.347   6.398   6.628 -0.0729 -0.1882  0.2287
 7755TIP3   OH244679   1.005   5.144  15.628  0.0341 -0.5710 -0.1729
 7755TIP3    H144680   0.995   5.073  15.565  0.2261 -1.6803  1.0423
 7755TIP3    H244681   1.074   5.199  15.590  2.8556 -3.2424  0.8287
 7756TIP3   OH244682   2.743   4.305  14.843  0.0935 -0.0304  0.0667
 7756TIP3    H144683   2.747   4.232  14.781 -0.8707 -0.5218  0.5800
 7756TIP3    H244684   2.687   4.370  14.800 -1.7560 -0.9641  1.0276
 7757TIP3   OH244685   5.054   2.750   0.135 -0.3347  0.6988 -0.4138
 7757TIP3    H144686   5.003   2.693   0.192 -0.3000 -0.3508 -1.4079
 7757TIP3    H244687   4.989   2.797   0.083 -0.3607  1.5317  0.3419
 7758TIP3   OH244688   1.319   0.659  11.603  0.1140 -0.2755  0.5405
 7758TIP3    H144689   1.381   0.726  11.633 -0.1053 -0.7944  2.1794
 7758TIP3    H244690   1.371   0.579  11.601 -0.0597 -0.3776  0.2280
 7759TIP3   OH244691   4.446   1.665  12.032 -0.1312 -0.0087 -0.0515
 7759TIP3    H144692   4.527   1.670  12.082 -0.3575 -0.4560  0.3659
 7759TIP3    H244693   4.473   1.642  11.943  0.0582 -2.0195  0.5115
 7760TIP3   OH244694   3.019   5.444  16.364 -0.5683 -0.8421 -0.0358
 7760TIP3    H144695   3.053   5.469  16.450 -1.1665 -0.2883  0.0419
 7760TIP3    H244696   2.930   5.478  16.363 -0.5093 -0.7062 -0.9441
 7761TIP3   OH244697   5.711   1.036   2.285  0.1108  0.8456 -0.1110
 7761TIP3    H144698   5.758   0.988   2.354  1.8909 -2.4313 -3.4666
 7761TIP3    H244699   5.622   1.003   2.289  0.5835 -0.4831 -0.3807
 7762TIP3   OH244700   0.848   3.746   6.425  0.9106  0.6767 -0.5587
 7762TIP3    H144701   0.846   3.722   6.518  1.6946  2.3279 -0.0870
 7762TIP3    H244702   0.840   3.842   6.426 -0.2849  0.6177 -2.2541
 7763TIP3   OH244703   2.338   0.954  11.982  0.8295  0.4800  0.1526
 7763TIP3    H144704   2.303   1.034  11.943 -0.1062 -0.7524 -1.5747
 7763TIP3    H244705   2.423   0.941  11.940  0.4886 -0.0276 -0.3872
 7764TIP3   OH244706   4.503   4.361   0.166  0.0483  0.3685  1.0330
 7764TIP3    H144707   4.593   4.372   0.136 -0.2105 -2.4045 -1.0615
 7764TIP3    H244708   4.511   4.314   0.249  0.5434  0.6995  1.1751
 7765TIP3   OH244709   5.065   6.607   1.764 -0.1177 -0.3441  0.0125
 7765TIP3    H144710   5.160   6.598   1.775 -0.0600  0.2803 -0.0055
 7765TIP3    H244711   5.043   6.541   1.698  0.2080 -0.9258  0.4779
 7766TIP3   OH244712   1.682   2.984   3.060 -0.7323  0.2599 -0.6912
 7766TIP3    H144713   1.641   2.924   2.999 -3.7793  1.3240  0.2527
 7766TIP3    H244714   1.759   2.936   3.092 -2.0191 -2.3510 -1.4064
 7767TIP3   OH244715   1.066   5.058   0.779  0.4355  0.2319 -0.2403
 7767TIP3    H144716   1.031   5.000   0.711 -1.2977  1.9321 -0.8370
 7767TIP3    H244717   1.069   5.003   0.857 -2.8288 -0.2355 -0.3538
 7768TIP3   OH244718   2.802   6.372  11.048 -0.5684 -0.0161 -0.1728
 7768TIP3    H144719   2.829   6.464  11.054  0.8130 -0.3982 -0.4388
 7768TIP3    H244720   2.716   6.370  11.090  0.6924  0.8695  2.5674
 7769TIP3   OH244721   0.623   1.258   3.928 -0.1163  0.2364  0.2538
 7769TIP3    H144722   0.718   1.264   3.922 -0.1815  0.3642 -0.6700
 7769TIP3    H244723   0.598   1.328   3.988  0.3317  0.4723  0.1648
 7770TIP3   OH244724   2.088   4.274   4.567 -0.4125 -0.1933 -0.1083
 7770TIP3    H144725   2.115   4.365   4.554 -0.4729 -0.0628  0.6567
 7770TIP3    H244726   2.011   4.263   4.511 -0.3386  0.1928 -0.2852
 7771TIP3   OH244727   4.612   3.252   3.539 -0.0454  0.4879 -0.2143
 7771TIP3    H144728   4.701   3.286   3.550 -0.6515  2.2473 -0.5955
 7771TIP3    H244729   4.575   3.304   3.468 -0.8601 -1.3127 -1.1571
 7772TIP3   OH244730   0.863   2.459  12.451 -0.3508 -0.1966  0.6796
 7772TIP3    H144731   0.899   2.383  12.407 -0.3041 -0.9995  2.0730
 7772TIP3    H244732   0.939   2.506  12.485 -0.2251  1.7149 -2.0975
 7773TIP3   OH244733   0.187   0.354   0.537 -0.0141  0.0336 -0.5066
 7773TIP3    H144734   0.273   0.366   0.577 -0.0818  1.4845 -0.7886
 7773TIP3    H244735   0.172   0.434   0.486 -0.3190 -1.3844 -2.7250
 7774TIP3   OH244736   4.087   4.554   2.244 -0.1261  0.2445 -0.5990
 7774TIP3    H144737   4.130   4.617   2.302 -0.2963  0.1732 -0.3932
 7774TIP3    H244738   4.115   4.579   2.156 -0.1487  0.5712 -0.5128
 7775TIP3   OH244739   4.125   0.600   4.099 -0.4340 -0.1021 -0.6931
 7775TIP3    H144740   4.054   0.544   4.066 -1.0903  0.0221  0.5023
 7775TIP3    H244741   4.162   0.551   4.173 -1.5831  1.4291  0.9235
 7776TIP3   OH244742   0.039   4.818   3.425  0.5855 -0.1687 -0.4262
 7776TIP3    H144743   0.019   4.853   3.512 -1.0113 -2.0109  0.0048
 7776TIP3    H244744   0.120   4.768   3.437  0.5668 -0.1147 -0.0697
 7777TIP3   OH244745   0.107   0.324   2.774  0.5827  0.4055 -0.0081
 7777TIP3    H144746   0.134   0.255   2.714  1.4410  0.9173 -0.2236
 7777TIP3    H244747   0.170   0.395   2.759 -0.8645  1.6199 -0.5039
 7778TIP3   OH244748   6.334   0.783  12.127  0.4869 -0.7038  0.4078
 7778TIP3    H144749   6.421   0.818  12.147  0.4419 -0.6891  0.5761
 7778TIP3    H244750   6.331   0.698  12.171 -0.3851  0.2462  2.2488
 7779TIP3   OH244751   2.989   3.697  10.524 -0.0378  0.5419  0.0523
 7779TIP3    H144752   3.053   3.761  10.491  0.1351  0.8439  0.9703
 7779TIP3    H244753   2.999   3.622  10.465  2.0707  0.0925  0.9396
 7780TIP3   OH244754   0.425   6.241  14.447  0.4570  0.3488  0.5609
 7780TIP3    H144755   0.357   6.278  14.503  1.9223  1.4878  1.6129
 7780TIP3    H244756   0.488   6.203  14.509 -0.1327 -2.3920 -0.4421
 7781TIP3   OH244757   5.921   0.761   0.052 -0.0339  0.0178  0.3369
 7781TIP3    H144758   5.871   0.817   0.112 -2.7748 -1.6195 -0.3646
 7781TIP3    H244759   5.920   0.808  -0.031 -0.8027 -0.2092  0.2110
 7782TIP3   OH244760   0.397   5.269  16.457 -0.1146  0.0808  0.1434
 7782TIP3    H144761   0.373   5.178  16.472 -0.7880  0.3631  0.8088
 7782TIP3    H244762   0.369   5.315  16.537  0.1225  0.8806 -0.2269
 7783TIP3   OH244763   0.926   2.836   2.566  0.0202  0.4526 -0.1077
 7783TIP3    H144764   0.978   2.795   2.497  2.0668  0.2359  1.4976
 7783TIP3    H244765   0.909   2.925   2.534  1.9371  0.7302 -0.4359
 7784TIP3   OH244766   0.213   2.337   3.966 -0.2951  0.4179  0.4413
 7784TIP3    H144767   0.137   2.352   3.910 -1.3607  0.7718  1.9420
 7784TIP3    H244768   0.245   2.250   3.941  0.2416  1.2272 -1.8184
 7785TIP3   OH244769   5.011   3.029  14.852  0.2667  1.1832  0.5899
 7785TIP3    H144770   5.030   2.935  14.853  1.9566  1.4074 -2.7359
 7785TIP3    H244771   5.079   3.069  14.905  0.0135  0.5995  1.3571
 7786TIP3   OH244772   3.569   1.521   1.337  0.6354 -0.4921 -0.6848
 7786TIP3    H144773   3.508   1.585   1.373  2.8942  0.8808  0.9321
 7786TIP3    H244774   3.655   1.563   1.346  2.1471 -3.5598  0.0128
 7787TIP3   OH244775   2.238   6.223  12.332 -0.1097  0.0124  0.3122
 7787TIP3    H144776   2.313   6.250  12.384 -0.6347  1.7723  0.1900
 7787TIP3    H244777   2.203   6.305  12.295 -1.9621 -0.7853  0.2210
 7788TIP3   OH244778   3.495   1.024  15.631 -0.1178  0.6863  0.4675
 7788TIP3    H144779   3.453   1.110  15.629  1.1602  1.2897 -0.4345
 7788TIP3    H244780   3.543   1.022  15.714  0.6706  1.2382  0.0281
 7789TIP3   OH244781   0.895   5.128  10.817 -0.1739 -0.3178 -0.2661
 7789TIP3    H144782   0.931   5.194  10.757 -0.3005  0.6666  0.7182
 7789TIP3    H244783   0.970   5.103  10.872 -0.6340  0.6588  0.8240
 7790TIP3   OH244784   5.095   3.977   4.215 -0.2682 -0.4100 -0.4240
 7790TIP3    H144785   5.045   3.896   4.226 -0.3550 -0.2571  0.3029
 7790TIP3    H244786   5.029   4.046   4.206 -0.1879 -0.2645  0.1182
 7791TIP3   OH244787   1.650   0.798   5.513 -0.1407 -0.0215 -0.0319
 7791TIP3    H144788   1.735   0.783   5.472 -0.6768 -1.1500 -0.7381
 7791TIP3    H244789   1.627   0.888   5.489  0.4106 -0.0463 -0.6495
 7792TIP3   OH244790   3.883   2.393   3.766 -0.2059 -0.7026 -0.0315
 7792TIP3    H144791   3.956   2.455   3.769  0.0937 -1.1306  2.4465
 7792TIP3    H244792   3.810   2.444   3.732  0.7844  0.2106 -0.8473
 7793TIP3   OH244793   6.784   3.714   1.453 -0.0614 -0.5131  0.4560
 7793TIP3    H144794   6.722   3.742   1.385  0.3477 -1.1914 -0.1923
 7793TIP3    H244795   6.867   3.753   1.427  0.0551 -0.6163  0.6735
 7794TIP3   OH244796   3.364   3.428  12.967 -0.5759  0.3182  0.4273
 7794TIP3    H144797   3.274   3.398  12.965 -0.1446 -1.0471  1.1974
 7794TIP3    H244798   3.369   3.494  12.897 -1.4727 -1.5504 -1.4621
 7795TIP3   OH244799   0.649   2.426  15.437 -0.2118 -0.1454  0.1362
 7795TIP3    H144800   0.592   2.362  15.479 -0.0038 -0.6965 -0.4172
 7795TIP3    H244801   0.592   2.500  15.419 -1.2134 -1.4278 -2.1305
 7796TIP3   OH244802   6.048   2.019  16.927 -0.8230 -0.0211  0.0211
 7796TIP3    H144803   6.059   1.925  16.912  0.2026  0.3474 -1.6414
 7796TIP3    H244804   5.964   2.026  16.973 -1.5126 -1.6511 -0.9419
 7797TIP3   OH244805   6.718   4.998   4.285  0.1757  0.2686  0.6131
 7797TIP3    H144806   6.776   5.055   4.234 -1.0647  1.3779  0.4319
 7797TIP3    H244807   6.756   4.998   4.373  1.6904 -0.7616 -0.0040
 7798TIP3   OH244808   1.440   5.248   1.358 -0.4828 -0.2120 -0.0050
 7798TIP3    H144809   1.529   5.223   1.336 -0.7394 -0.0855 -1.2253
 7798TIP3    H244810   1.434   5.237   1.453  1.0794  0.6098  0.1903
 7799TIP3   OH244811   0.512   1.976  15.234  0.4738  0.1131  0.0226
 7799TIP3    H144812   0.419   1.989  15.214  0.7976 -0.0599 -1.6686
 7799TIP3    H244813   0.541   2.059  15.272 -0.0578  0.6322 -0.6873
 7800TIP3   OH244814   2.185   0.959   5.939  0.3192 -0.1094  0.1194
 7800TIP3    H144815   2.226   0.878   5.971  1.6714  0.5382  0.0668
 7800TIP3    H244816   2.105   0.929   5.896 -0.3149 -1.2234  1.9829
 7801TIP3   OH244817   1.151   5.259   0.098 -0.1604  0.4469 -0.1417
 7801TIP3    H144818   1.144   5.249   0.003  1.5773 -1.1968 -0.1393
 7801TIP3    H244819   1.112   5.179   0.133  0.9525  0.1582  0.4513
 7802TIP3   OH244820   3.603   2.383  13.490 -0.0715 -0.1094 -0.0467
 7802TIP3    H144821   3.551   2.340  13.557 -0.0506  0.5998  0.4297
 7802TIP3    H244822   3.544   2.449  13.452 -0.2622 -0.8863 -1.1074
 7803TIP3   OH244823   0.606   6.534   0.157 -0.5555  0.5514  0.3676
 7803TIP3    H144824   0.643   6.622   0.160 -0.0752  0.2721  3.6699
 7803TIP3    H244825   0.515   6.547   0.131 -0.1344  1.8770 -0.4907
 7804TIP3   OH244826   0.768   0.820   1.344  0.0479 -0.0669 -0.5552
 7804TIP3    H144827   0.698   0.843   1.283 -0.5532 -0.8062 -0.1576
 7804TIP3    H244828   0.847   0.858   1.306 -0.4405  0.0996 -1.4109
 7805TIP3   OH244829   1.060   6.131  14.076 -0.4668 -0.7244  0.3291
 7805TIP3    H144830   1.020   6.133  13.989  0.4503 -0.6115 -0.0992
 7805TIP3    H244831   1.124   6.059  14.071 -1.1439 -1.4046  1.2427
 7806TIP3   OH244832   4.810   6.640  11.848  0.1054 -0.1039 -0.1058
 7806TIP3    H144833   4.776   6.620  11.760 -0.8668 -3.3154  0.9510
 7806TIP3    H244834   4.733   6.670  11.896  0.4795  0.8497 -0.0878
 7807TIP3   OH244835   3.200   0.795  14.429  0.4158  0.6662  0.0354
 7807TIP3    H144836   3.131   0.808  14.494 -0.2916 -2.0436 -0.1254
 7807TIP3    H244837   3.278   0.772  14.480 -0.3950 -2.5074 -0.0432
 7808TIP3   OH244838   3.293   4.867  11.396  0.2118 -0.4877  0.0378
 7808TIP3    H144839   3.238   4.924  11.342  1.4360  1.0157  0.3570
 7808TIP3    H244840   3.245   4.784  11.399 -0.5303 -0.1744 -2.2251
 7809TIP3   OH244841   4.034   4.310  15.867  0.0778 -0.4546 -0.0339
 7809TIP3    H144842   3.960   4.323  15.926  0.3861 -0.1451  0.2843
 7809TIP3    H244843   4.013   4.363  15.790 -0.2414 -0.7234 -0.1346
 7810TIP3   OH244844   3.502   3.144   0.181 -0.0175  0.2562 -0.5666
 7810TIP3    H144845   3.507   3.053   0.150  0.8831  0.1615 -0.1580
 7810TIP3    H244846   3.411   3.156   0.206  0.2186 -1.0595  0.9518
 7811TIP3   OH244847   3.603   5.794  15.370  0.1839 -0.3036 -0.0114
 7811TIP3    H144848   3.669   5.817  15.434  1.1019  1.3114 -1.4802
 7811TIP3    H244849   3.569   5.709  15.398  0.2989  0.5374  2.7764
 7812TIP3   OH244850   4.030   2.023   4.807 -0.6045 -0.3023 -0.2134
 7812TIP3    H144851   4.000   2.063   4.725  1.3603  1.5968 -0.0582
 7812TIP3    H244852   4.105   1.970   4.781 -0.8381 -0.8333  0.1815
 7813TIP3   OH244853   5.570   3.967  14.160  0.5819  0.0773  0.6459
 7813TIP3    H144854   5.541   3.922  14.081  1.1280  0.3752  0.2708
 7813TIP3    H244855   5.575   3.898  14.226  1.9869 -0.5297 -0.0733
 7814TIP3   OH244856   6.308   3.409  13.377 -0.0652  0.0722 -0.2881
 7814TIP3    H144857   6.289   3.460  13.456  3.4511 -0.2102  0.8347
 7814TIP3    H244858   6.359   3.469  13.322  0.6201 -0.9016 -0.7230
 7815TIP3   OH244859   3.644   4.584   1.953 -0.0617  0.3263 -0.3440
 7815TIP3    H144860   3.595   4.593   2.035  0.7824  0.3057  0.1679
 7815TIP3    H244861   3.584   4.616   1.886 -0.1251  1.9863  0.4826
 7816TIP3   OH244862   4.066   2.592  14.141  0.0629 -0.3096  0.0569
 7816TIP3    H144863   4.153   2.614  14.107  1.0430 -1.6381  1.6045
 7816TIP3    H244864   4.048   2.505  14.103 -1.1849  0.5291 -1.3135
 7817TIP3   OH244865   2.440   1.900   5.789 -0.3245 -0.5007  0.0092
 7817TIP3    H144866   2.473   1.824   5.837  1.2729  0.5375  0.5837
 7817TIP3    H244867   2.430   1.868   5.699 -0.1956 -1.5491  0.3558
 7818TIP3   OH244868   0.521   1.898  10.590  0.0114  0.3655  0.3255
 7818TIP3    H144869   0.436   1.907  10.632 -0.8893 -0.6956 -1.2059
 7818TIP3    H244870   0.545   1.807  10.604 -0.2425  0.0361 -1.3290
 7819TIP3   OH244871   4.345   0.073  11.992  0.3567 -0.2313 -0.1315
 7819TIP3    H144872   4.272   0.134  12.000 -0.0000 -0.4832 -1.3896
 7819TIP3    H244873   4.362   0.045  12.082 -0.4036  0.6270  0.2933
 7820TIP3   OH244874   1.695   4.991  13.142  0.3723 -0.6451  0.1996
 7820TIP3    H144875   1.706   4.912  13.089  0.4191  0.4083 -1.3713
 7820TIP3    H244876   1.752   5.056  13.102 -0.7871  0.6416  0.5700
 7821TIP3   OH244877   6.070   5.924  11.760 -0.0935 -0.2602  0.1729
 7821TIP3    H144878   6.017   5.844  11.762 -0.3463 -0.1326 -0.8386
 7821TIP3    H244879   6.007   5.995  11.769 -0.1080 -0.1075 -1.0101
 7822TIP3   OH244880   0.485   0.775   3.469 -0.1343 -0.2419  0.0998
 7822TIP3    H144881   0.466   0.776   3.376 -1.4676 -2.1644  0.3080
 7822TIP3    H244882   0.399   0.783   3.511  0.3682 -0.1975  1.1343
 7823TIP3   OH244883   1.338   5.878  13.533  0.2698  0.1713  0.1915
 7823TIP3    H144884   1.274   5.812  13.506 -0.0061 -0.3217  1.9873
 7823TIP3    H244885   1.416   5.828  13.556 -0.0226  0.4444  1.8030
 7824TIP3   OH244886   3.586   2.673  13.148 -0.2341  0.2206 -0.3054
 7824TIP3    H144887   3.516   2.696  13.086 -0.1447 -1.1214 -0.9252
 7824TIP3    H244888   3.558   2.590  13.186 -0.8378  1.6006  2.3465
 7825TIP3   OH244889   4.555   3.928   4.377  0.4499  0.2108  0.1062
 7825TIP3    H144890   4.490   3.994   4.399 -0.9704 -1.1079 -0.0314
 7825TIP3    H244891   4.604   3.914   4.459 -0.1830  0.4058  0.5242
 7826TIP3   OH244892   1.149   0.558  14.645 -0.0770  0.1292 -0.6300
 7826TIP3    H144893   1.134   0.584  14.736  2.3767  0.3355 -0.2617
 7826TIP3    H244894   1.182   0.636  14.602 -0.2012 -0.2576 -1.4446
 7827TIP3   OH244895   3.740   5.883  15.601 -0.0624  0.0602  0.1506
 7827TIP3    H144896   3.807   5.890  15.669  0.2702  0.0866 -0.1769
 7827TIP3    H244897   3.721   5.973  15.577  1.1473  0.0110 -1.0745
 7828TIP3   OH244898   3.389   2.177   3.932  0.0428 -0.3447  0.1276
 7828TIP3    H144899   3.434   2.126   3.999 -0.4096  0.3996  1.0143
 7828TIP3    H244900   3.441   2.165   3.853  0.2538 -1.7096  0.4657
 7829TIP3   OH244901   3.282   1.990   4.532  0.0044 -0.4568 -0.1109
 7829TIP3    H144902   3.349   2.058   4.519  0.3894 -0.6522  0.8302
 7829TIP3    H244903   3.205   2.038   4.562  0.0809 -0.3648 -0.0602
 7830TIP3   OH244904   0.073   3.217   5.623 -0.1458  0.1705 -0.0565
 7830TIP3    H144905   0.001   3.234   5.562  0.3111 -0.2744 -0.7169
 7830TIP3    H244906   0.075   3.295   5.679 -1.1103  0.2098 -0.0642
 7831TIP3   OH244907   2.441   2.855   3.117  0.0482  0.2209  0.1077
 7831TIP3    H144908   2.497   2.797   3.169 -2.4719  0.3461  3.0770
 7831TIP3    H244909   2.442   2.817   3.029  3.2290 -0.8454  0.5274
 7832TIP3   OH244910   2.033   3.760   2.968  0.0489  0.1763 -0.0762
 7832TIP3    H144911   2.041   3.759   3.063 -0.3180  0.0854 -0.0448
 7832TIP3    H244912   2.071   3.843   2.941  0.5793 -0.0024  0.1109
 7833TIP3   OH244913   3.044   2.160  13.159 -0.4802 -0.3488 -0.3509
 7833TIP3    H144914   3.044   2.250  13.190 -2.1503 -0.4857  0.1276
 7833TIP3    H244915   2.977   2.116  13.213  0.9179 -2.0731  0.0209
 7834TIP3   OH244916   3.002   2.775  12.087  0.3416  0.8570 -0.3412
 7834TIP3    H144917   2.933   2.715  12.114  3.8272 -2.5739  1.3657
 7834TIP3    H244918   3.020   2.828  12.166  0.6316  0.7643 -0.3439
 7835TIP3   OH244919   1.167   1.852  16.867 -0.3671 -0.0926  0.4935
 7835TIP3    H144920   1.090   1.884  16.820  0.5525 -0.9553 -1.7262
 7835TIP3    H244921   1.154   1.757  16.871  0.7610 -0.2970 -0.3267
 7836TIP3   OH244922   5.192   1.259   0.094  0.4736  0.1657 -0.5501
 7836TIP3    H144923   5.138   1.196   0.046  1.3568 -0.6801 -0.4649
 7836TIP3    H244924   5.138   1.285   0.169  0.4892 -1.2967 -0.0134
 7837TIP3   OH244925   0.911   0.494   0.834 -0.0266 -0.4181 -0.0096
 7837TIP3    H144926   0.998   0.478   0.798  0.8127  3.9972 -0.2314
 7837TIP3    H244927   0.861   0.528   0.760 -1.2137 -0.5858  0.7099
 7838TIP3   OH244928   4.749   0.657  12.272 -0.3241  0.7708  0.0277
 7838TIP3    H144929   4.745   0.569  12.235 -1.0285 -0.1519  2.2277
 7838TIP3    H244930   4.841   0.682  12.265  0.1599 -0.7596  0.7809
 7839TIP3   OH244931   3.937   2.406   5.349  0.2163  0.5363 -0.2665
 7839TIP3    H144932   3.939   2.360   5.433 -0.4151 -1.2693 -1.2133
 7839TIP3    H244933   3.993   2.483   5.362  0.7035 -0.1086  1.5699
 7840TIP3   OH244934   1.414   0.738  14.469  0.1631 -0.0707 -0.1465
 7840TIP3    H144935   1.347   0.806  14.475  0.4104  0.3340 -1.7926
 7840TIP3    H244936   1.374   0.670  14.415  0.3527 -0.7294  0.5293
 7841TIP3   OH244937   1.689   6.225   2.412 -0.4939 -0.2855  0.5850
 7841TIP3    H144938   1.655   6.281   2.342 -1.8007 -1.0796  0.5488
 7841TIP3    H244939   1.685   6.136   2.375  0.4974 -0.5135  1.0297
 7842TIP3   OH244940   5.905   0.039   6.052 -0.1188 -0.0781 -0.4482
 7842TIP3    H144941   5.947   0.037   6.138 -0.6145 -0.8777 -0.2183
 7842TIP3    H244942   5.835  -0.026   6.058 -0.9669  0.7778 -1.0480
 7843TIP3   OH244943   4.444   4.235  16.122  0.2894  0.1429  0.9175
 7843TIP3    H144944   4.367   4.217  16.176 -1.0791 -0.6843 -1.2689
 7843TIP3    H244945   4.410   4.277  16.044  1.8915 -1.4306 -0.6813
 7844TIP3   OH244946   5.317   5.863  14.570  0.7313 -0.2496 -0.2661
 7844TIP3    H144947   5.335   5.771  14.551  0.4433 -0.6859  1.5154
 7844TIP3    H244948   5.226   5.865  14.601  1.0295  0.5016  0.5919
 7845TIP3   OH244949   3.419   2.005  12.618  0.1227  0.1855 -0.0180
 7845TIP3    H144950   3.457   2.053  12.544  0.1702  0.2014  0.0163
 7845TIP3    H244951   3.495   1.977  12.670  0.1148 -0.3522 -0.3007
 7846TIP3   OH244952   4.466   6.411   0.188  0.3338 -0.1108  0.1244
 7846TIP3    H144953   4.491   6.378   0.274  3.9539 -1.4154 -1.3459
 7846TIP3    H244954   4.510   6.495   0.180 -2.6790  1.5807  0.8119
 7847TIP3   OH244955   2.798   3.977  13.249 -0.2948 -0.2866 -1.1534
 7847TIP3    H144956   2.871   4.000  13.307  0.0292  1.2138 -2.1410
 7847TIP3    H244957   2.745   4.056  13.245 -2.1211 -1.4333 -0.2673
 7848TIP3   OH244958   5.580   5.989   4.243 -0.0200 -0.3864  0.2793
 7848TIP3    H144959   5.527   6.065   4.220 -0.5476 -0.7551  0.2687
 7848TIP3    H244960   5.665   6.005   4.202 -0.2684 -0.0056 -0.0836
 7849TIP3   OH244961   2.088   2.853   1.761 -0.2323  0.2889 -0.2527
 7849TIP3    H144962   2.176   2.830   1.730  0.5205 -0.6539  2.4554
 7849TIP3    H244963   2.030   2.801   1.705  1.0262 -0.5595 -0.8159
 7850TIP3   OH244964   4.721   2.275   3.296 -0.4320  0.1216 -0.1725
 7850TIP3    H144965   4.805   2.245   3.333  0.0753  2.5551  0.7035
 7850TIP3    H244966   4.685   2.333   3.363 -1.7985  0.8041 -1.4784
 7851TIP3   OH244967   0.184   2.257  15.426 -0.4529 -0.5891 -0.0652
 7851TIP3    H144968   0.235   2.289  15.351 -0.6905  0.0753  0.0552
 7851TIP3    H244969   0.164   2.336  15.477 -0.7063 -0.9804  0.4420
 7852TIP3   OH244970   3.805   6.013   4.140  0.0973 -0.7300  0.0858
 7852TIP3    H144971   3.780   5.986   4.052  3.8328  0.2037 -1.3325
 7852TIP3    H244972   3.786   6.107   4.142  1.4494 -0.4425 -0.2744
 7853TIP3   OH244973   3.714   0.273  13.530 -0.2780 -0.1364 -0.2702
 7853TIP3    H144974   3.725   0.196  13.586  1.5203 -0.4963 -1.0898
 7853TIP3    H244975   3.740   0.346  13.585 -2.0964 -0.0658  0.5467
 7854TIP3   OH244976   0.266   2.145   5.921  0.2767  0.1941  0.4009
 7854TIP3    H144977   0.304   2.231   5.900  0.1547  0.2752  0.5104
 7854TIP3    H244978   0.204   2.129   5.850  1.1406 -0.3357 -0.2434
 7855TIP3   OH244979   0.996   3.578  11.305  0.0027 -0.1105  0.4102
 7855TIP3    H144980   0.966   3.615  11.222  0.6829  0.8243  0.5661
 7855TIP3    H244981   1.007   3.485  11.288 -1.2464 -0.1557 -0.1423
 7856TIP3   OH244982   5.681   5.441  16.084  0.1144 -0.2467 -0.4362
 7856TIP3    H144983   5.761   5.424  16.135 -0.0834 -0.3422 -0.1605
 7856TIP3    H244984   5.674   5.537  16.084 -1.3905 -0.3271  2.0472
 7857TIP3   OH244985   4.000   0.272   5.968  0.1302  0.2032 -0.0274
 7857TIP3    H144986   4.089   0.271   5.935 -0.1254 -0.2240 -0.7176
 7857TIP3    H244987   3.958   0.344   5.922 -0.7768 -1.6281 -2.1412
 7858TIP3   OH244988   5.560   6.072   0.611  0.4923  0.0222  0.5543
 7858TIP3    H144989   5.495   6.125   0.657  0.6092  0.3757  0.3068
 7858TIP3    H244990   5.592   6.128   0.540  1.6380  0.1268  1.1427
 7859TIP3   OH244991   4.779   1.618   0.422  0.1215 -0.4331  0.2482
 7859TIP3    H144992   4.805   1.525   0.417  0.4609 -0.3173 -0.1928
 7859TIP3    H244993   4.684   1.617   0.412 -0.2039 -0.9524  2.9299
 7860TIP3   OH244994   0.268   4.836   1.799  0.4868 -0.1482 -0.5838
 7860TIP3    H144995   0.327   4.773   1.841 -0.7945 -2.3550 -1.9705
 7860TIP3    H244996   0.181   4.810   1.828 -0.1561  0.2725 -2.1045
 7861TIP3   OH244997   4.120   2.872   3.562 -0.1158  0.6792 -0.3698
 7861TIP3    H144998   4.187   2.804   3.567  0.7905  1.5727 -0.1348
 7861TIP3    H244999   4.056   2.838   3.500  0.0277 -0.6338  0.1811
 7862TIP3   OH245000   4.317   1.817  12.550 -0.0516  0.1453  0.2977
 7862TIP3    H145001   4.348   1.770  12.473 -1.1770 -0.4307  0.1863
 7862TIP3    H245002   4.395   1.859  12.585  0.4889  0.3338 -1.0955
 7863TIP3   OH245003   6.269   0.620   4.466  0.3314 -0.0717 -0.2063
 7863TIP3    H145004   6.269   0.617   4.370 -1.1275  0.0046 -0.2142
 7863TIP3    H245005   6.220   0.699   4.488  2.5430  1.1325  0.6006
 7864TIP3   OH245006   4.011   3.799   5.491  0.8864  0.2417  0.0945
 7864TIP3    H145007   3.924   3.822   5.523  0.9693  0.6138  0.0542
 7864TIP3    H245008   4.025   3.856   5.415  0.8776 -0.3207 -0.3286
 7865TIP3   OH245009   1.095   4.789  12.663 -0.1103  0.1449  0.2539
 7865TIP3    H145010   1.081   4.791  12.757  1.5763  0.2515  0.5165
 7865TIP3    H245011   1.189   4.805  12.652 -0.1907 -0.4074 -1.4137
 7866TIP3   OH245012   0.836   5.968  13.189  0.1983 -0.3493  0.0884
 7866TIP3    H145013   0.765   5.945  13.129 -0.7136 -2.2846  1.8529
 7866TIP3    H245014   0.915   5.936  13.145 -0.4496 -1.6487 -0.1502
 7867TIP3   OH245015   1.222   4.176  11.907 -0.2774 -0.0761 -0.1121
 7867TIP3    H145016   1.211   4.240  11.977  3.2594  0.3278  0.1723
 7867TIP3    H245017   1.193   4.221  11.828 -0.6222  0.8332  0.5266
 7868TIP3   OH245018   2.053   2.106  16.630 -0.1640  0.1603  0.2529
 7868TIP3    H145019   1.996   2.173  16.669  0.7976  0.5549  1.0147
 7868TIP3    H245020   2.139   2.125  16.666  0.0461 -1.7640  0.8177
 7869TIP3   OH245021   0.381   1.413  14.958  0.0617  0.0704  0.2997
 7869TIP3    H145022   0.384   1.464  15.039  0.7992  2.3066 -1.0910
 7869TIP3    H245023   0.303   1.445  14.912  1.2616  0.9470 -1.1908
 7870TIP3   OH245024   4.758   4.879   2.614  0.0981 -0.0054 -0.2525
 7870TIP3    H145025   4.819   4.835   2.672  0.3369 -0.6255 -0.9566
 7870TIP3    H245026   4.686   4.817   2.603 -0.3321  0.4428  0.0363
 7871TIP3   OH245027   1.104   1.943  16.554  0.0041 -0.3499 -0.1736
 7871TIP3    H145028   1.091   2.030  16.518  0.8232  0.2022  0.8542
 7871TIP3    H245029   1.028   1.893  16.525  0.9516 -0.1263 -3.3002
 7872TIP3   OH245030   0.178   4.292  15.397 -0.0573  0.0495 -0.4583
 7872TIP3    H145031   0.259   4.309  15.348  0.1859  2.1279  0.6443
 7872TIP3    H245032   0.186   4.201  15.426  1.4479 -0.0436 -1.1471
 7873TIP3   OH245033   1.782   1.449  12.213 -0.3241 -0.0458  0.0374
 7873TIP3    H145034   1.699   1.423  12.253 -0.9455  0.7794 -0.7226
 7873TIP3    H245035   1.759   1.478  12.125  0.6153  1.3359  0.2380
 7874TIP3   OH245036   1.347   3.837  16.044 -0.2741  0.1100  0.2965
 7874TIP3    H145037   1.340   3.918  15.993  1.0213  0.4976  0.7209
 7874TIP3    H245038   1.369   3.866  16.132  0.8333 -0.7258  0.3056
 7875TIP3   OH245039   1.329   4.242  13.557 -0.0210  0.0191 -0.0694
 7875TIP3    H145040   1.282   4.167  13.593  0.6744 -1.5239 -2.2625
 7875TIP3    H245041   1.261   4.307  13.539 -0.8083 -0.6467  0.4745
 7876TIP3   OH245042   6.147   1.100   5.749  0.1585 -0.0138 -0.1832
 7876TIP3    H145043   6.209   1.036   5.787  2.6390  1.5970 -1.3720
 7876TIP3    H245044   6.110   1.145   5.824  1.1156 -0.4039  0.5359
 7877TIP3   OH245045   4.893   6.026  13.964 -0.7581  0.4024 -0.0842
 7877TIP3    H145046   4.820   5.990  13.914  0.5835  0.1789 -1.9394
 7877TIP3    H245047   4.962   6.039  13.899  0.2886  2.1694  1.3394
 7878TIP3   OH245048   4.610   1.498   1.875 -0.2449 -0.5619  0.3043
 7878TIP3    H145049   4.669   1.502   1.801 -1.3148 -1.4925 -0.6290
 7878TIP3    H245050   4.621   1.409   1.910 -0.1260 -0.3021  0.9344
 7879TIP3   OH245051   6.417   5.308  14.682  0.1138  0.1376 -0.0993
 7879TIP3    H145052   6.421   5.217  14.651 -0.2231 -0.1485  0.6778
 7879TIP3    H245053   6.505   5.324  14.717  0.5830  0.5566 -1.4500
 7880TIP3   OH245054   2.435   2.322   4.805  0.8885  0.0829 -0.0301
 7880TIP3    H145055   2.345   2.352   4.789  1.2370  0.2076 -1.8038
 7880TIP3    H245056   2.463   2.372   4.881 -0.8696 -0.6591  1.1690
 7881TIP3   OH245057   0.195   4.820  16.996  0.2792 -0.6103  0.1844
 7881TIP3    H145058   0.101   4.808  17.009  0.4315 -1.8004  0.1740
 7881TIP3    H245059   0.232   4.822  17.084  0.4044 -1.4206  0.1497
 7882TIP3   OH245060   3.685   5.505   1.682  0.1219  0.5087  0.0605
 7882TIP3    H145061   3.610   5.446   1.686  0.6906 -0.1925  0.5000
 7882TIP3    H245062   3.689   5.532   1.591  0.0059 -0.3368 -0.2030
 7883TIP3   OH245063   5.737   5.217   3.341  1.4780  0.3410 -0.3657
 7883TIP3    H145064   5.782   5.168   3.410  1.0561 -0.4705 -0.6597
 7883TIP3    H245065   5.800   5.217   3.268  2.2852  1.9647  0.3078
 7884TIP3   OH245066   1.421   6.339   4.449  0.1333 -0.5657  0.0413
 7884TIP3    H145067   1.481   6.286   4.501  0.2759 -0.5751 -0.1343
 7884TIP3    H245068   1.381   6.278   4.387 -0.3657 -0.6419  0.4314
 7885TIP3   OH245069   0.396   3.574   4.060 -0.0510  0.3934  0.0575
 7885TIP3    H145070   0.384   3.557   3.966 -1.5221 -2.0243  0.6355
 7885TIP3    H245071   0.318   3.536   4.101  0.5132  1.5331  2.2696
 7886TIP3   OH245072   5.481   4.735  16.244 -0.1348  0.0553  0.1150
 7886TIP3    H145073   5.573   4.742  16.220  0.1015 -1.8015  0.4513
 7886TIP3    H245074   5.455   4.647  16.217 -2.0324  0.8203 -0.6797
 7887TIP3   OH245075   3.984   5.030   3.011 -0.1597  0.2913  0.1995
 7887TIP3    H145076   3.929   5.072   3.077 -0.7362 -0.5497  0.2563
 7887TIP3    H245077   3.936   4.950   2.987  1.1281 -0.5548  0.4074
 7888TIP3   OH245078   1.055   4.906  13.472  0.3427 -0.3484 -0.0325
 7888TIP3    H145079   0.961   4.919  13.463  0.2073  0.7755  2.5699
 7888TIP3    H245080   1.094   4.989  13.444  0.4144  0.0092  1.1062
 7889TIP3   OH245081   1.348   2.772   4.330  0.0690  0.0165  0.8156
 7889TIP3    H145082   1.436   2.747   4.358  0.5213  0.9777  0.3046
 7889TIP3    H245083   1.362   2.821   4.248 -1.1059 -1.5001 -0.3210
 7890TIP3   OH245084   2.516   2.141   5.640  0.3687 -0.6896  0.1936
 7890TIP3    H145085   2.587   2.147   5.704  0.7699 -2.5222 -0.0534
 7890TIP3    H245086   2.465   2.065   5.668 -2.5208  1.5873  1.3388
 7891TIP3   OH245087   3.121   5.238  12.524 -0.6666 -0.1459  0.0260
 7891TIP3    H145088   3.215   5.255  12.534 -0.8478  1.0650 -0.2750
 7891TIP3    H245089   3.114   5.189  12.442 -0.3847  0.4625 -0.3581
 7892TIP3   OH245090   3.721   1.441  12.396 -0.6152 -0.2479  0.2168
 7892TIP3    H145091   3.754   1.516  12.445 -1.4014 -0.0123  0.3847
 7892TIP3    H245092   3.653   1.477  12.339  0.0425 -0.5749 -0.8097
 7893TIP3   OH245093   1.744   0.365  17.061  0.8655  0.3729 -0.0060
 7893TIP3    H145094   1.760   0.366  17.155  0.0574  3.1225  0.1524
 7893TIP3    H245095   1.804   0.431  17.025  2.4908 -1.9361 -1.6979
 7894TIP3   OH245096   5.826   6.216  13.729 -0.6310  0.1358  0.4792
 7894TIP3    H145097   5.874   6.216  13.812  1.8588 -4.2953 -0.7856
 7894TIP3    H245098   5.875   6.276  13.673 -0.2143  0.3938  1.1148
 7895TIP3   OH245099   4.600   1.617  11.804 -0.2268  0.1205 -0.8486
 7895TIP3    H145100   4.658   1.541  11.803 -1.6159 -0.9656  0.1416
 7895TIP3    H245101   4.582   1.635  11.712  0.3511 -0.5518 -1.0945
 7896TIP3   OH245102   2.034   4.800  15.959 -0.0927  0.7345 -0.4308
 7896TIP3    H145103   2.082   4.828  16.038 -0.1507  2.3194 -0.9424
 7896TIP3    H245104   1.953   4.850  15.961 -0.3464  0.3619 -1.2058
 7897TIP3   OH245105   1.388   5.404  16.208 -0.1718  0.2656 -0.2952
 7897TIP3    H145106   1.452   5.420  16.138 -0.2813 -0.4724 -0.5709
 7897TIP3    H245107   1.440   5.400  16.288  0.0365  0.4740 -0.4187
 7898TIP3   OH245108   6.516   0.103   3.794  0.3507  0.4170  0.2903
 7898TIP3    H145109   6.504   0.148   3.710  1.9976  1.3666  0.5526
 7898TIP3    H245110   6.608   0.116   3.816  0.2223 -0.8303  1.6856
 7899TIP3   OH245111   6.312   5.438   3.636  0.2559 -0.2164  0.4931
 7899TIP3    H145112   6.251   5.444   3.710 -1.1326  2.5722 -0.8407
 7899TIP3    H245113   6.337   5.528   3.618  1.8691 -1.0139 -1.4234
 7900TIP3   OH245114   3.972   5.838  11.785  0.4298  0.4403  0.5052
 7900TIP3    H145115   3.936   5.869  11.702  3.2545 -0.7924 -1.2758
 7900TIP3    H245116   3.920   5.761  11.807  0.1531  0.3241 -0.5499
 7901TIP3   OH245117   0.370   1.923   3.358 -0.1969 -0.7258 -0.8975
 7901TIP3    H145118   0.436   1.965   3.413  0.3139  0.0168 -2.0745
 7901TIP3    H245119   0.331   1.856   3.415 -0.9100  1.1918  0.9748
 7902TIP3   OH245120   3.808   3.012   1.831  0.5303 -0.4555  0.3846
 7902TIP3    H145121   3.771   2.938   1.880  0.0261  0.3390  1.2213
 7902TIP3    H245122   3.757   3.015   1.751 -0.9137  0.3227  1.3131
 7903TIP3   OH245123   2.500   1.153  14.515 -0.2011  0.2824 -0.0957
 7903TIP3    H145124   2.492   1.075  14.459  0.0888 -0.0126  0.2681
 7903TIP3    H245125   2.577   1.136  14.568 -0.6897  0.3910  0.6565
 7904TIP3   OH245126   2.443   0.617  12.117 -0.1340  0.0349  0.1471
 7904TIP3    H145127   2.468   0.649  12.204 -0.4252  1.1156 -0.1625
 7904TIP3    H245128   2.521   0.633  12.063  0.1013 -0.7780  0.2447
 7905TIP3   OH245129   0.991   6.784   2.433 -0.4507 -0.0371  0.5277
 7905TIP3    H145130   1.048   6.860   2.441 -0.0547 -0.5902  3.6996
 7905TIP3    H245131   0.975   6.775   2.339  2.4912  1.7260 -0.1990
 7906TIP3   OH245132   5.423   2.271  12.467 -0.1288 -0.4655 -0.3346
 7906TIP3    H145133   5.350   2.210  12.470 -0.2249 -0.3220  0.2862
 7906TIP3    H245134   5.494   2.221  12.427 -0.5319 -0.6390 -0.8311
 7907TIP3   OH245135   1.178   1.846   3.408  0.1770 -0.3997 -0.0275
 7907TIP3    H145136   1.236   1.904   3.456 -1.2541  0.7547  0.3672
 7907TIP3    H245137   1.219   1.836   3.322  1.2714 -0.1479  0.4624
 7908TIP3   OH245138   5.480   5.718  15.012  0.0667  0.0145  0.2423
 7908TIP3    H145139   5.466   5.788  15.076  0.2040  0.0114  0.2754
 7908TIP3    H245140   5.478   5.762  14.927  0.1658  0.0597  0.2638
 7909TIP3   OH245141   6.227   2.286  15.387  0.7278  0.0967  0.1594
 7909TIP3    H145142   6.253   2.209  15.438 -0.3513 -1.3675 -1.4677
 7909TIP3    H245143   6.132   2.292  15.401  0.4268 -0.3134 -1.6515
 7910TIP3   OH245144   3.597   6.233  13.112  0.8612  0.2085  0.2354
 7910TIP3    H145145   3.595   6.308  13.051  0.9791 -0.0487 -0.0859
 7910TIP3    H245146   3.584   6.273  13.198  2.5227  0.7849  0.2412
 7911TIP3   OH245147   0.227   0.798   0.586 -0.3551 -0.2353  0.0565
 7911TIP3    H145148   0.267   0.715   0.613 -1.1706 -0.4333  0.6927
 7911TIP3    H245149   0.228   0.852   0.665 -0.5419  0.0713 -0.1479
 7912TIP3   OH245150   2.949   3.420  16.475  0.0947  0.3561  0.0596
 7912TIP3    H145151   3.000   3.430  16.395 -1.0517  1.8978 -0.5001
 7912TIP3    H245152   3.014   3.432  16.545  0.7875  0.7761 -0.6372
 7913TIP3   OH245153   2.628   1.347  12.361 -0.0595  0.4727  0.4423
 7913TIP3    H145154   2.547   1.397  12.373 -0.3231  0.2241 -0.2786
 7913TIP3    H245155   2.691   1.412  12.330 -0.0280  0.6272  0.8182
 7914TIP3   OH245156   5.770   2.829   4.348 -0.5087 -0.6578  0.2546
 7914TIP3    H145157   5.775   2.744   4.391  1.3896  0.1252  1.6640
 7914TIP3    H245158   5.722   2.885   4.409 -1.6602 -0.6856 -0.6186
 7915TIP3   OH245159   5.047   1.851   2.959  0.2299  0.3208  0.0129
 7915TIP3    H145160   4.978   1.913   2.937 -0.0451  0.0589  0.1166
 7915TIP3    H245161   5.051   1.791   2.884 -0.1205 -0.0621  0.2916
 7916TIP3   OH245162   4.301   1.554   1.183  0.5103 -0.0521  0.4907
 7916TIP3    H145163   4.385   1.515   1.159  0.3518  0.4637 -1.0089
 7916TIP3    H245164   4.319   1.648   1.190  0.0675  0.0675  0.1269
 7917TIP3   OH245165   1.468   0.344   0.444  0.0679 -0.2242  0.2109
 7917TIP3    H145166   1.471   0.368   0.537 -0.5994 -2.2459  0.7749
 7917TIP3    H245167   1.537   0.279   0.433 -1.5704 -1.9364 -0.1139
 7918TIP3   OH245168   1.724   0.448  12.099  0.4499  0.8854  0.8663
 7918TIP3    H145169   1.695   0.531  12.139 -0.6166  0.6628  0.5566
 7918TIP3    H245170   1.708   0.382  12.167  0.9373  0.8744  0.9708
 7919TIP3   OH245171   0.040   0.561   5.652  0.1238 -0.0166  0.2941
 7919TIP3    H145172  -0.023   0.581   5.582  0.8890  0.8808 -0.1445
 7919TIP3    H245173   0.012   0.475   5.685  0.3096 -0.8870 -1.7328
 7920TIP3   OH245174   2.731   2.758   3.588  0.0353 -0.6260  0.3273
 7920TIP3    H145175   2.643   2.730   3.612 -0.0545 -0.1477  0.5616
 7920TIP3    H245176   2.748   2.834   3.644  0.6980 -0.8809  0.4755
 7921TIP3   OH245177   5.938   0.676   4.352 -0.4727 -0.4669 -0.0989
 7921TIP3    H145178   5.885   0.751   4.377  0.0564 -0.1894  0.2165
 7921TIP3    H245179   5.893   0.601   4.389 -0.4253 -0.1923  0.5409
 7922TIP3   OH245180   1.363   3.287   0.906 -0.0778 -0.0370  0.5656
 7922TIP3    H145181   1.405   3.235   0.838  0.1637 -1.9424  2.1366
 7922TIP3    H245182   1.416   3.367   0.912  1.5842 -1.1042  0.4695
 7923TIP3   OH245183   4.720   6.475  15.772  0.6527 -0.4416 -0.3982
 7923TIP3    H145184   4.805   6.448  15.805  0.8735 -0.0253 -0.6130
 7923TIP3    H245185   4.715   6.569  15.793  0.4147 -0.3773 -0.7333
 7924TIP3   OH245186   2.260   3.618  17.014  0.6287 -0.0482  0.1127
 7924TIP3    H145187   2.197   3.667  16.961  1.2984 -1.3364 -1.9372
 7924TIP3    H245188   2.310   3.685  17.061 -0.7776  1.0700  0.0508
 7925TIP3   OH245189   5.939   6.676  14.290  0.0717  0.2608 -0.7675
 7925TIP3    H145190   6.004   6.616  14.327 -0.2537 -1.0029 -2.2024
 7925TIP3    H245191   5.859   6.657  14.338  0.4229  0.8708  0.0693
 7926TIP3   OH245192   6.519   5.277  15.415 -0.1294 -0.2248 -0.7053
 7926TIP3    H145193   6.522   5.369  15.442  0.0281 -0.0671 -1.2535
 7926TIP3    H245194   6.546   5.229  15.493 -0.8062  0.1586 -0.2308
 7927TIP3   OH245195   1.038   0.474   4.541  0.3489 -0.1578 -0.0299
 7927TIP3    H145196   1.035   0.437   4.453  1.8704  0.2237 -0.2572
 7927TIP3    H245197   0.947   0.480   4.568 -0.0580 -1.4234 -1.1005
 7928TIP3   OH245198   1.942   3.962  14.748 -0.1331 -0.4720  0.1504
 7928TIP3    H145199   2.010   3.910  14.704 -0.1168  0.2361 -0.6783
 7928TIP3    H245200   1.986   4.044  14.771 -0.7066 -0.0193 -0.3707
 7929TIP3   OH245201   2.455   0.152   3.332 -0.2692 -0.1695 -0.1938
 7929TIP3    H145202   2.415   0.128   3.416  1.3183  0.6647  0.8235
 7929TIP3    H245203   2.433   0.079   3.274 -0.4252 -1.3070  1.2599
 7930TIP3   OH245204   3.968   6.081  11.617  0.1952  0.1224 -0.0635
 7930TIP3    H145205   4.016   6.115  11.693  1.2938 -0.0863 -0.6575
 7930TIP3    H245206   4.017   6.114  11.541  1.5121 -3.0323 -0.6751
 7931TIP3   OH245207   1.062   5.583   1.954  0.2314 -0.1918 -0.3942
 7931TIP3    H145208   1.034   5.493   1.969  1.7642 -0.6168  0.0034
 7931TIP3    H245209   1.013   5.611   1.877 -0.3838 -1.3164 -0.4155
 7932TIP3   OH245210   0.565   0.603  14.614  0.3133  0.1553 -0.6072
 7932TIP3    H145211   0.507   0.530  14.591  0.4030 -0.2931  0.5496
 7932TIP3    H245212   0.571   0.599  14.709  1.3347  0.9049 -0.6356
 7933TIP3   OH245213   1.541   3.386  13.294  0.2264  0.9379  0.3794
 7933TIP3    H145214   1.622   3.417  13.253 -0.1130  0.1569 -0.8956
 7933TIP3    H245215   1.476   3.390  13.224 -0.3908 -0.2495  0.8696
 7934TIP3   OH245216   6.306   2.332  14.884 -0.0633  0.5519  0.2920
 7934TIP3    H145217   6.304   2.242  14.916 -1.3467  0.9200  1.3045
 7934TIP3    H245218   6.244   2.332  14.810  0.7329  0.3713 -0.3869
 7935TIP3   OH245219   4.584   2.140   0.135 -0.1581 -0.2684  0.2833
 7935TIP3    H145220   4.628   2.055   0.143  0.1089 -0.1019  0.6078
 7935TIP3    H245221   4.581   2.155   0.040  0.2474 -0.4076  0.2441
 7936TIP3   OH245222   1.742   0.120   5.742 -0.1831 -0.1411  0.1439
 7936TIP3    H145223   1.785   0.140   5.659 -0.4896  0.4422  0.1190
 7936TIP3    H245224   1.725   0.206   5.781 -0.9911 -0.3765  0.3245
 7937TIP3   OH245225   1.669   0.939   1.394 -0.5550  0.0369 -0.0372
 7937TIP3    H145226   1.682   0.890   1.313  3.1357 -0.2856  0.6796
 7937TIP3    H245227   1.643   1.027   1.365 -1.8970 -0.8125 -1.4566
 7938TIP3   OH245228   5.268   5.308  16.376 -0.5595 -0.0110  0.5644
 7938TIP3    H145229   5.236   5.398  16.369 -3.1660 -1.0071 -1.1819
 7938TIP3    H245230   5.280   5.293  16.470 -1.7454  1.6268  0.9952
 7939TIP3   OH245231   0.258   5.591   2.506 -0.5529  0.2514 -0.2995
 7939TIP3    H145232   0.268   5.555   2.418 -1.7733  1.6154 -1.0018
 7939TIP3    H245233   0.344   5.577   2.546  0.1803  0.0828 -1.8708
 7940TIP3   OH245234   4.228   0.297  15.934  0.7588 -0.7964 -0.0131
 7940TIP3    H145235   4.195   0.224  15.882 -0.5054  0.4212 -0.9520
 7940TIP3    H245236   4.209   0.375  15.881  1.0542  0.3058  1.4735
 7941TIP3   OH245237   2.947   6.008   5.142  0.4543  0.2974 -0.0334
 7941TIP3    H145238   2.971   6.075   5.078  1.0916  0.3658  0.2803
 7941TIP3    H245239   2.855   5.987   5.121 -0.5941  3.0974  1.4919
 7942TIP3   OH245240   3.062   4.111  15.596  0.0034 -0.2374  0.3687
 7942TIP3    H145241   3.140   4.144  15.552  0.9509 -1.6160  0.9857
 7942TIP3    H245242   3.001   4.090  15.525  0.7128 -0.4291 -0.1817
 7943TIP3   OH245243   5.892   2.636  12.801  0.0313 -0.3633  0.0759
 7943TIP3    H145244   5.947   2.558  12.804 -0.0096 -0.3687  0.7714
 7943TIP3    H245245   5.813   2.608  12.757 -0.0087 -0.7371  0.3805
 7944TIP3   OH245246   6.542   6.760  12.312  0.2501  0.0382 -0.6597
 7944TIP3    H145247   6.472   6.820  12.337 -0.1724 -0.9789  0.6696
 7944TIP3    H245248   6.572   6.792  12.227 -1.5157  0.7565 -1.0292
 7945TIP3   OH245249   3.709   4.274  12.864 -0.3597  0.2033 -0.3107
 7945TIP3    H145250   3.765   4.259  12.941 -0.4122 -2.3460 -0.7108
 7945TIP3    H245251   3.632   4.220  12.880 -0.0292 -0.9666 -2.4650
 7946TIP3   OH245252   4.428   6.242  15.502 -0.1768  1.0715  0.3495
 7946TIP3    H145253   4.373   6.266  15.428  0.1427  2.0237  0.4213
 7946TIP3    H245254   4.480   6.320  15.520  0.1165  0.6739  1.2460
 7947TIP3   OH245255   3.601   2.056  15.048  0.2937 -0.3772  0.3423
 7947TIP3    H145256   3.668   1.999  15.086  0.8081  0.7587  1.1725
 7947TIP3    H245257   3.650   2.128  15.010 -0.4861  0.7182  1.3954
 7948TIP3   OH245258   1.557   0.783   4.899  0.2604 -0.4787  0.6269
 7948TIP3    H145259   1.552   0.744   4.811  0.6887 -0.3757  0.5536
 7948TIP3    H245260   1.648   0.770   4.925  0.6248  1.1916  0.2552
 7949TIP3   OH245261   2.222   4.854   5.059 -0.4002  0.0884  0.3946
 7949TIP3    H145262   2.139   4.892   5.031 -1.4433 -2.2041  0.2487
 7949TIP3    H245263   2.274   4.928   5.089 -1.7168  1.8148 -1.4825
 7950TIP3   OH245264   5.677   3.137   0.076  0.0183  0.9601 -0.6097
 7950TIP3    H145265   5.674   3.042   0.070  0.0374  0.8953  0.3270
 7950TIP3    H245266   5.761   3.161   0.037  0.5700  0.4893  0.2685
 7951TIP3   OH245267   1.618   4.204   0.180 -0.4006 -0.3773  0.2048
 7951TIP3    H145268   1.686   4.176   0.242 -0.0953 -1.3494 -0.5644
 7951TIP3    H245269   1.609   4.298   0.196  0.1795 -0.4881  1.2375
 7952TIP3   OH245270   0.640   1.892  14.972 -0.3170 -0.0134 -0.1793
 7952TIP3    H145271   0.670   1.802  14.976  0.5065  0.2846  0.4544
 7952TIP3    H245272   0.599   1.907  15.058 -0.2640  0.2809 -0.2047
 7953TIP3   OH245273   1.638   5.304  11.007  0.1012 -0.4430  0.0098
 7953TIP3    H145274   1.594   5.221  10.988  3.1450 -2.3383  0.7481
 7953TIP3    H245275   1.675   5.331  10.923  0.2497 -0.5688  0.0336
 7954TIP3   OH245276   5.056   4.967  15.362 -0.0616 -0.3678  0.1663
 7954TIP3    H145277   4.990   5.028  15.396  0.2139 -0.2742  0.5373
 7954TIP3    H245278   5.112   5.021  15.306 -0.3140 -0.4522 -0.1697
 7955TIP3   OH245279   2.671   4.832   0.288  0.0378 -0.6403 -0.0434
 7955TIP3    H145280   2.627   4.869   0.364  0.8768 -2.0715  1.1619
 7955TIP3    H245281   2.764   4.850   0.303  0.2268 -1.1078 -0.6227
 7956TIP3   OH245282   1.185   2.838  11.557  0.0046  0.1137 -0.5225
 7956TIP3    H145283   1.273   2.824  11.592 -1.0943 -1.8715  1.5850
 7956TIP3    H245284   1.184   2.790  11.474  0.0132 -2.4090  0.8907
 7957TIP3   OH245285   4.100   3.996  14.955 -0.5346 -0.1107  0.2915
 7957TIP3    H145286   4.048   4.071  14.986  0.3003  0.4913  0.2587
 7957TIP3    H245287   4.047   3.957  14.885 -0.6048  0.9587 -0.2664
 7958TIP3   OH245288   4.347   3.290   3.198 -0.1259 -0.0670  0.6818
 7958TIP3    H145289   4.428   3.243   3.179  0.4511  0.9005  0.6889
 7958TIP3    H245290   4.315   3.252   3.280  0.5194 -0.2053  0.8692
 7959TIP3   OH245291   3.640   2.554  11.696 -0.0035  0.1102 -0.0332
 7959TIP3    H145292   3.551   2.585  11.681  0.3366 -0.1405 -2.8761
 7959TIP3    H245293   3.635   2.459  11.684  0.4016 -0.0778  1.1895
 7960TIP3   OH245294   6.648   2.617   2.328  0.4847 -0.5040 -0.8028
 7960TIP3    H145295   6.592   2.671   2.384  1.6677 -1.1383  1.0006
 7960TIP3    H245296   6.615   2.633   2.239 -1.5049  0.3768  0.0754
 7961TIP3   OH245297   6.639   2.042   4.171  0.0931  0.0716 -0.1483
 7961TIP3    H145298   6.687   2.105   4.117  0.5951 -0.0623  0.1399
 7961TIP3    H245299   6.560   2.089   4.197  1.4955  1.4036  1.9177
 7962TIP3   OH245300   2.926   4.019  15.027  0.1406 -0.4953 -0.6817
 7962TIP3    H145301   2.986   3.965  14.976 -0.0537 -0.1033 -1.3373
 7962TIP3    H245302   2.919   4.100  14.977  1.6103  0.7421  1.0491
 7963TIP3   OH245303   3.440   3.286  14.350  0.1640 -0.2870  0.5932
 7963TIP3    H145304   3.467   3.200  14.382  3.6301  1.1830  1.9261
 7963TIP3    H245305   3.486   3.348  14.408 -0.7987  2.4445 -1.4664
 7964TIP3   OH245306   6.777   2.133   1.680 -0.0820  0.6912  0.2915
 7964TIP3    H145307   6.708   2.068   1.664 -0.4585  0.8726  1.1292
 7964TIP3    H245308   6.767   2.196   1.609  1.3440 -1.0199 -1.4843
 7965TIP3   OH245309   3.513   6.666   4.250  0.3258 -0.3863  0.2982
 7965TIP3    H145310   3.424   6.658   4.216  1.2898 -1.4735 -2.0990
 7965TIP3    H245311   3.532   6.580   4.287  0.5117 -0.2491  0.5259
 7966TIP3   OH245312   2.817   6.027  13.763 -0.2430  0.0909 -0.1591
 7966TIP3    H145313   2.848   6.088  13.830  0.2064  0.8836 -1.0800
 7966TIP3    H245314   2.882   5.956  13.763 -0.9449 -0.5612  1.1459
 7967TIP3   OH245315   6.677   2.516  14.577  0.4861  0.0080 -0.8592
 7967TIP3    H145316   6.649   2.592  14.526  1.7277  0.2861 -1.1360
 7967TIP3    H245317   6.772   2.512  14.565  0.6503 -0.5818  0.5256
 7968TIP3   OH245318   2.905   2.287   0.991  0.2842  0.0034 -0.2279
 7968TIP3    H145319   2.928   2.296   0.898 -1.8961 -2.3031 -1.0300
 7968TIP3    H245320   2.897   2.378   1.022 -0.7164  0.8071 -2.7437
 7969TIP3   OH245321   2.016   0.064   3.788  0.0794  0.7401  0.4371
 7969TIP3    H145322   2.033   0.007   3.713  2.5588  1.3796  0.4868
 7969TIP3    H245323   1.990   0.004   3.858 -0.4231 -0.0293 -0.3933
 7970TIP3   OH245324   5.998   6.697  14.600 -0.5949 -0.0846 -0.5323
 7970TIP3    H145325   6.091   6.676  14.609 -0.5331 -0.5301 -2.1048
 7970TIP3    H245326   5.991   6.743  14.516 -1.4583  1.9425  0.6148
 7971TIP3   OH245327   6.093   1.057   2.614 -0.3737  0.2544 -0.4940
 7971TIP3    H145328   6.078   0.976   2.663  2.0109 -1.7346 -2.9043
 7971TIP3    H245329   6.021   1.062   2.552 -1.1009  0.5581  0.3673
 7972TIP3   OH245330   2.486   6.097  11.796  0.0227  0.0211  0.1637
 7972TIP3    H145331   2.494   6.018  11.744  2.6688 -0.4781  1.2902
 7972TIP3    H245332   2.491   6.067  11.887 -0.5794  1.3243  0.6516
 7973TIP3   OH245333   6.708   1.944  14.454 -0.5561  0.4575 -0.3202
 7973TIP3    H145334   6.617   1.950  14.483 -0.4190 -2.2552  0.7902
 7973TIP3    H245335   6.750   1.888  14.520  1.4850  0.2103 -1.8077
 7974TIP3   OH245336   3.015   5.606  14.717 -0.2608  0.3610 -0.7617
 7974TIP3    H145337   3.058   5.583  14.635  1.3413  1.7940 -0.3303
 7974TIP3    H245338   3.083   5.599  14.783 -1.6542 -1.2654  0.5487
 7975TIP3   OH245339   0.306   1.635  16.819  0.3073 -0.5513  0.6982
 7975TIP3    H145340   0.322   1.696  16.747 -1.0042 -0.6945  0.2617
 7975TIP3    H245341   0.373   1.568  16.809 -0.7065 -1.3166 -1.2486
 7976TIP3   OH245342   4.159   4.383  12.968 -0.4965  0.2918  0.5109
 7976TIP3    H145343   4.212   4.462  12.958 -0.0507 -0.1217 -0.3897
 7976TIP3    H245344   4.166   4.361  13.061  0.5983  0.4526  0.4658
 7977TIP3   OH245345   5.964   1.130  11.370  0.4512  0.2312  0.2579
 7977TIP3    H145346   5.953   1.224  11.383 -0.5848  0.3074 -1.0341
 7977TIP3    H245347   5.994   1.097  11.454  0.6123  1.6942  0.7757
 7978TIP3   OH245348   6.389   1.663  10.964 -0.5176 -0.2557  0.0192
 7978TIP3    H145349   6.351   1.744  10.931 -0.7335 -0.6850 -0.8125
 7978TIP3    H245350   6.347   1.594  10.912  0.0480 -0.8579  0.3520
 7979TIP3   OH245351   5.455   0.591  14.507 -0.0428  0.1723  0.0831
 7979TIP3    H145352   5.417   0.620  14.590 -0.0744 -0.9205  0.4606
 7979TIP3    H245353   5.441   0.664  14.447  0.2565  1.0989  1.1170
 7980TIP3   OH245354   1.058   2.827  10.954 -0.5771  0.3823 -0.3727
 7980TIP3    H145355   1.016   2.900  10.909  0.8697  1.0921 -0.6193
 7980TIP3    H245356   1.140   2.864  10.988 -0.7446 -0.6403  1.1813
 7981TIP3   OH245357   4.445   5.214   3.889 -0.1245 -0.0693  0.3402
 7981TIP3    H145358   4.439   5.268   3.968 -0.1124 -0.2122  0.4388
 7981TIP3    H245359   4.484   5.272   3.823  1.4648 -0.4521  0.9116
 7982TIP3   OH245360   1.218   4.847  11.896  0.3792 -0.1037  0.1114
 7982TIP3    H145361   1.162   4.782  11.937 -1.0499  0.2043 -1.2870
 7982TIP3    H245362   1.307   4.819  11.916 -0.2639 -0.4913  2.5412
 7983TIP3   OH245363   2.369   5.649   3.848 -0.4554  0.1051  0.1516
 7983TIP3    H145364   2.452   5.605   3.830  0.7632  2.1851  0.5686
 7983TIP3    H245365   2.332   5.667   3.762  0.9224  1.7015 -0.1483
 7984TIP3   OH245366   6.753   5.136   3.399  0.0933  0.6273  0.1934
 7984TIP3    H145367   6.799   5.095   3.326 -0.8408  0.4659 -0.3093
 7984TIP3    H245368   6.822   5.158   3.461  0.9039  0.7860 -0.7479
 7985TIP3   OH245369   6.670   0.715   0.887  0.3934 -0.4236 -0.2984
 7985TIP3    H145370   6.592   0.755   0.849 -0.2203 -0.9936  0.3484
 7985TIP3    H245371   6.682   0.634   0.838 -0.3311 -1.1027  0.6322
 7986TIP3   OH245372   6.131   4.257   0.362 -0.6433  0.0447  0.5007
 7986TIP3    H145373   6.086   4.329   0.318  0.4120  0.2272 -0.3093
 7986TIP3    H245374   6.193   4.301   0.421  0.3593 -0.1884 -0.3650
 7987TIP3   OH245375   3.089   2.572   3.574 -0.7827  0.1494  0.3957
 7987TIP3    H145376   3.079   2.632   3.648  3.0462 -0.2332  1.2966
 7987TIP3    H245377   3.096   2.630   3.498 -1.2577  0.6671  0.7393
 7988TIP3   OH245378   1.999   1.325   0.936 -0.0360 -0.5867 -0.3200
 7988TIP3    H145379   1.950   1.248   0.909 -0.8612 -0.7737  1.6242
 7988TIP3    H245380   1.939   1.398   0.923  0.4854 -0.3637 -1.4661
 7989TIP3   OH245381   5.328   3.542  12.237 -0.4463 -0.2464 -0.3197
 7989TIP3    H145382   5.312   3.529  12.144 -1.5861  1.0000 -0.3117
 7989TIP3    H245383   5.248   3.510  12.279 -0.3782  0.2099  0.1594
 7990TIP3   OH245384   3.153   4.908   5.303 -0.1027 -0.0743  0.4849
 7990TIP3    H145385   3.132   4.816   5.287  0.6445 -0.5735  2.2473
 7990TIP3    H245386   3.248   4.913   5.291  0.2275 -0.1007  2.9008
 7991TIP3   OH245387   4.322   3.826   3.119 -0.5599  0.9150 -0.2105
 7991TIP3    H145388   4.387   3.808   3.051 -0.4222 -0.5661  0.2912
 7991TIP3    H245389   4.346   3.912   3.152  0.3911  0.9272 -0.9035
 7992TIP3   OH245390   1.400   1.133  15.756  0.4576 -0.1706 -0.2327
 7992TIP3    H145391   1.461   1.072  15.796  0.8486  0.3481 -0.0352
 7992TIP3    H245392   1.357   1.083  15.687 -0.2277 -1.0887  0.8233
 7993TIP3   OH245393   5.470   3.893   2.899 -0.3224  0.2179 -0.9076
 7993TIP3    H145394   5.489   3.855   2.985  0.1828 -0.5880 -1.3649
 7993TIP3    H245395   5.541   3.956   2.884  0.7609 -1.1317 -1.6164
 7994TIP3   OH245396   5.804   0.748  13.054 -0.2728 -1.0277  0.4556
 7994TIP3    H145397   5.898   0.757  13.071 -0.7466  0.8102  2.2119
 7994TIP3    H245398   5.770   0.837  13.058 -1.6985 -1.3751 -2.7767
 7995TIP3   OH245399   6.564   2.105   2.349 -0.0945 -0.4696  0.1252
 7995TIP3    H145400   6.593   2.196   2.360 -0.8328 -0.0628 -1.1404
 7995TIP3    H245401   6.640   2.059   2.313 -0.2836  0.0792 -1.0058
 7996TIP3   OH245402   1.940   3.939   4.576  0.0830 -0.5276  0.5813
 7996TIP3    H145403   1.847   3.956   4.559  0.5426  0.7818 -0.7089
 7996TIP3    H245404   1.959   3.859   4.527 -0.2655 -0.5610  0.4996
 7997TIP3   OH245405   5.147   1.817  15.972  0.1159  0.0944  0.5942
 7997TIP3    H145406   5.189   1.872  15.906 -0.4179 -1.4607 -1.0834
 7997TIP3    H245407   5.095   1.878  16.024  2.1739  1.6372  0.9123
 7998TIP3   OH245408   3.066   6.014   5.395  0.4345 -0.6352 -0.2483
 7998TIP3    H145409   3.108   5.933   5.423 -1.2421 -1.4249  0.0143
 7998TIP3    H245410   2.993   5.986   5.341  0.0679  0.7183 -0.4749
 7999TIP3   OH245411   2.564   1.582   0.896 -0.7364 -0.2188  0.0345
 7999TIP3    H145412   2.596   1.672   0.905 -1.5666 -0.0930  2.2466
 7999TIP3    H245413   2.643   1.529   0.890 -0.2306  0.6275 -0.9096
 8000TIP3   OH245414   3.502   6.070  11.055 -0.1157 -0.2375  0.4703
 8000TIP3    H145415   3.591   6.038  11.040  0.7347  0.8029  3.0279
 8000TIP3    H245416   3.461   6.068  10.969  1.8869 -2.2202 -0.4776
 8001TIP3   OH245417   6.477   6.230  12.683 -0.1452 -0.3057  0.0890
 8001TIP3    H145418   6.489   6.273  12.767 -0.5684 -1.8229  0.9548
 8001TIP3    H245419   6.414   6.284  12.636 -1.3524 -0.4476  1.5045
 8002TIP3   OH245420   5.611   6.280  14.695 -0.5273 -0.0010 -0.4313
 8002TIP3    H145421   5.648   6.283  14.784  0.1768  1.6481 -0.7576
 8002TIP3    H245422   5.681   6.312  14.639 -1.6271  0.8489 -1.3459
 8003TIP3   OH245423   5.450   5.275   0.522 -0.1279 -0.6551  0.6653
 8003TIP3    H145424   5.467   5.220   0.599  0.7899 -2.5196 -0.8352
 8003TIP3    H245425   5.490   5.359   0.544  0.7271 -1.3865  1.9656
 8004TIP3   OH245426   1.398   2.441  10.895  0.1572  0.1064 -0.3697
 8004TIP3    H145427   1.441   2.466  10.977 -2.4404  0.7319  0.8584
 8004TIP3    H245428   1.387   2.524  10.848 -0.0849  0.0102 -0.4807
 8005TIP3   OH245429   5.499   6.369   2.185  0.1037 -0.0003 -0.5385
 8005TIP3    H145430   5.453   6.336   2.262 -1.1381 -0.4904 -1.4617
 8005TIP3    H245431   5.591   6.344   2.199 -0.4621 -2.0618 -0.2420
 8006TIP3   OH245432   3.726   6.487   3.093  0.0225  0.8174  0.1516
 8006TIP3    H145433   3.755   6.558   3.036  2.9827  0.3321  0.9540
 8006TIP3    H245434   3.747   6.407   3.045 -1.5277  0.4601  0.0618
 8007TIP3   OH245435   4.622   6.299  11.786 -0.3467  0.1344  0.5041
 8007TIP3    H145436   4.578   6.326  11.706 -0.7152 -0.1633  0.6053
 8007TIP3    H245437   4.709   6.270  11.757 -1.0394 -1.5048 -0.0008
 8008TIP3   OH245438   4.687   0.959   5.812  0.3280 -0.2934  0.7897
 8008TIP3    H145439   4.645   0.874   5.822 -0.2774  0.0686  1.3160
 8008TIP3    H245440   4.758   0.958   5.877  0.7137 -0.6303  0.3726
 8009TIP3   OH245441   2.949   5.310  11.375  0.2700 -0.4633 -0.1249
 8009TIP3    H145442   2.965   5.403  11.389 -0.6504 -0.3519  0.2517
 8009TIP3    H245443   3.006   5.266  11.438 -0.4425 -0.1017  0.7806
 8010TIP3   OH245444   5.674   5.585   4.237  0.4807 -0.1516  0.4021
 8010TIP3    H145445   5.594   5.631   4.263  0.3244 -0.9936  1.4707
 8010TIP3    H245446   5.745   5.644   4.262  0.1634  1.1961 -1.8004
 8011TIP3   OH245447   4.458   3.321  15.315  0.4398 -0.2367 -0.3562
 8011TIP3    H145448   4.551   3.315  15.294  0.1761 -1.6828 -1.1916
 8011TIP3    H245449   4.414   3.286  15.238 -0.9018  2.5315 -0.8965
 8012TIP3   OH245450   5.365   3.680   5.336  0.2989 -0.0999 -0.0287
 8012TIP3    H145451   5.313   3.704   5.259 -0.0973  0.1718  0.3200
 8012TIP3    H245452   5.440   3.739   5.332 -0.4545  0.9303  0.5838
 8013TIP3   OH245453   6.545   2.499   4.444 -0.6856 -0.0356  1.0419
 8013TIP3    H145454   6.585   2.494   4.531 -0.4373 -1.4897  0.8572
 8013TIP3    H245455   6.467   2.444   4.451 -0.8412  0.1070  0.4340
 8014TIP3   OH245456   4.854   1.498  11.820 -0.2381  0.0970  0.0104
 8014TIP3    H145457   4.903   1.551  11.758  1.1756  0.5039  1.4258
 8014TIP3    H245458   4.881   1.408  11.801 -1.1068  0.0503 -1.0626
 8015TIP3   OH245459   1.957   5.599   3.771  0.2032 -0.2855 -0.2458
 8015TIP3    H145460   1.912   5.683   3.758  1.0213  0.4150  1.3181
 8015TIP3    H245461   2.048   5.616   3.745  0.1789 -0.9383 -0.7722
 8016TIP3   OH245462   4.733   6.099  13.069  0.2883 -0.4668  0.1616
 8016TIP3    H145463   4.756   6.090  13.162  1.4203 -0.5996 -0.1244
 8016TIP3    H245464   4.653   6.047  13.059 -0.2487  0.1316  1.2096
 8017TIP3   OH245465   5.369   5.309  15.284 -0.0681  0.2681  0.6213
 8017TIP3    H145466   5.421   5.268  15.353 -0.5600  2.0611  2.0628
 8017TIP3    H245467   5.313   5.238  15.252 -0.3250 -0.4213  2.5234
 8018TIP3   OH245468   2.311   3.652   1.815  0.1144  0.2936  0.0761
 8018TIP3    H145469   2.345   3.641   1.904  2.3853 -0.5773 -0.8530
 8018TIP3    H245470   2.228   3.605   1.814 -0.3014  0.9692  1.9496
 8019TIP3   OH245471   3.864   0.453  14.207 -0.4467  0.1841 -0.5116
 8019TIP3    H145472   3.769   0.445  14.209 -0.4040 -0.1880 -0.1058
 8019TIP3    H245473   3.882   0.537  14.250 -0.5684  0.1059 -0.3113
 8020TIP3   OH245474   3.837   0.105  14.803 -0.5871 -0.8862  0.3534
 8020TIP3    H145475   3.888   0.157  14.741 -2.4481 -0.2802 -0.7151
 8020TIP3    H245476   3.781   0.168  14.847 -0.9764 -1.6398  0.9532
 8021TIP3   OH245477   0.459   0.019   4.491 -0.0260 -0.1462  0.2018
 8021TIP3    H145478   0.545   0.027   4.532 -0.8673  2.3329  1.6109
 8021TIP3    H245479   0.456  -0.071   4.459  2.9175 -0.3912  0.4708
 8022TIP3   OH245480   2.052   6.143   5.643 -0.4551  0.7195 -0.3161
 8022TIP3    H145481   2.099   6.110   5.719 -2.3880  0.7310  0.9045
 8022TIP3    H245482   2.067   6.076   5.575  2.9122  1.6658 -0.6158
 8023TIP3   OH245483   0.510   1.469  16.764  0.2233  0.1039 -0.5118
 8023TIP3    H145484   0.572   1.499  16.830 -0.4648  1.5688 -0.4947
 8023TIP3    H245485   0.473   1.389  16.800 -0.1842  0.9193  0.9334
 8024TIP3   OH245486   2.817   1.543   4.266 -0.1437 -0.0739  0.3720
 8024TIP3    H145487   2.874   1.470   4.290  0.7776  0.1138 -1.1525
 8024TIP3    H245488   2.872   1.620   4.278 -0.3176  0.1721 -0.3744
 8025TIP3   OH245489   5.949   6.348   4.103 -0.2523 -0.1488 -0.0331
 8025TIP3    H145490   6.006   6.364   4.178 -0.5243 -0.7004  0.3021
 8025TIP3    H245491   5.957   6.426   4.048 -0.9035  0.7403  1.1167
 8026TIP3   OH245492   2.589   1.295  16.432 -0.0233  0.1502 -0.0118
 8026TIP3    H145493   2.573   1.207  16.466 -3.1252  0.7085  0.1176
 8026TIP3    H245494   2.652   1.334  16.493  0.1751 -1.4474  0.8112
 8027TIP3   OH245495   5.512   4.478   2.803  0.1989 -0.4466  0.4618
 8027TIP3    H145496   5.538   4.549   2.861  1.5705 -2.5278  2.4709
 8027TIP3    H245497   5.432   4.443   2.841 -0.2052 -0.3005 -0.2403
 8028TIP3   OH245498   6.460   3.906   4.656 -0.7592  0.2552  0.3238
 8028TIP3    H145499   6.486   3.961   4.730 -0.3470  1.1915 -0.5068
 8028TIP3    H245500   6.366   3.893   4.667 -0.6895  0.3507  1.0358
 8029TIP3   OH245501   5.176   5.119  13.719 -0.1919 -0.1936  0.5296
 8029TIP3    H145502   5.196   5.212  13.730  0.5390  0.1801 -3.1392
 8029TIP3    H245503   5.258   5.074  13.737 -0.2155 -0.0181  1.0767
 8030TIP3   OH245504   5.288   6.729   5.688  0.7139 -0.3884 -0.5300
 8030TIP3    H145505   5.263   6.738   5.780  1.7164  1.1959 -0.3997
 8030TIP3    H245506   5.225   6.783   5.640  0.0726 -1.3673 -0.7988
 8031TIP3   OH245507   4.081   2.650  12.037 -0.0790  0.5226 -0.1139
 8031TIP3    H145508   4.052   2.689  11.954  0.8658  1.4664 -0.0146
 8031TIP3    H245509   4.000   2.631  12.084 -0.6545 -0.5420 -1.4767
 8032TIP3   OH245510   3.945   5.759   4.072  0.2061  0.2997  0.1101
 8032TIP3    H145511   3.953   5.777   3.979  0.1614  0.0245  0.0527
 8032TIP3    H245512   4.008   5.818   4.114 -0.3376  0.9932 -0.0344
 8033TIP3   OH245513   0.571   5.186  15.542 -0.0956 -0.0077  0.2371
 8033TIP3    H145514   0.665   5.206  15.537 -0.2446  0.6651  0.0569
 8033TIP3    H245515   0.557   5.156  15.632  0.6754 -2.1237 -0.3186
 8034TIP3   OH245516   2.290   3.357   2.219 -0.3401 -0.0250  0.2469
 8034TIP3    H145517   2.202   3.351   2.182 -1.0059  2.3513  1.3797
 8034TIP3    H245518   2.288   3.433   2.276  2.6119  0.3804 -0.0769
 8035TIP3   OH245519   5.928   3.286  11.418 -0.3483 -0.0434  0.4953
 8035TIP3    H145520   5.838   3.256  11.404  0.3169 -2.8031  1.6568
 8035TIP3    H245521   5.935   3.297  11.513 -0.1873  2.6768  0.1927
 8036TIP3   OH245522   4.632   2.513   1.580 -0.0740 -0.1048  0.5287
 8036TIP3    H145523   4.617   2.601   1.614 -1.3290  0.1552 -0.6587
 8036TIP3    H245524   4.679   2.468   1.651 -1.5489  0.7860  2.1311
 8037TIP3   OH245525   3.101   5.673  11.623  0.0740  0.2755 -0.8118
 8037TIP3    H145526   3.110   5.765  11.597  0.6675 -0.3859 -3.1142
 8037TIP3    H245527   3.007   5.657  11.617 -0.2343  1.1448  1.2159
 8038TIP3   OH245528   4.079   2.009   0.026  0.4096 -0.0409  0.1741
 8038TIP3    H145529   4.030   1.976  -0.049  0.6614 -3.3523  1.3803
 8038TIP3    H245530   4.023   2.078   0.062 -1.9652 -1.6203 -0.3273
 8039TIP3   OH245531   2.664   3.602   0.966  0.4978 -0.0502 -0.3809
 8039TIP3    H145532   2.607   3.656   0.913 -0.6458 -1.0742 -0.2079
 8039TIP3    H245533   2.676   3.651   1.047 -0.1285  0.1579 -0.4170
 8040TIP3   OH245534   2.040   1.339  14.122 -0.5357 -0.3998 -0.3875
 8040TIP3    H145535   2.041   1.412  14.183 -0.4614 -1.2571  0.6580
 8040TIP3    H245536   2.025   1.262  14.177 -2.3118 -0.9958 -1.6582
 8041TIP3   OH245537   0.732   2.055  12.978  0.3070  0.1969 -0.1549
 8041TIP3    H145538   0.697   2.063  12.889  0.0543  1.1073  0.0211
 8041TIP3    H245539   0.661   2.014  13.028  0.0154  0.7536 -0.1128
 8042TIP3   OH245540   0.906   4.558  11.632 -0.2408  0.0932 -0.2987
 8042TIP3    H145541   0.952   4.641  11.635 -0.2396  0.0727  0.2986
 8042TIP3    H245542   0.814   4.582  11.618 -0.0535  0.1324 -1.4934
 8043TIP3   OH245543   5.666   4.931  12.896  0.4689  0.5613  0.1407
 8043TIP3    H145544   5.684   4.866  12.827  1.5397  0.2217  0.7260
 8043TIP3    H245545   5.601   4.889  12.952 -0.1637  0.7076 -0.4835
 8044TIP3   OH245546   4.005   3.681   2.670 -0.0475 -0.2127  0.2087
 8044TIP3    H145547   4.051   3.671   2.587  0.2882  0.1601  0.3491
 8044TIP3    H245548   3.929   3.735   2.648 -0.5876 -1.0775 -0.0808
 8045TIP3   OH245549   6.501   0.464   6.474 -0.4287  0.4372  0.0151
 8045TIP3    H145550   6.532   0.495   6.559 -0.7200  0.8882 -0.0398
 8045TIP3    H245551   6.461   0.541   6.434 -1.2398 -0.0352 -0.0876
 8046TIP3   OH245552   0.722   2.911  16.498 -0.7906 -0.1884 -0.2470
 8046TIP3    H145553   0.699   3.003  16.509  4.3908  1.7058 -3.2007
 8046TIP3    H245554   0.688   2.888  16.411  0.3239 -0.1359 -0.7106
 8047TIP3   OH245555   5.348   1.600   3.102 -0.2451 -0.3938  0.1009
 8047TIP3    H145556   5.329   1.645   3.184  1.0825 -0.1832  0.2977
 8047TIP3    H245557   5.262   1.572   3.070 -0.7545 -0.6376  1.6469
 8048TIP3   OH245558   2.508   5.465  14.283  0.2651  0.2958 -0.2109
 8048TIP3    H145559   2.510   5.499  14.373 -0.4896  1.1400 -0.5120
 8048TIP3    H245560   2.420   5.486  14.252 -1.3899 -4.6247  0.6537
 8049TIP3   OH245561   4.909   4.456  13.239  0.1783  0.3423  0.3104
 8049TIP3    H145562   4.879   4.443  13.149 -0.6052  1.9526  0.3211
 8049TIP3    H245563   4.977   4.390  13.251 -0.2190 -0.3724 -1.2194
 8050TIP3   OH245564   2.658   1.555  12.124 -0.4079 -0.3508 -0.0041
 8050TIP3    H145565   2.703   1.485  12.077  0.4056  0.1555  0.0069
 8050TIP3    H245566   2.723   1.587  12.187 -1.3293 -0.7248  1.1687
 8051TIP3   OH245567   1.282   6.015   2.357  0.0399  0.3953  0.2131
 8051TIP3    H145568   1.338   5.997   2.281 -0.7808  0.5796 -0.4402
 8051TIP3    H245569   1.307   6.102   2.386  0.0974  0.4745 -0.0742
 8052TIP3   OH245570   3.238   1.099   3.524 -0.4946  0.2095  0.2898
 8052TIP3    H145571   3.210   1.150   3.448 -0.5011  0.3368  0.3783
 8052TIP3    H245572   3.197   1.142   3.599 -0.6225 -0.0143  0.3500
 8053TIP3   OH245573   2.113   6.485  11.382  0.5618  0.0021 -0.0950
 8053TIP3    H145574   2.098   6.577  11.358  0.8245  0.3743  1.1170
 8053TIP3    H245575   2.162   6.449  11.309  0.4891  0.8430 -0.5679
 8054TIP3   OH245576   4.214   0.952   5.317  0.0033 -0.2375  0.3262
 8054TIP3    H145577   4.229   0.887   5.248  0.0220  0.3113 -0.1914
 8054TIP3    H245578   4.289   0.941   5.376  0.9157  0.4682 -0.6738
 8055TIP3   OH245579   6.780   0.769  15.431  0.2545  0.1898 -0.6549
 8055TIP3    H145580   6.727   0.845  15.408 -0.3004  0.0910  0.2607
 8055TIP3    H245581   6.729   0.694  15.399  1.1262  0.2296 -2.1695
 8056TIP3   OH245582   2.700   1.493   4.007 -0.3513 -0.6397  0.0132
 8056TIP3    H145583   2.639   1.556   4.043 -0.5327 -0.4731 -0.5839
 8056TIP3    H245584   2.780   1.503   4.059  0.0248  0.9082 -0.8314
 8057TIP3   OH245585   6.543   4.479  12.018 -0.0037  0.0776  0.1708
 8057TIP3    H145586   6.477   4.527  12.068  0.7483  1.5684 -0.2389
 8057TIP3    H245587   6.547   4.525  11.934  2.6486  0.9640  0.7455
 8058TIP3   OH245588   1.932   0.942   5.800 -0.2855  0.4363  0.6856
 8058TIP3    H145589   1.858   0.970   5.855  0.6538 -1.2905  2.9376
 8058TIP3    H245590   1.932   0.846   5.808  0.8058  0.2607 -1.1594
 8059TIP3   OH245591   0.633   2.106   5.539  0.1863 -0.4627 -0.0886
 8059TIP3    H145592   0.546   2.066   5.532  0.5745 -1.3492  0.1594
 8059TIP3    H245593   0.629   2.181   5.479 -0.8348 -0.3383  0.1195
 8060TIP3   OH245594   3.611   0.118   5.632 -0.2099 -0.1011 -0.2119
 8060TIP3    H145595   3.663   0.052   5.678  2.0255  1.4511 -0.4654
 8060TIP3    H245596   3.546   0.146   5.697  1.5346  0.5095  1.3150
 8061TIP3   OH245597   6.170   5.849  12.849  0.7050 -0.5571 -0.2059
 8061TIP3    H145598   6.096   5.910  12.844  0.8407 -0.2992  0.9617
 8061TIP3    H245599   6.233   5.884  12.786 -0.2150 -0.8648 -1.3255
 8062TIP3   OH245600   2.668   0.700  13.158  0.3258  0.4217 -0.0866
 8062TIP3    H145601   2.648   0.719  13.250  0.5749  2.5505 -0.4299
 8062TIP3    H245602   2.764   0.695  13.155  0.2020 -2.5135  0.2683
 8063TIP3   OH245603   5.166   1.512   4.141 -0.7589  0.3556  0.3366
 8063TIP3    H145604   5.162   1.448   4.070 -0.4515  0.8948 -0.1690
 8063TIP3    H245605   5.077   1.512   4.178 -1.4812  1.5089 -1.3263
 8064TIP3   OH245606   5.332   2.071  13.019  0.2610 -0.2739 -0.6187
 8064TIP3    H145607   5.367   2.018  12.948  1.9697  0.5684 -0.4306
 8064TIP3    H245608   5.238   2.070  13.006  0.5436 -0.2567 -2.8002
 8065TIP3   OH245609   0.714   0.396   4.989  0.1344 -0.1406  0.0838
 8065TIP3    H145610   0.699   0.415   4.896 -0.1345  2.2985  0.6009
 8065TIP3    H245611   0.649   0.329   5.010  0.9471 -1.5490 -1.7467
 8066TIP3   OH245612   3.446   6.687   5.232 -0.6292  0.5577 -0.3578
 8066TIP3    H145613   3.362   6.713   5.195 -1.1538  0.5659  0.8147
 8066TIP3    H245614   3.424   6.650   5.317  0.6660  1.8885  0.5881
 8067TIP3   OH245615   0.404   3.440   1.774 -0.3517  0.1823  0.2091
 8067TIP3    H145616   0.358   3.394   1.844 -0.1816 -0.0100  0.1947
 8067TIP3    H245617   0.334   3.483   1.725 -0.5193 -0.0919  0.2012
 8068TIP3   OH245618   5.080   4.569  16.651 -0.2014 -0.0247 -0.4565
 8068TIP3    H145619   5.096   4.476  16.636  1.7437  0.0445  0.8981
 8068TIP3    H245620   5.166   4.610  16.642 -0.9353  1.5570 -0.4753
 8069TIP3   OH245621   4.171   5.945  14.219  0.5025 -0.7413 -0.4036
 8069TIP3    H145622   4.165   5.968  14.312  1.5930  0.0401 -0.5149
 8069TIP3    H245623   4.127   6.017  14.174 -0.8054 -1.5624 -0.4413
 8070TIP3   OH245624   0.848   2.141  13.754 -0.1788 -0.3986 -0.7861
 8070TIP3    H145625   0.771   2.104  13.712  0.5722 -2.2129 -0.5754
 8070TIP3    H245626   0.812   2.195  13.825 -1.2283 -2.4905  0.3316
 8071TIP3   OH245627   1.518   2.231   5.173  0.1834  0.1379 -0.3506
 8071TIP3    H145628   1.595   2.200   5.125  1.4870  1.7108  0.6636
 8071TIP3    H245629   1.446   2.227   5.110  1.1153 -1.2123 -1.3527
 8072TIP3   OH245630   4.566   2.481   5.545 -0.0426 -0.2733 -1.3247
 8072TIP3    H145631   4.470   2.474   5.542  0.0442 -1.7747 -0.9865
 8072TIP3    H245632   4.585   2.511   5.634 -0.1012 -1.9512 -0.7360
 8073TIP3   OH245633   0.741   0.277   0.396 -0.2592  0.8468  0.4634
 8073TIP3    H145634   0.738   0.194   0.444 -0.9954  1.2062  1.0484
 8073TIP3    H245635   0.831   0.308   0.407  0.0615  0.0477  0.1046
 8074TIP3   OH245636   6.010   2.753   2.488 -0.1328 -0.2228  0.1645
 8074TIP3    H145637   6.062   2.735   2.410  1.8375 -1.5746  1.7442
 8074TIP3    H245638   6.048   2.833   2.525  0.7738 -1.1465  1.2589
 8075TIP3   OH245639   0.979   0.903   5.529  0.2297  0.0781  0.0150
 8075TIP3    H145640   0.962   0.974   5.591  2.3649  0.8318 -0.2236
 8075TIP3    H245641   1.046   0.938   5.470  0.9070 -1.9307 -0.4553
 8076TIP3   OH245642   1.054   6.776  16.410  0.0927  0.5754  0.0838
 8076TIP3    H145643   1.041   6.744  16.321 -0.9383 -0.0713  0.4674
 8076TIP3    H245644   0.998   6.853  16.417 -1.0482 -0.3114  0.6888
 8077TIP3   OH245645   5.012   1.573  14.371 -0.5785 -0.5257 -0.1610
 8077TIP3    H145646   5.043   1.493  14.328  1.8682 -0.2261  0.9580
 8077TIP3    H245647   4.963   1.542  14.447 -2.4954 -1.0024 -1.5737
 8078TIP3   OH245648   1.745   6.555  14.929  0.2860  0.6626  0.4203
 8078TIP3    H145649   1.709   6.509  15.005  0.3556  0.6807  0.4645
 8078TIP3    H245650   1.782   6.485  14.874  0.0697  0.6328  0.3145
 8079TIP3   OH245651   0.738   1.661   1.843  0.6373  0.0191  0.0019
 8079TIP3    H145652   0.778   1.733   1.893 -1.1236 -0.4650  2.1817
 8079TIP3    H245653   0.791   1.655   1.764  0.5334  4.0174 -0.4535
 8080TIP3   OH245654   4.298   0.949  11.868 -0.3295 -0.7477 -0.1582
 8080TIP3    H145655   4.364   0.999  11.916 -0.2808  0.4734 -1.4908
 8080TIP3    H245656   4.231   1.012  11.844 -1.8488 -1.9196  0.8788
 8081TIP3   OH245657   0.919   4.210   2.039  0.2829 -0.1659  0.1441
 8081TIP3    H145658   0.928   4.207   1.944  0.9999 -0.2255  0.2091
 8081TIP3    H245659   0.904   4.302   2.059  1.0913 -0.0115  0.0501
 8082TIP3   OH245660   3.836   5.176  15.851  0.1747  0.1357  0.2446
 8082TIP3    H145661   3.840   5.106  15.786  1.4109  0.1687  0.2788
 8082TIP3    H245662   3.752   5.219  15.835  0.2349 -0.1864 -0.9770
 8083TIP3   OH245663   2.805   0.911  12.486  0.0732 -0.0848  0.9665
 8083TIP3    H145664   2.864   0.973  12.529 -0.6498  1.9662 -0.8940
 8083TIP3    H245665   2.717   0.941  12.509 -0.2802 -0.4192  0.0706
 8084TIP3   OH245666   3.822   1.175  16.370 -0.4310  0.3220  0.0193
 8084TIP3    H145667   3.781   1.254  16.334 -0.2117  0.0284 -0.8895
 8084TIP3    H245668   3.904   1.206  16.409 -1.7880  1.0146  2.4239
 8085TIP3   OH245669   2.865   5.351   2.888 -0.0416  0.3011 -0.3540
 8085TIP3    H145670   2.807   5.427   2.881  0.0472  0.3187 -0.8814
 8085TIP3    H245671   2.953   5.387   2.883  0.0252 -0.1275 -4.0687
 8086TIP3   OH245672   4.414   6.508  17.025 -0.4596 -0.0911 -0.6520
 8086TIP3    H145673   4.335   6.491  16.973 -0.8857 -2.0899  0.5753
 8086TIP3    H245674   4.404   6.452  17.102  1.5730  0.5818  0.1337
 8087TIP3   OH245675   3.195   2.852   2.740 -0.4967 -0.0426  0.4667
 8087TIP3    H145676   3.105   2.881   2.723 -0.4413 -1.1733 -2.0438
 8087TIP3    H245677   3.236   2.926   2.785 -2.1303  1.2898 -0.1714
 8088TIP3   OH245678   2.981   1.244  15.195  0.4469 -0.2627 -0.1084
 8088TIP3    H145679   3.017   1.194  15.121 -0.2410 -0.3981 -0.3513
 8088TIP3    H245680   2.895   1.273  15.164 -1.2716 -3.0686  1.8489
 8089TIP3   OH245681   3.393   6.263   0.092  0.2652 -0.4853  0.0251
 8089TIP3    H145682   3.336   6.193   0.126 -0.3149  0.6063  1.3090
 8089TIP3    H245683   3.479   6.222   0.086 -0.2703 -1.6165 -0.2097
 8090TIP3   OH245684   2.321   1.214   2.557  0.0653  0.1168  0.4884
 8090TIP3    H145685   2.370   1.260   2.626  1.2354 -1.0581  0.4715
 8090TIP3    H245686   2.275   1.144   2.603 -0.5086  0.3806  0.3124
 8091TIP3   OH245687   0.571   0.014   3.272 -0.3216 -0.4295 -0.1164
 8091TIP3    H145688   0.522  -0.061   3.306 -0.4294 -0.9086 -1.3101
 8091TIP3    H245689   0.507   0.064   3.223  0.1461 -0.4915 -0.7951
 8092TIP3   OH245690   3.540   6.063   5.774  0.3270  0.1554  1.2615
 8092TIP3    H145691   3.622   6.065   5.725  0.9174 -1.1007  2.1604
 8092TIP3    H245692   3.499   6.148   5.757  1.5406  0.5601  0.3407
 8093TIP3   OH245693   4.783   5.579   4.706  0.1331 -0.0571 -0.1377
 8093TIP3    H145694   4.852   5.549   4.646 -1.7316 -0.1824 -2.2542
 8093TIP3    H245695   4.763   5.502   4.759  2.1540  0.1989  1.0528
 8094TIP3   OH245696   0.767   3.639  15.684  0.0635 -0.2004  0.6320
 8094TIP3    H145697   0.854   3.611  15.710  0.3402 -0.6978 -0.7857
 8094TIP3    H245698   0.779   3.680  15.598 -0.8041  1.4944  1.2956
 8095TIP3   OH245699   5.251   2.785  15.300  0.3736 -0.3563 -0.0422
 8095TIP3    H145700   5.196   2.855  15.335  1.6623  0.6637 -0.0181
 8095TIP3    H245701   5.201   2.705  15.317 -0.5956  0.4399  0.9773
 8096TIP3   OH245702   4.063   6.729   5.768 -0.7259  0.0393  0.7010
 8096TIP3    H145703   3.971   6.734   5.794 -0.6257  1.5250  0.8036
 8096TIP3    H245704   4.101   6.812   5.797  0.0341  0.5520 -1.6710
 8097TIP3   OH245705   0.613   1.559  15.804 -0.4825  0.2975  0.0725
 8097TIP3    H145706   0.633   1.468  15.780 -0.9840  0.5693 -1.4343
 8097TIP3    H245707   0.659   1.573  15.887 -0.4722 -1.3573  0.3560
 8098TIP3   OH245708   0.087   0.838   4.907 -0.3547  0.0329  0.3134
 8098TIP3    H145709   0.024   0.795   4.850  0.0026  1.6213 -1.3475
 8098TIP3    H245710   0.128   0.767   4.956 -1.4914 -1.2626 -0.5720
 8099TIP3   OH245711   3.738   5.760  15.879 -0.6520 -0.3277  0.6494
 8099TIP3    H145712   3.729   5.819  15.954 -1.3573  2.4338 -1.5264
 8099TIP3    H245713   3.652   5.759  15.838 -0.8046 -3.3800  0.9656
 8100TIP3   OH245714   6.237   1.487  10.819  0.1486  0.1324 -0.5743
 8100TIP3    H145715   6.261   1.402  10.854  0.2352  0.7172  0.7915
 8100TIP3    H245716   6.144   1.481  10.801 -0.0609  0.1164  0.5453
 8101TIP3   OH245717   5.249   2.463   3.293  0.1669  0.3730  0.4212
 8101TIP3    H145718   5.331   2.439   3.336  0.6287  1.3773  0.1140
 8101TIP3    H245719   5.265   2.446   3.200  0.1363  0.8414  0.3276
 8102TIP3   OH245720   0.791   0.683  11.289  0.2558  0.3085 -0.1460
 8102TIP3    H145721   0.709   0.639  11.313  0.9661 -0.6659  0.5104
 8102TIP3    H245722   0.807   0.745  11.361  0.0838  0.5221 -0.2904
 8103TIP3   OH245723   1.558   5.798   2.994  0.0954 -0.1814  0.3391
 8103TIP3    H145724   1.553   5.815   3.088  0.3390 -1.0533  0.5227
 8103TIP3    H245725   1.468   5.777   2.968 -0.0508  0.5198  0.2859
 8104TIP3   OH245726   0.747   6.418   4.011  0.0373 -0.4591  0.1802
 8104TIP3    H145727   0.773   6.482   4.077  0.5922  2.5046 -2.8175
 8104TIP3    H245728   0.808   6.430   3.939 -0.6640 -3.4950 -1.0060
 8105TIP3   OH245729   5.434   3.094   0.996 -0.0046  0.6679 -0.6551
 8105TIP3    H145730   5.361   3.032   1.004 -1.0507  1.8298 -1.0984
 8105TIP3    H245731   5.511   3.038   0.992 -0.7693 -0.5554  0.8143
 8106TIP3   OH245732   1.915   4.445  16.467 -0.2967  0.8626 -0.2250
 8106TIP3    H145733   1.986   4.492  16.510 -0.4680  1.5418 -0.6815
 8106TIP3    H245734   1.935   4.353  16.481 -0.7631  1.0641  2.0119
 8107TIP3   OH245735   5.079   0.695  16.863  0.4608  0.4179  0.0273
 8107TIP3    H145736   5.166   0.667  16.890  1.0729  2.2904  0.0977
 8107TIP3    H245737   5.067   0.657  16.776  0.2047 -2.1287  1.1452
 8108TIP3   OH245738   5.698   0.220  12.005  0.0726 -0.2740 -0.0996
 8108TIP3    H145739   5.780   0.261  11.978  1.4954 -1.6607  1.9236
 8108TIP3    H245740   5.674   0.163  11.932  1.4691 -0.5964 -0.3299
 8109TIP3   OH245741   4.803   5.862  16.109  0.3763  0.3476 -0.4371
 8109TIP3    H145742   4.837   5.782  16.069 -0.7045 -0.4005  0.1173
 8109TIP3    H245743   4.747   5.900  16.041 -1.1989 -0.7530  0.2113
 8110TIP3   OH245744   3.553   0.540  14.771  0.7091 -0.7204 -0.1095
 8110TIP3    H145745   3.568   0.496  14.855 -0.1408 -3.1332 -1.1561
 8110TIP3    H245746   3.541   0.468  14.708 -2.2405  1.0031 -1.6419
 8111TIP3   OH245747   3.274   5.025  16.594  0.0753  0.3639 -0.5143
 8111TIP3    H145748   3.313   4.939  16.612  1.0104  0.4411 -2.0621
 8111TIP3    H245749   3.211   5.008  16.525  0.8606  1.0410 -1.4206
 8112TIP3   OH245750   0.248   6.707  15.099 -0.1563 -0.5326  0.6647
 8112TIP3    H145751   0.328   6.759  15.091 -0.7210  0.2651  0.0417
 8112TIP3    H245752   0.278   6.619  15.119  0.9892 -0.6903 -1.5447
 8113TIP3   OH245753   4.631   3.366  13.409 -0.3892 -0.3711  0.0230
 8113TIP3    H145754   4.674   3.426  13.348 -1.1975 -0.2746 -0.4629
 8113TIP3    H245755   4.538   3.369  13.385 -0.3532 -2.3810 -0.5159
 8114TIP3   OH245756   5.049   0.830   4.956 -0.3603  0.2572  0.5183
 8114TIP3    H145757   5.033   0.922   4.978 -0.1731  0.8940 -1.8549
 8114TIP3    H245758   4.965   0.787   4.972 -0.2031  0.6479  2.5127
 8115TIP3   OH245759   3.579   5.400  16.787 -0.5658 -0.1096  0.3237
 8115TIP3    H145760   3.541   5.481  16.752 -3.0442 -0.8758  1.1014
 8115TIP3    H245761   3.514   5.333  16.764  1.4075 -1.8630 -0.2175
 8116TIP3   OH245762   4.813   0.742   1.330  0.1737 -0.0844 -0.6081
 8116TIP3    H145763   4.875   0.694   1.276 -0.3914 -1.7117  0.1778
 8116TIP3    H245764   4.769   0.675   1.382 -1.3828  1.1634 -0.2752
 8117TIP3   OH245765   6.002   0.444  16.192  0.7994  0.3897  0.4163
 8117TIP3    H145766   5.966   0.501  16.123 -0.3318 -1.2592 -0.3856
 8117TIP3    H245767   6.058   0.383  16.144 -0.0080 -0.7752  0.9383
 8118TIP3   OH245768   1.775   4.469  14.646  0.3565 -0.2142  0.0773
 8118TIP3    H145769   1.865   4.472  14.613  0.8986 -1.2233  1.4056
 8118TIP3    H245770   1.780   4.414  14.724 -1.6018 -1.0748 -0.3696
 8119TIP3   OH245771   6.637   3.383  12.651 -0.0036  0.3174 -0.4927
 8119TIP3    H145772   6.571   3.447  12.677  0.2448  0.3133  0.1583
 8119TIP3    H245773   6.721   3.425  12.668  0.1614 -0.0410 -0.4109
 8120TIP3   OH245774   0.625   1.864  13.187 -0.5245 -0.3146 -0.1151
 8120TIP3    H145775   0.675   1.883  13.266  0.6183  1.5400 -1.2541
 8120TIP3    H245776   0.556   1.804  13.217  0.3616 -0.2852  2.1172
 8121TIP3   OH245777   0.918   2.732   5.430 -0.7662  0.5093 -0.7518
 8121TIP3    H145778   0.958   2.649   5.403 -1.2305  0.5686 -1.6555
 8121TIP3    H245779   0.840   2.706   5.480 -0.7251  0.3999 -0.7450
 8122TIP3   OH245780   3.221   2.913   1.188  0.0323 -0.0886 -0.1227
 8122TIP3    H145781   3.160   2.889   1.259 -0.5828  2.5640  0.2799
 8122TIP3    H245782   3.188   2.866   1.112 -0.4735 -1.3989  0.8736
 8123TIP3   OH245783   5.930   6.056   1.563 -0.0691 -0.5356 -0.1067
 8123TIP3    H145784   5.880   5.984   1.524 -0.0367 -0.2339 -0.7200
 8123TIP3    H245785   5.882   6.078   1.643 -0.4435 -0.8050 -0.2527
 8124TIP3   OH245786   5.678   0.048   4.580 -0.2337 -0.0255 -0.4473
 8124TIP3    H145787   5.735   0.046   4.656 -0.5228  1.1922 -0.1801
 8124TIP3    H245788   5.619   0.122   4.597  0.6334  1.1845 -2.5031
 8125TIP3   OH245789   6.074   6.283  12.828  0.0787 -0.0918 -0.2389
 8125TIP3    H145790   6.010   6.343  12.788 -0.7871 -0.2697  0.8591
 8125TIP3    H245791   6.034   6.258  12.911  1.4806 -0.3925  0.3526
 8126TIP3   OH245792   4.293   3.618  17.129 -0.4239 -0.3970  0.2009
 8126TIP3    H145793   4.219   3.620  17.069 -0.3066  0.9260  0.0914
 8126TIP3    H245794   4.360   3.566  17.083 -0.1672  0.9888 -1.0248
 8127TIP3   OH245795   4.227   3.378  15.483 -0.2750 -0.2279 -0.6189
 8127TIP3    H145796   4.312   3.388  15.442  0.1561 -0.7347  0.1302
 8127TIP3    H245797   4.195   3.293  15.453  0.4796 -1.0471  0.8588
 8128TIP3   OH245798   6.573   2.393   3.480  0.5784  0.2996 -0.2394
 8128TIP3    H145799   6.563   2.337   3.403  2.2384  0.3198 -0.4949
 8128TIP3    H245800   6.583   2.482   3.445  2.0184  0.2286 -0.0727
 8129TIP3   OH245801   6.604   0.805  14.043 -0.1145 -0.1649 -0.6088
 8129TIP3    H145802   6.566   0.889  14.067 -0.7027  0.0253 -2.1174
 8129TIP3    H245803   6.597   0.802  13.947  0.8724 -1.4679 -0.6589
 8130TIP3   OH245804   2.877   0.163  12.280  0.1969 -0.3342  0.1153
 8130TIP3    H145805   2.919   0.224  12.219  0.7970 -0.4177  0.4413
 8130TIP3    H245806   2.784   0.167  12.258  0.1968  0.9192  0.3246
 8131TIP3   OH245807   3.596   2.981  10.947 -0.8552 -0.1102  0.0137
 8131TIP3    H145808   3.649   3.047  10.902  0.3996 -0.6307  0.6742
 8131TIP3    H245809   3.552   2.933  10.877 -0.8377  0.6669 -0.5274
 8132TIP3   OH245810   4.150   3.312   0.931  0.2802  0.3476 -0.4598
 8132TIP3    H145811   4.153   3.216   0.922 -0.5024  0.2681  0.1395
 8132TIP3    H245812   4.060   3.331   0.954  0.4343  1.2410 -0.5982
 8133TIP3   OH245813   3.707   5.412   1.012 -0.2408  0.2610  0.4058
 8133TIP3    H145814   3.648   5.363   1.069  1.5878 -1.5691  0.7647
 8133TIP3    H245815   3.660   5.417   0.929 -1.0386 -0.9015  0.7695
 8134TIP3   OH245816   5.486   3.587   1.257 -0.0320  0.0536 -0.1302
 8134TIP3    H145817   5.419   3.551   1.316  2.2365 -4.5752 -0.1408
 8134TIP3    H245818   5.541   3.642   1.314 -1.3325  0.4381  0.7708
 8135TIP3   OH245819   6.638   2.359   4.951  0.0561  0.1512 -0.1578
 8135TIP3    H145820   6.722   2.404   4.939 -0.5359  1.4068  0.3489
 8135TIP3    H245821   6.608   2.388   5.037 -1.7245  1.0510 -1.0687
 8136TIP3   OH245822   0.232   2.413   3.515 -0.4692  0.2928 -0.7268
 8136TIP3    H145823   0.324   2.393   3.529 -0.5647 -1.1434 -2.0529
 8136TIP3    H245824   0.226   2.435   3.422 -1.6529 -0.7613 -0.9133
 8137TIP3   OH245825   0.008   3.850  13.707  0.1612  0.2594 -0.5910
 8137TIP3    H145826   0.075   3.908  13.745  0.9703 -0.8521 -0.3147
 8137TIP3    H245827   0.058   3.788  13.653 -0.8713  1.1189 -2.6033
 8138TIP3   OH245828   6.394   0.368   2.537 -0.5073  0.2568  0.0438
 8138TIP3    H145829   6.401   0.462   2.518 -0.3488  0.5020  1.2635
 8138TIP3    H245830   6.448   0.356   2.615 -0.6346 -0.8293 -0.0359
 8139TIP3   OH245831   3.109   6.227   1.262 -0.5301 -0.4844 -0.0422
 8139TIP3    H145832   3.159   6.248   1.184  0.3393  2.0382  1.1304
 8139TIP3    H245833   3.047   6.300   1.271 -0.8891 -0.9422  1.3546
 8140TIP3   OH245834   4.690   5.912  15.356  0.5198  0.1113 -0.5220
 8140TIP3    H145835   4.707   5.830  15.309  0.4737  0.4318 -1.1040
 8140TIP3    H245836   4.611   5.947  15.315 -0.8421 -0.7329  1.3069
 8141TIP3   OH245837   2.769   1.791   5.826  0.3917  0.1611 -0.4358
 8141TIP3    H145838   2.693   1.734   5.840  0.3931  0.4144  0.6288
 8141TIP3    H245839   2.733   1.869   5.783  0.7231 -1.5606 -4.0530
 8142TIP3   OH245840   3.635   2.828   2.639 -0.0309  0.5195 -0.1527
 8142TIP3    H145841   3.581   2.779   2.577 -1.4127  0.7657  0.8412
 8142TIP3    H245842   3.682   2.760   2.688 -1.5726  0.1812  0.8927
 8143TIP3   OH245843   1.749   4.885   2.829 -0.2495  0.1907 -0.1716
 8143TIP3    H145844   1.746   4.825   2.754 -1.4804  0.4283 -0.3357
 8143TIP3    H245845   1.820   4.946   2.808 -0.8845  0.5433 -1.3823
 8144TIP3   OH245846   5.914   5.813  15.406 -0.1428 -0.2238 -0.0443
 8144TIP3    H145847   5.953   5.751  15.344  0.5976  0.0789  0.1208
 8144TIP3    H245848   5.848   5.859  15.354  0.1429 -0.3074 -0.4884
 8145TIP3   OH245849   4.545   5.961   6.194 -0.1532  0.1309  0.0812
 8145TIP3    H145850   4.609   6.005   6.251 -0.7251  0.1081  0.7514
 8145TIP3    H245851   4.490   5.911   6.254 -1.8787  1.5089 -0.3220
 8146TIP3   OH245852   1.134   5.807   1.682 -0.1651 -0.2767 -0.4081
 8146TIP3    H145853   1.152   5.765   1.598  1.4953 -0.2004 -0.1093
 8146TIP3    H245854   1.072   5.748   1.725 -2.7978  0.7855 -2.5551
 8147TIP3   OH245855   4.027   3.538  15.342  0.2603 -0.1726 -0.6611
 8147TIP3    H145856   4.114   3.537  15.382  1.1216  2.6810 -2.3038
 8147TIP3    H245857   3.971   3.582  15.406  0.0946 -1.6055  0.2023
 8148TIP3   OH245858   2.595   1.664   4.911 -0.3069 -0.3337 -0.0454
 8148TIP3    H145859   2.687   1.682   4.891  0.3362 -3.6417 -0.2880
 8148TIP3    H245860   2.591   1.570   4.924 -3.4225 -0.0524  1.4366
 8149TIP3   OH245861   5.221   0.844   0.480 -0.7318 -0.1901  0.2217
 8149TIP3    H145862   5.311   0.844   0.447 -0.2562 -0.4129  1.4918
 8149TIP3    H245863   5.226   0.798   0.563 -2.0097 -0.1082  0.3519
 8150TIP3   OH245864   3.463   3.270   3.283 -0.4211  0.0233 -0.0393
 8150TIP3    H145865   3.549   3.293   3.317 -0.8818 -0.9464  1.8414
 8150TIP3    H245866   3.402   3.325   3.332 -1.1176 -1.6490  1.0221
 8151TIP3   OH245867   5.362   1.933   2.205 -0.4288 -0.1775 -0.2419
 8151TIP3    H145868   5.297   1.964   2.268  0.6255  2.0716 -0.2120
 8151TIP3    H245869   5.445   1.933   2.254 -0.0453 -0.9256 -0.8843
 8152TIP3   OH245870   5.068   2.992   1.895 -0.2843 -0.5232 -0.4776
 8152TIP3    H145871   5.094   3.083   1.902  0.5125 -0.9879  3.2715
 8152TIP3    H245872   5.149   2.942   1.906 -0.7553 -1.7444 -2.2108
 8153TIP3   OH245873   3.492   1.977   5.329 -0.1850  0.0005 -0.2248
 8153TIP3    H145874   3.549   2.008   5.258 -0.6850 -0.3547 -0.7930
 8153TIP3    H245875   3.406   1.968   5.287 -0.3787 -0.6591  0.3237
 8154TIP3   OH245876   6.648   1.529  11.683 -0.0718 -0.5019 -0.5339
 8154TIP3    H145877   6.733   1.530  11.638  0.3393 -0.5358  0.2451
 8154TIP3    H245878   6.613   1.441  11.664  0.2320 -0.6237 -0.5389
 8155TIP3   OH245879   1.444   4.998   5.485  0.3928 -0.3190 -0.3926
 8155TIP3    H145880   1.513   4.936   5.463  0.4995 -1.0887  1.9642
 8155TIP3    H245881   1.475   5.082   5.450  1.9187 -0.9004 -0.4623
 8156TIP3   OH245882   0.594   4.342   1.583  0.3514 -0.2952 -0.3303
 8156TIP3    H145883   0.510   4.324   1.626  0.8309 -0.8738  0.3816
 8156TIP3    H245884   0.596   4.283   1.508 -0.3334  0.4655 -0.9612
 8157TIP3   OH245885   5.592   6.594  16.005  0.1154 -0.1563 -0.4298
 8157TIP3    H145886   5.671   6.624  16.050 -2.1190  0.2793  3.4434
 8157TIP3    H245887   5.574   6.661  15.940  1.1803  1.3865  0.8290
 8158TIP3   OH245888   0.595   5.401  16.143 -0.4060 -0.8873  0.4169
 8158TIP3    H145889   0.506   5.366  16.141 -1.4564  1.6477  0.3073
 8158TIP3    H245890   0.618   5.414  16.051 -0.2506 -0.7871  0.4673
 8159TIP3   OH245891   1.012   5.615   4.329 -0.1891  0.0154  0.5960
 8159TIP3    H145892   0.981   5.546   4.270 -0.1341  0.2073  0.3387
 8159TIP3    H245893   1.053   5.569   4.402 -2.2539 -0.2894  1.6013
 8160TIP3   OH245894   5.033   1.466  10.922  0.0334  0.4270  0.2069
 8160TIP3    H145895   5.124   1.475  10.951  0.6987 -1.7565 -1.1280
 8160TIP3    H245896   5.003   1.385  10.963 -1.3543  1.1514  0.6721
 8161TIP3   OH245897   6.415   6.619   5.094 -0.3799  0.3869  0.1069
 8161TIP3    H145898   6.429   6.628   5.189  1.3693 -0.8465 -0.0146
 8161TIP3    H245899   6.320   6.622   5.084 -0.7367 -2.0214  2.2052
 8162TIP3   OH245900   4.401   1.923  10.862 -0.3863 -0.2435 -0.2920
 8162TIP3    H145901   4.431   1.880  10.942  1.3697 -2.1249 -1.9552
 8162TIP3    H245902   4.338   1.862  10.824 -0.1861  0.0370 -1.0746
 8163TIP3   OH245903   2.840   0.192   1.476  0.3622  0.1728 -0.1174
 8163TIP3    H145904   2.913   0.131   1.481 -0.2735 -0.6461 -0.7720
 8163TIP3    H245905   2.762   0.138   1.485 -0.1733  1.0879  0.9721
 8164TIP3   OH245906   3.956   3.307  15.227  0.1383 -0.5020  0.1485
 8164TIP3    H145907   4.029   3.336  15.172  0.7934 -1.4651  0.5057
 8164TIP3    H245908   3.946   3.376  15.293 -1.0210  0.9454 -1.4911
 8165TIP3   OH245909   3.374   3.643   0.937  0.3170  0.2964 -0.1189
 8165TIP3    H145910   3.463   3.614   0.956  0.2732 -0.4504 -1.0109
 8165TIP3    H245911   3.319   3.595   0.998  0.5923  1.3626  0.9829
 8166TIP3   OH245912   5.120   3.387  12.342 -0.2901 -0.4928  0.3030
 8166TIP3    H145913   5.025   3.393  12.349 -0.1828 -0.1211  1.5547
 8166TIP3    H245914   5.139   3.294  12.356 -0.3931 -0.4073  1.0043
 8167TIP3   OH245915   6.602   6.218   1.204 -0.7936 -0.6656 -0.0900
 8167TIP3    H145916   6.533   6.267   1.250 -0.8568 -0.4408 -0.4188
 8167TIP3    H245917   6.683   6.264   1.226 -0.8999 -0.1690 -0.7183
 8168TIP3   OH245918   1.627   4.363   1.845 -0.3730  0.4600  0.1611
 8168TIP3    H145919   1.572   4.328   1.916 -0.5628 -0.1989 -0.3055
 8168TIP3    H245920   1.694   4.295   1.832 -0.7694  0.2467 -0.7874
 8169TIP3   OH245921   5.536   5.978  16.108  0.1701 -0.2275 -0.4249
 8169TIP3    H145922   5.543   6.013  16.019  0.2119 -0.7875 -0.6404
 8169TIP3    H245923   5.607   6.022  16.156 -0.6943  1.0974 -0.3274
 8170TIP3   OH245924   5.868   5.364  14.335  0.1430 -0.3957  0.5887
 8170TIP3    H145925   5.873   5.438  14.395 -3.6789 -0.3257  0.9418
 8170TIP3    H245926   5.850   5.403  14.249 -1.5960 -0.8693  0.7241
 8171TIP3   OH245927   1.686   1.815  14.049  0.4172 -0.1320  0.7057
 8171TIP3    H145928   1.743   1.853  13.983  0.7579  1.1129  1.6990
 8171TIP3    H245929   1.729   1.733  14.073  0.8363 -0.0816  0.1405
 8172TIP3   OH245930   1.406   3.305  14.518 -0.0389 -0.4769 -0.3008
 8172TIP3    H145931   1.456   3.306  14.600 -1.5395 -2.4438  0.6625
 8172TIP3    H245932   1.384   3.213  14.504  0.7971 -0.2610 -3.3135
 8173TIP3   OH245933   5.518   3.852   3.510  0.0824 -0.5131  0.3458
 8173TIP3    H145934   5.591   3.890   3.558 -0.2180  1.2650 -0.5796
 8173TIP3    H245935   5.452   3.833   3.576  0.5519 -0.1530  0.9159
 8174TIP3   OH245936   4.886   0.939  16.218 -0.0165 -0.3835 -0.3985
 8174TIP3    H145937   4.846   0.896  16.142  0.6117  3.4767 -3.0737
 8174TIP3    H245938   4.979   0.945  16.195  0.5451 -0.9607  1.6269
 8175TIP3   OH245939   6.301   4.175  16.491 -0.5246 -0.1851  0.5320
 8175TIP3    H145940   6.373   4.238  16.492 -0.4445 -0.1093 -2.8992
 8175TIP3    H245941   6.306   4.131  16.576  2.2723  1.2371  1.1691
 8176TIP3   OH245942   0.798   4.872  16.691 -0.7961 -0.4819  0.3622
 8176TIP3    H145943   0.858   4.912  16.754  1.8846 -1.4006 -1.5301
 8176TIP3    H245944   0.801   4.930  16.616 -0.0716 -2.0167 -0.8198
 8177TIP3   OH245945   2.712   0.514  17.085  0.1689 -0.0865 -0.1461
 8177TIP3    H145946   2.775   0.472  17.143 -1.0445 -1.0724  0.4627
 8177TIP3    H245947   2.633   0.461  17.092 -0.3712  0.4611 -1.7964
 8178TIP3   OH245948   2.970   1.321   4.336 -0.3081  0.1519  0.0214
 8178TIP3    H145949   2.928   1.265   4.402 -0.8447 -0.2415 -0.6361
 8178TIP3    H245950   3.060   1.330   4.366  0.0861 -2.0083 -0.4331
 8179TIP3   OH245951   5.896   2.347  15.091  0.3381  0.9129  0.4385
 8179TIP3    H145952   5.870   2.380  15.176 -2.1188 -0.8925  0.4467
 8179TIP3    H245953   5.960   2.279  15.110 -0.4068  0.3292  0.8810
 8180TIP3   OH245954   3.233   0.549  15.941  0.0918 -0.1739  0.2413
 8180TIP3    H145955   3.148   0.589  15.960  0.1736 -0.9729  2.4058
 8180TIP3    H245956   3.297   0.603  15.988  0.6659 -0.1731 -0.5351
 8181TIP3   OH245957   1.177   0.240   3.118  0.0966 -0.0919  0.1796
 8181TIP3    H145958   1.172   0.284   3.203  1.3374  2.7107 -1.1219
 8181TIP3    H245959   1.090   0.253   3.080  0.1081  0.2245  0.2629
 8182TIP3   OH245960   3.912   5.214  14.221  0.2147 -0.0127  0.2528
 8182TIP3    H145961   3.874   5.161  14.291 -1.2758  0.2801 -0.3055
 8182TIP3    H245962   3.869   5.299  14.230  0.4418  0.2060 -0.6455
 8183TIP3   OH245963   3.852   1.647   0.222 -0.2678 -0.9204 -0.1923
 8183TIP3    H145964   3.817   1.649   0.311 -1.5874  1.0938 -0.7199
 8183TIP3    H245965   3.788   1.595   0.173 -0.8537  0.0728 -0.4852
 8184TIP3   OH245966   4.777   2.746  13.881 -0.9842  0.2302 -0.0145
 8184TIP3    H145967   4.845   2.679  13.883 -1.3679 -0.1578  0.0059
 8184TIP3    H245968   4.786   2.792  13.965 -0.4007  0.5273 -0.2377
 8185TIP3   OH245969   0.446   5.688  14.866  0.4234  0.1316 -0.0448
 8185TIP3    H145970   0.465   5.642  14.948  0.7710 -0.2646 -0.3481
 8185TIP3    H245971   0.414   5.774  14.894  0.2466 -0.1098  0.5113
 8186TIP3   OH245972   5.862   5.572  14.953 -0.5815 -0.0901 -0.4709
 8186TIP3    H145973   5.803   5.497  14.947  0.0245 -0.3964 -3.4486
 8186TIP3    H245974   5.949   5.534  14.942 -0.1358  0.8150 -0.0457
 8187TIP3   OH245975   3.280   0.829   3.542 -0.3609 -0.3305  0.4396
 8187TIP3    H145976   3.363   0.823   3.590  0.2581 -0.2725 -0.6096
 8187TIP3    H245977   3.254   0.921   3.551  0.0233 -0.1994  0.2269
 8188TIP3   OH245978   3.312   2.209   3.290  0.1963 -0.2721  0.3767
 8188TIP3    H145979   3.331   2.194   3.383 -3.6150 -1.2363  1.0778
 8188TIP3    H245980   3.318   2.123   3.249 -0.6284 -0.2483  0.2077
 8189TIP3   OH245981   3.505   1.678   1.131 -0.3760  0.3228 -0.1537
 8189TIP3    H145982   3.484   1.609   1.193  0.4957  0.1377 -0.0574
 8189TIP3    H245983   3.464   1.650   1.049 -1.3099  0.4419  0.2658
 8190TIP3   OH245984   2.428   3.394  12.471 -0.0752  0.3351  0.0933
 8190TIP3    H145985   2.452   3.450  12.397  0.3775  2.7941  2.0396
 8190TIP3    H245986   2.335   3.413  12.485 -0.8146 -1.9881 -1.3563
 8191TIP3   OH245987   4.252   5.747  13.027 -0.0638 -0.6091  0.3928
 8191TIP3    H145988   4.167   5.773  12.991  0.1561  0.3578  0.5572
 8191TIP3    H245989   4.304   5.722  12.951 -0.2054 -0.3444  0.2107
 8192TIP3   OH245990   2.724   0.784  13.681 -0.0421  0.1598 -0.1650
 8192TIP3    H145991   2.784   0.761  13.610 -0.7488 -1.1543 -0.3574
 8192TIP3    H245992   2.772   0.848  13.733  2.1934 -2.0428  0.6017
 8193TIP3   OH245993   5.410   5.085  13.875 -0.0775  0.4001  0.8335
 8193TIP3    H145994   5.459   5.022  13.929  1.1967  0.4250 -0.2705
 8193TIP3    H245995   5.475   5.152  13.852 -0.5377  0.2758 -0.8950
 8194TIP3   OH245996   3.828   1.365  14.464 -0.0238 -0.0985  0.0823
 8194TIP3    H145997   3.740   1.376  14.429 -0.8869  1.9540  2.6824
 8194TIP3    H245998   3.820   1.297  14.530  0.1744  0.5458  0.7850
 8195TIP3   OH245999   3.775   6.351  16.414 -0.5493 -0.5411  0.1811
 8195TIP3    H146000   3.776   6.438  16.374 -0.1378  1.3191  3.9865
 8195TIP3    H246001   3.865   6.339  16.446 -0.6634 -2.2820 -0.1366
 8196TIP3   OH246002   4.925   4.691   4.332  0.2637 -0.0510 -0.0796
 8196TIP3    H146003   4.846   4.730   4.369 -1.3396 -1.9988 -1.2755
 8196TIP3    H246004   4.937   4.610   4.382  1.2217 -0.0032 -0.2313
 8197TIP3   OH246005   0.742   3.236   5.282 -0.3096  0.0086 -0.0250
 8197TIP3    H146006   0.784   3.219   5.197 -1.5540 -1.8905 -0.2741
 8197TIP3    H246007   0.766   3.162   5.337  0.1538  1.0318  1.1912
 8198TIP3   OH246008   6.072   2.139  11.675 -0.0281 -0.6432 -0.0224
 8198TIP3    H146009   6.003   2.185  11.628  0.3652 -0.6263 -0.5882
 8198TIP3    H246010   6.152   2.162  11.627  0.4890  0.0854  1.1800
 8199TIP3   OH246011   3.725   3.056  12.716  0.2814 -0.4586  0.4266
 8199TIP3    H146012   3.672   3.118  12.766 -1.8612  0.2362 -2.5489
 8199TIP3    H246013   3.663   2.989  12.687  1.8678 -1.9845  0.4524
 8200TIP3   OH246014   2.226   2.803  16.035  0.1291 -0.5680 -0.1196
 8200TIP3    H146015   2.269   2.734  16.086 -0.3089  0.1246  1.2014
 8200TIP3    H246016   2.145   2.763  16.004 -1.3827  0.0911  2.7859
 8201TIP3   OH246017   0.806   2.974  15.719 -0.6587  0.5102 -0.4015
 8201TIP3    H146018   0.782   3.016  15.636  0.6125 -0.5687 -1.3359
 8201TIP3    H246019   0.833   3.046  15.775 -0.9318  1.1917 -1.1293
 8202TIP3   OH246020   4.949   0.078   2.154 -0.1799 -0.4158 -0.2144
 8202TIP3    H146021   4.914   0.034   2.076  1.3326 -0.0007 -1.1417
 8202TIP3    H246022   4.871   0.113   2.197 -1.0413 -0.5984 -1.5723
 8203TIP3   OH246023   0.085   3.318  12.305 -0.5590  0.1069  0.1908
 8203TIP3    H146024   0.162   3.290  12.255  0.0110 -1.3548  1.8169
 8203TIP3    H246025   0.113   3.397  12.350 -0.8910  1.1064 -1.3354
 8204TIP3   OH246026   0.901   1.299  14.028  0.7435  0.0292 -0.5792
 8204TIP3    H146027   0.845   1.228  13.998  3.1910 -2.2499  0.0909
 8204TIP3    H246028   0.918   1.351  13.949 -0.5501 -0.4839 -1.2043
 8205TIP3   OH246029   2.839   3.468   5.543  0.2583 -0.2806 -0.4025
 8205TIP3    H146030   2.872   3.429   5.624  1.3266  0.1724 -0.6158
 8205TIP3    H246031   2.838   3.562   5.560 -1.7535 -0.3241 -0.1009
 8206TIP3   OH246032   0.073   2.968   5.704 -0.0044  0.1015  0.4844
 8206TIP3    H146033   0.059   3.056   5.670 -0.4391 -0.8590 -1.9438
 8206TIP3    H246034   0.157   2.972   5.749 -0.5675  2.0286  1.3845
 8207TIP3   OH246035   6.446   2.549  10.975  0.1437  0.1881 -0.0089
 8207TIP3    H146036   6.367   2.501  11.000  1.4714 -1.8887  0.4260
 8207TIP3    H246037   6.429   2.580  10.886 -1.7044  1.0488  0.6202
 8208TIP3   OH246038   6.032   3.283   4.089 -0.1614  0.0356  0.2761
 8208TIP3    H146039   5.981   3.233   4.025 -0.7167  1.0939 -0.1364
 8208TIP3    H246040   5.977   3.284   4.167  0.2360 -0.7258  0.5653
 8209TIP3   OH246041   0.874   2.418   5.085  0.4403 -0.1144 -0.4249
 8209TIP3    H146042   0.932   2.452   5.153  0.2869 -0.9083  0.1169
 8209TIP3    H246043   0.933   2.391   5.015  0.7236 -0.8639  0.0987
 8210TIP3   OH246044   2.146   5.397  14.549 -0.2995 -0.0803 -0.0071
 8210TIP3    H146045   2.163   5.391  14.455  1.2543  1.1582  0.1845
 8210TIP3    H246046   2.052   5.379  14.557 -0.5178  0.1647 -1.8286
 8211TIP3   OH246047   2.627   0.860  16.806 -0.1647 -0.0689 -0.3849
 8211TIP3    H146048   2.581   0.941  16.825  0.5765  0.5446 -1.1547
 8211TIP3    H246049   2.666   0.834  16.889 -3.0062 -1.3282  0.6053
 8212TIP3   OH246050   0.118   0.321  11.543 -0.1402 -0.1306 -0.2911
 8212TIP3    H146051   0.119   0.242  11.596  0.2309  0.9318  1.3049
 8212TIP3    H246052   0.076   0.387  11.598  0.7670  1.1511 -1.0959
 8213TIP3   OH246053   6.123   6.507   6.795 -0.2711  0.4422  0.0835
 8213TIP3    H146054   6.187   6.511   6.866  0.1443  0.8801 -0.3084
 8213TIP3    H246055   6.106   6.598   6.772  1.0404  0.2846 -1.6421
 8214TIP3   OH246056   3.205   4.847  12.661 -0.2594 -0.1080 -0.3143
 8214TIP3    H146057   3.261   4.915  12.700  0.5092 -0.8959 -0.0359
 8214TIP3    H246058   3.219   4.855  12.567 -0.2006  0.1427 -0.2839
 8215TIP3   OH246059   6.278   3.914   1.415 -0.0716  0.2442  0.4468
 8215TIP3    H146060   6.229   3.987   1.453  0.2560 -0.1746  1.7010
 8215TIP3    H246061   6.211   3.861   1.370 -0.3663  1.1011 -0.1223
 8216TIP3   OH246062   6.213   1.690  10.516 -0.1456 -0.2340 -0.3890
 8216TIP3    H146063   6.211   1.722  10.426 -2.3143 -0.0212 -0.2790
 8216TIP3    H246064   6.162   1.754  10.566  0.4500 -0.7247  0.8755
 8217TIP3   OH246065   0.130   3.424   0.647 -0.5872  0.0299  0.6161
 8217TIP3    H146066   0.096   3.350   0.698 -0.0164 -0.1954  0.6733
 8217TIP3    H246067   0.103   3.405   0.557  0.8446 -1.0058  0.4007
 8218TIP3   OH246068   2.910   6.603   5.152  0.4881 -0.0287 -0.0710
 8218TIP3    H146069   2.823   6.599   5.193  0.8966  0.1842  0.8207
 8218TIP3    H246070   2.891   6.617   5.059 -0.4712 -1.7227 -0.1559
 8219TIP3   OH246071   1.893   1.725  12.783  0.3079  0.4417  0.3396
 8219TIP3    H146072   1.931   1.735  12.870  0.9432  1.6250 -0.0588
 8219TIP3    H246073   1.914   1.807  12.738  0.4113 -0.3406 -1.0901
 8220TIP3   OH246074   5.270   1.824  13.200 -0.5971  0.2146  0.3690
 8220TIP3    H146075   5.326   1.837  13.277 -0.8544 -1.1539  0.7945
 8220TIP3    H246076   5.280   1.905  13.150 -0.8289  1.3309  2.0875
 8221TIP3   OH246077   3.855   4.137   0.352 -0.3137 -0.3345 -0.6074
 8221TIP3    H146078   3.806   4.076   0.406 -1.0296 -1.1204 -2.1070
 8221TIP3    H246079   3.804   4.218   0.355  0.2480 -0.0258  0.7915
 8222TIP3   OH246080   0.283   1.496  16.410  0.3498  0.1737  0.3767
 8222TIP3    H146081   0.231   1.570  16.377 -0.6001 -0.6774 -0.0580
 8222TIP3    H246082   0.293   1.438  16.335  1.4444  0.0431  0.6113
 8223TIP3   OH246083   5.057   3.288  12.033 -0.4964  0.1063 -0.2310
 8223TIP3    H146084   4.970   3.270  11.997 -1.4708  2.3786  0.9094
 8223TIP3    H246085   5.040   3.329  12.118  1.7293 -0.9596  0.7511
 8224TIP3   OH246086   4.158   2.655  11.620  0.1192 -0.2820 -0.3247
 8224TIP3    H146087   4.222   2.626  11.554  0.5951  0.8288 -0.3573
 8224TIP3    H246088   4.081   2.600  11.604  0.2651 -0.0971 -1.7367
 8225TIP3   OH246089   3.669   4.381   4.308 -0.2375 -0.0775  0.4319
 8225TIP3    H146090   3.681   4.354   4.217 -0.3525  1.2859  0.0006
 8225TIP3    H246091   3.574   4.379   4.322 -0.1043 -2.5384  1.2473
 8226TIP3   OH246092   6.401   5.163  13.828  0.9491  0.3385 -0.4615
 8226TIP3    H146093   6.382   5.096  13.894  0.8218 -0.3019 -1.1373
 8226TIP3    H246094   6.372   5.245  13.867  0.7778 -0.0513  0.2340
 8227TIP3   OH246095   4.467   4.717  10.897  0.0605  0.3575  0.6150
 8227TIP3    H146096   4.455   4.782  10.828 -1.1181 -0.4749  0.0245
 8227TIP3    H246097   4.556   4.685  10.884 -0.8981 -1.4402 -1.9930
 8228TIP3   OH246098   5.721   6.433  11.827  0.0420  0.0254 -0.0106
 8228TIP3    H146099   5.804   6.431  11.779  0.0968 -0.8972  0.1118
 8228TIP3    H246100   5.748   6.436  11.919 -0.0375 -1.0814  0.0658
 8229TIP3   OH246101   5.263   2.324   4.962 -0.1416  0.3410  0.5426
 8229TIP3    H146102   5.181   2.313   4.916 -0.0839  0.3063  0.4489
 8229TIP3    H246103   5.330   2.290   4.902 -0.2420 -1.3398  1.3614
 8230TIP3   OH246104   1.381   4.578  13.433 -0.1027 -0.3889 -0.3397
 8230TIP3    H146105   1.297   4.538  13.457 -0.4293  1.0044  0.8797
 8230TIP3    H246106   1.391   4.652  13.493  1.4135  0.2048 -1.2912
 8231TIP3   OH246107   5.415   1.396   2.713  0.5247  0.0257 -0.5149
 8231TIP3    H146108   5.471   1.420   2.787  0.6562  0.0703 -0.6273
 8231TIP3    H246109   5.327   1.390   2.750  0.5729  0.1570 -0.3783
 8232TIP3   OH246110   4.030   3.692   5.772  0.0507  0.2345 -0.7831
 8232TIP3    H146111   4.091   3.673   5.702 -1.6838 -0.0200 -2.2614
 8232TIP3    H246112   4.018   3.787   5.768  1.2790  0.4531  0.3213
 8233TIP3   OH246113   4.484   6.522  12.979  0.0075 -0.2659  0.4067
 8233TIP3    H146114   4.568   6.559  13.007  0.3679  0.2804 -1.3658
 8233TIP3    H246115   4.419   6.571  13.030  0.6922  0.1169  0.9319
 8234TIP3   OH246116   4.409   3.417  15.798  0.1789 -0.0693  0.1248
 8234TIP3    H146117   4.318   3.391  15.785 -0.1110  0.6164  0.7478
 8234TIP3    H246118   4.450   3.341  15.838 -0.2843 -0.1374  0.4737
 8235TIP3   OH246119   3.079   3.277  10.719 -0.1678 -0.1068  0.1648
 8235TIP3    H146120   3.166   3.248  10.691  0.0571 -0.8913  1.6535
 8235TIP3    H246121   3.096   3.359  10.767 -0.4577  0.7439 -1.1563
 8236TIP3   OH246122   4.897   2.424  13.052  0.1227  0.7542  0.3049
 8236TIP3    H146123   4.875   2.429  12.959  1.6412  0.5759 -0.0739
 8236TIP3    H246124   4.878   2.512  13.085 -0.7300  0.7295 -0.1042
 8237TIP3   OH246125   2.899   2.860   3.382 -0.2479 -0.4034  0.1575
 8237TIP3    H146126   2.988   2.828   3.398  0.1439  0.7271  0.2478
 8237TIP3    H246127   2.849   2.832   3.459  0.0351 -1.0134  0.1176
 8238TIP3   OH246128   5.001   6.040  15.862  0.4693 -0.3148  0.4181
 8238TIP3    H146129   4.918   5.994  15.855 -0.3757  1.2691  0.0058
 8238TIP3    H246130   5.067   5.970  15.864 -0.7973 -1.5323 -0.1855
 8239TIP3   OH246131   5.723   1.749  12.563 -0.1981  0.3320 -0.1547
 8239TIP3    H146132   5.809   1.744  12.521 -0.0897  2.5792 -0.2406
 8239TIP3    H246133   5.742   1.764  12.656 -0.4756  2.0645 -0.3547
 8240TIP3   OH246134   2.705   0.555   2.121  0.2272  0.0701 -0.0535
 8240TIP3    H146135   2.721   0.511   2.038  0.6760 -0.4966  0.3297
 8240TIP3    H246136   2.744   0.497   2.187  0.8916  1.0632  0.4476
 8241TIP3   OH246137   3.617   1.851   5.793 -0.2133  0.4812  0.5488
 8241TIP3    H146138   3.637   1.912   5.864  1.8620  0.9040 -0.3695
 8241TIP3    H246139   3.663   1.770   5.817  0.6448  0.6838 -0.3804
 8242TIP3   OH246140   4.075   0.219   6.253 -0.3441 -0.2078  0.6409
 8242TIP3    H146141   4.000   0.222   6.193 -1.3990 -2.4627  1.7990
 8242TIP3    H246142   4.100   0.127   6.256  2.9120  0.5805 -0.1971
 8243TIP3   OH246143   2.166   6.405   3.191 -0.4853  0.4109  0.4917
 8243TIP3    H146144   2.235   6.364   3.139 -0.0937  1.1331  0.4435
 8243TIP3    H246145   2.178   6.369   3.279 -0.6277 -0.1737  0.2724
 8244TIP3   OH246146   3.577   1.014  13.747 -0.3385  0.1113  0.8700
 8244TIP3    H146147   3.497   1.064  13.731  0.1030  1.3039  2.2647
 8244TIP3    H246148   3.612   1.050  13.828  2.3839  0.5909 -0.4669
 8245TIP3   OH246149   0.106   3.645  16.887 -0.4811  0.2655 -0.9048
 8245TIP3    H146150   0.154   3.676  16.964  0.0045  0.7365 -1.3926
 8245TIP3    H246151   0.058   3.722  16.856 -1.5417 -0.2015 -0.4298
 8246TIP3   OH246152   4.237   1.380   4.008  0.6482 -0.2351 -0.2537
 8246TIP3    H146153   4.314   1.323   3.999 -0.2180 -1.6272  0.9030
 8246TIP3    H246154   4.233   1.399   4.101 -0.8908 -0.8597 -0.1871
 8247TIP3   OH246155   2.450   4.014   1.648  0.0832  0.3105 -0.2773
 8247TIP3    H146156   2.498   3.955   1.589  1.6773  0.4601  0.8169
 8247TIP3    H246157   2.359   3.986   1.641  0.7751 -2.1397  0.0305
 8248TIP3   OH246158   0.450   6.409  16.382 -0.2484 -0.6464 -0.9181
 8248TIP3    H146159   0.445   6.504  16.394 -0.3197 -0.6710 -0.7530
 8248TIP3    H246160   0.412   6.394  16.295 -0.2872 -0.5289 -0.9218
 8249TIP3   OH246161   5.598   6.156   4.836  0.2058  0.0184  0.7972
 8249TIP3    H146162   5.628   6.176   4.747  1.8914  1.1492  1.6071
 8249TIP3    H246163   5.526   6.217   4.852  0.1212  0.0416  0.3379
 8250TIP3   OH246164   5.602   2.661  17.001  0.3536 -0.6711  0.2505
 8250TIP3    H146165   5.530   2.600  16.986  0.9354 -1.3398  0.1374
 8250TIP3    H246166   5.566   2.728  17.058 -0.6432 -0.4675 -0.6024
 8251TIP3   OH246167   0.999   1.443  13.135  0.3421  0.6321 -0.3379
 8251TIP3    H146168   0.980   1.361  13.090 -0.1227  0.5878 -0.0631
 8251TIP3    H246169   1.065   1.421  13.200 -0.8248  0.1821  0.7051
 8252TIP3   OH246170   2.137   4.747  15.725 -0.7989  0.2722  0.4627
 8252TIP3    H146171   2.221   4.704  15.742 -1.7212 -1.2864  1.1298
 8252TIP3    H246172   2.097   4.758  15.811 -0.4734  2.7503  0.3393
 8253TIP3   OH246173   3.691   2.633   3.476 -0.3696  0.1982  0.2010
 8253TIP3    H146174   3.658   2.618   3.565 -0.5435 -3.4554 -0.4381
 8253TIP3    H246175   3.786   2.627   3.484 -0.2126  2.5872  0.5706
 8254TIP3   OH246176   1.123   4.049   1.103  0.3700 -0.1047 -0.5672
 8254TIP3    H146177   1.114   3.992   1.179  1.3212 -1.7557 -1.6512
 8254TIP3    H246178   1.183   4.002   1.045 -1.2482  0.5630 -2.8565
 8255TIP3   OH246179   4.652   3.089  15.457  0.0307 -0.3569 -0.1943
 8255TIP3    H146180   4.561   3.081  15.486 -0.4835  1.8261 -1.1492
 8255TIP3    H246181   4.698   3.127  15.531  0.1060 -1.1046  0.1514
 8256TIP3   OH246182   4.451   2.729   3.853  0.7812 -0.2523  0.1977
 8256TIP3    H146183   4.473   2.821   3.833  1.0775 -0.1569  0.9538
 8256TIP3    H246184   4.528   2.680   3.823  0.0194 -0.4169 -1.5607
 8257TIP3   OH246185   6.374   2.334  16.757 -0.1328 -0.3936  0.0648
 8257TIP3    H146186   6.320   2.303  16.831  1.1723 -0.7193  0.8887
 8257TIP3    H246187   6.377   2.259  16.697 -1.7306  0.0825 -0.6534
 8258TIP3   OH246188   2.073   2.021   4.329  0.9212  0.1696 -0.2015
 8258TIP3    H146189   2.115   2.014   4.243  0.4917  0.2718 -0.4192
 8258TIP3    H246190   2.081   1.934   4.367 -1.2976 -0.6273 -1.4584
 8259TIP3   OH246191   3.091   4.462  12.557 -0.3309  0.3519  0.3454
 8259TIP3    H146192   3.065   4.529  12.620 -2.5354  0.5868 -0.7695
 8259TIP3    H246193   3.034   4.476  12.481  2.1343 -0.0297 -1.6618
 8260TIP3   OH246194   5.730   0.348  10.928  0.1720 -0.3658  0.1369
 8260TIP3    H146195   5.743   0.370  10.836  0.1328 -0.2079  0.1685
 8260TIP3    H246196   5.698   0.429  10.968 -1.7358 -0.9628 -0.1240
 8261TIP3   OH246197   4.116   1.218  14.776  0.3270 -0.2714  0.3911
 8261TIP3    H146198   4.134   1.303  14.738  3.0890 -0.7284  0.5865
 8261TIP3    H246199   4.044   1.234  14.837 -1.0165  1.3480 -1.5570
 8262TIP3   OH246200   1.973   1.655  14.225  0.1774 -0.4887 -0.1408
 8262TIP3    H146201   1.985   1.705  14.145  2.6937 -1.0672 -0.1499
 8262TIP3    H246202   1.891   1.607  14.211 -0.2918  0.7149 -1.6510
 8263TIP3   OH246203   4.931   4.284   3.205 -0.1519  0.1703 -0.4984
 8263TIP3    H146204   4.857   4.244   3.251  0.7061 -0.4217  0.3596
 8263TIP3    H246205   4.957   4.358   3.260  1.6182 -1.2285  0.5956
 8264TIP3   OH246206   3.948   3.308   3.374 -0.1712  0.4982  0.0552
 8264TIP3    H146207   3.957   3.297   3.469  2.8489 -1.1258 -0.3468
 8264TIP3    H246208   3.995   3.233   3.337  0.3525  2.1222 -2.7349
 8265TIP3   OH246209   4.284   2.500   5.302 -0.5518  0.4112  0.0984
 8265TIP3    H146210   4.195   2.533   5.292  0.1982  2.0074 -1.5476
 8265TIP3    H246211   4.295   2.487   5.396 -2.7653 -0.5649  0.2467
 8266TIP3   OH246212   2.625   0.034  15.264 -0.3675  0.6611  0.0396
 8266TIP3    H146213   2.649   0.121  15.298 -0.2129 -0.6339  3.4205
 8266TIP3    H246214   2.530   0.029  15.278 -0.1404 -0.2929  1.2894
 8267TIP3   OH246215   1.346   3.260  15.975  0.1780 -0.6014 -0.1329
 8267TIP3    H146216   1.252   3.244  15.967 -0.1838  0.5711  1.5248
 8267TIP3    H246217   1.354   3.356  15.970  1.3005 -0.7117 -0.4930
 8268TIP3   OH246218   0.155   6.088   4.802 -0.5435 -0.0231 -0.0433
 8268TIP3    H146219   0.154   6.078   4.898 -1.7625  1.8279  0.1727
 8268TIP3    H246220   0.235   6.137   4.784  0.8369 -2.2613 -0.2277
 8269TIP3   OH246221   3.886   4.242  14.644 -0.1711 -0.3498 -0.0843
 8269TIP3    H146222   3.936   4.299  14.702  1.1842  0.5080 -2.0331
 8269TIP3    H246223   3.820   4.299  14.606 -0.9584 -0.8731  0.4873
 8270TIP3   OH246224   5.147   2.579  11.756 -0.9970 -0.3259  0.3507
 8270TIP3    H146225   5.215   2.604  11.818  2.1134 -0.6273 -2.7388
 8270TIP3    H246226   5.085   2.651  11.757  1.2881  1.6987  0.6440
 8271TIP3   OH246227   2.917   5.991  13.360 -0.0026 -0.4370  0.1127
 8271TIP3    H146228   2.838   6.028  13.320  0.0746 -0.6467 -0.2379
 8271TIP3    H246229   2.979   6.064  13.364  0.0624 -0.4663 -0.3442
 8272TIP3   OH246230   2.204   6.425   5.678  0.1284  0.0645 -0.5245
 8272TIP3    H146231   2.287   6.378   5.687 -0.1784 -0.2007  1.2996
 8272TIP3    H246232   2.141   6.371   5.726 -0.5626  1.5224  0.2558
 8273TIP3   OH246233   0.911   1.019  16.368 -0.0749 -0.2190  0.7158
 8273TIP3    H146234   0.910   1.010  16.273 -1.2319  1.6023  0.5165
 8273TIP3    H246235   0.843   1.085  16.386  0.4532 -0.1982  2.7582
 8274TIP3   OH246236   2.369   4.340  10.811  0.4194  0.2844 -0.1117
 8274TIP3    H146237   2.400   4.252  10.787 -1.3263 -0.9262  1.9215
 8274TIP3    H246238   2.446   4.384  10.846  0.9900 -0.9325  0.1796
 8275TIP3   OH246239   6.491   0.619   5.100 -0.4904  0.2533 -0.7872
 8275TIP3    H146240   6.584   0.607   5.117 -0.6438 -0.6182 -0.5676
 8275TIP3    H246241   6.476   0.571   5.018 -0.7658  0.3141 -0.7719
 8276TIP3   OH246242   0.672   5.226   2.412  0.2271  0.2550 -0.6537
 8276TIP3    H146243   0.578   5.241   2.418  0.2967  0.6729 -0.5852
 8276TIP3    H246244   0.710   5.313   2.400  0.5838  0.0639 -0.9487
 8277TIP3   OH246245   0.022   1.780  11.739 -0.2093  0.2308 -0.1334
 8277TIP3    H146246   0.057   1.726  11.809 -0.9601 -0.3551 -0.2081
 8277TIP3    H246247  -0.064   1.808  11.770 -1.1721 -1.2313 -1.4247
 8278TIP3   OH246248   5.228   5.002  11.349 -0.3625 -0.1189  0.5547
 8278TIP3    H146249   5.267   4.978  11.266 -0.0661  1.0023  0.3563
 8278TIP3    H246250   5.279   5.078  11.379  1.1776 -2.0416  2.9980
 8279TIP3   OH246251   2.662   1.938   3.905 -0.4727 -0.3577  0.5000
 8279TIP3    H146252   2.687   1.954   3.814 -0.1587  1.8134  0.9444
 8279TIP3    H246253   2.567   1.927   3.902 -0.5602  0.4823  0.0109
 8280TIP3   OH246254   3.094   5.549  12.934 -0.2635 -0.1924  0.0933
 8280TIP3    H146255   3.071   5.517  13.021 -0.2804 -1.9806 -0.5566
 8280TIP3    H246256   3.118   5.641  12.949  1.0635 -0.8255  2.2004
 8281TIP3   OH246257   0.707   2.924   4.253  0.0406 -0.2480  0.4440
 8281TIP3    H146258   0.632   2.878   4.217  0.0932  0.9781 -1.2947
 8281TIP3    H246259   0.752   2.859   4.308 -1.0390 -1.6180 -0.2809
 8282TIP3   OH246260   0.547   1.242  12.034  0.3845  0.1743  0.2491
 8282TIP3    H146261   0.461   1.203  12.019  0.8542 -0.2414 -1.5942
 8282TIP3    H246262   0.535   1.302  12.107 -1.1309 -0.9510  0.9464
 8283TIP3   OH246263   1.259   1.686   0.317  0.0384 -0.9035 -0.4431
 8283TIP3    H146264   1.164   1.682   0.325 -0.0581  2.3591  0.8695
 8283TIP3    H246265   1.280   1.778   0.334  3.1122 -0.7627 -4.3443
 8284TIP3   OH246266   6.192   3.150   1.160  0.4253  0.0236 -0.0131
 8284TIP3    H146267   6.136   3.219   1.196 -1.1096 -1.3721  0.3385
 8284TIP3    H246268   6.216   3.097   1.236  1.1636 -0.1451 -0.3593
 8285TIP3   OH246269   5.468   3.915  16.237  0.2368 -0.0050  0.4968
 8285TIP3    H146270   5.549   3.895  16.285 -0.0833  1.9362  1.8981
 8285TIP3    H246271   5.497   3.962  16.160  0.5727 -0.9834  0.0148
 8286TIP3   OH246272   5.185   3.843  12.270 -0.8934  0.0307 -0.6532
 8286TIP3    H146273   5.156   3.907  12.335  0.0451  0.8365 -1.0255
 8286TIP3    H246274   5.108   3.786  12.257 -1.0504 -0.2231  1.2428
 8287TIP3   OH246275   1.339   1.053   2.323  0.4292 -0.3162 -0.1528
 8287TIP3    H146276   1.258   1.060   2.273  0.2177 -3.4104 -0.3477
 8287TIP3    H246277   1.311   1.026   2.410  1.2858 -2.5505 -0.5369
 8288TIP3   OH246278   6.270   1.327  11.567 -0.7568 -0.2230  0.0643
 8288TIP3    H146279   6.212   1.253  11.553 -1.0167 -0.1223  0.5943
 8288TIP3    H246280   6.243   1.363  11.651 -0.1972  0.0739  0.1191
 8289TIP3   OH246281   2.674   4.448  13.481 -0.3026  0.4085 -0.0242
 8289TIP3    H146282   2.656   4.542  13.483 -0.2225  0.4238  0.0155
 8289TIP3    H246283   2.682   4.423  13.573 -0.3407  0.3591 -0.0333
 8290TIP3   OH246284   2.616   6.446   0.239 -0.1889  0.5222  0.2065
 8290TIP3    H146285   2.649   6.529   0.273 -4.1154  1.5171  1.9170
 8290TIP3    H246286   2.522   6.449   0.257 -0.8166 -3.2341 -1.9835
 8291TIP3   OH246287   5.884   0.371   4.523 -0.1810 -0.1975 -0.1525
 8291TIP3    H146288   5.936   0.438   4.566  1.1037 -1.0555 -0.3268
 8291TIP3    H246289   5.941   0.294   4.521 -0.8922 -0.7134 -1.7157
 8292TIP3   OH246290   1.381   3.737  15.717 -0.0210  0.2724 -0.1042
 8292TIP3    H146291   1.366   3.801  15.647  1.6151  1.0398  0.2390
 8292TIP3    H246292   1.360   3.784  15.797  1.5920  0.5250  0.1831
 8293TIP3   OH246293   1.386   0.636   1.353  0.4548  0.1179 -0.0339
 8293TIP3    H146294   1.330   0.606   1.426  2.8894  1.0865  2.3068
 8293TIP3    H246295   1.456   0.571   1.349  1.5427  1.2946 -0.0640
 8294TIP3   OH246296   6.416   6.094   3.732 -0.1118  0.7112 -0.3883
 8294TIP3    H146297   6.379   6.171   3.689  0.1570  0.9892 -0.1213
 8294TIP3    H246298   6.485   6.065   3.673 -0.7743  0.1700 -0.9064
 8295TIP3   OH246299   5.970   5.128  12.917  0.0962  0.2399  0.2359
 8295TIP3    H146300   6.033   5.152  12.984  0.5377  1.5318 -0.6272
 8295TIP3    H246301   5.937   5.042  12.945  0.0429  0.8923  2.2407
 8296TIP3   OH246302   0.541   6.163  12.691  0.1639 -0.1520 -0.1943
 8296TIP3    H146303   0.570   6.234  12.747  0.2652  0.7721 -1.3966
 8296TIP3    H246304   0.590   6.174  12.610 -0.5577 -0.9950 -0.7654
 8297TIP3   OH246305   3.626   4.994   5.686  0.3044  0.1780 -0.2489
 8297TIP3    H146306   3.716   4.961   5.686  1.0002  1.9878  0.8654
 8297TIP3    H246307   3.613   5.029   5.598  0.7957  0.2066 -0.3136
 8298TIP3   OH246308   2.002   3.810   6.558 -0.1643 -0.3547 -0.4723
 8298TIP3    H146309   2.068   3.742   6.571 -0.1646 -0.3060 -0.2022
 8298TIP3    H246310   1.934   3.768   6.505 -0.1356 -0.5467 -0.3598
 8299TIP3   OH246311   6.738   0.480   1.876  0.3117 -0.1824 -0.2901
 8299TIP3    H146312   6.790   0.554   1.907  2.8171 -1.8137 -0.3947
 8299TIP3    H246313   6.718   0.502   1.785 -2.0936  1.9716  0.7041
 8300TIP3   OH246314   5.752   5.941   4.452  0.5238  0.1479 -0.0932
 8300TIP3    H146315   5.676   5.961   4.397 -0.3464  1.1281  1.4490
 8300TIP3    H246316   5.721   5.873   4.512  1.2296 -0.3189 -0.2453
 8301TIP3   OH246317   2.997   1.640   0.998 -0.7742 -0.1001 -0.9604
 8301TIP3    H146318   2.988   1.714   0.939  0.3292  0.0451 -0.9611
 8301TIP3    H246319   3.061   1.669   1.064 -3.0639  0.2710  1.1699
 8302TIP3   OH246320   0.367   2.571   4.458 -0.4287  0.4745 -0.4849
 8302TIP3    H146321   0.290   2.618   4.489  0.8436  0.5870  2.6786
 8302TIP3    H246322   0.356   2.482   4.490  0.0945  0.1388 -1.2191
 8303TIP3   OH246323   2.100   4.973   3.503  0.0523  0.0826  0.0191
 8303TIP3    H146324   2.166   5.009   3.563 -0.1395 -0.5777  0.6267
 8303TIP3    H246325   2.023   5.028   3.516  0.3428  0.5890 -0.3800
 8304TIP3   OH246326   2.405   6.184  13.074  0.7299 -0.2940  0.1853
 8304TIP3    H146327   2.420   6.194  12.980  0.2477 -1.2380  0.0019
 8304TIP3    H246328   2.313   6.205  13.086  1.0390  0.8295  0.6010
 8305TIP3   OH246329   4.750   1.497  12.693  0.6046 -0.1931 -0.1913
 8305TIP3    H146330   4.828   1.544  12.662  0.3391  0.4184  0.0572
 8305TIP3    H246331   4.779   1.454  12.774  0.9280 -0.7018 -0.5731
 8306TIP3   OH246332   3.884   6.169  15.537 -0.2202 -0.2885 -0.1212
 8306TIP3    H146333   3.835   6.219  15.472  2.0156  2.2264  0.0360
 8306TIP3    H246334   3.886   6.226  15.615  1.8095 -0.8751  0.2840
 8307TIP3   OH246335   6.545   0.929  17.116  0.0373 -0.2253 -0.1046
 8307TIP3    H146336   6.635   0.962  17.119  0.5349 -1.6485  0.9043
 8307TIP3    H246337   6.497   0.996  17.067  1.8540  0.0064 -1.6193
 8308TIP3   OH246338   4.972   5.716  15.612  0.3582 -0.2006 -0.5329
 8308TIP3    H146339   4.903   5.782  15.617 -0.5557 -0.9761 -2.3699
 8308TIP3    H246340   4.925   5.634  15.598  1.6164 -0.8769 -0.8390
 8309TIP3   OH246341   2.751   5.971   0.701  0.1961  0.9395 -0.7278
 8309TIP3    H146342   2.823   5.911   0.724 -1.3480  0.4299  3.1506
 8309TIP3    H246343   2.682   5.914   0.667 -0.0306  0.9089 -0.2159
 8310TIP3   OH246344   2.037   3.721   0.005 -0.3151  0.0828 -0.0750
 8310TIP3    H146345   2.005   3.715  -0.085 -0.5132 -0.7455  0.0480
 8310TIP3    H246346   1.960   3.746   0.056 -1.0334 -2.8269  0.3659
 8311TIP3   OH246347   4.911   6.184  11.265 -0.1232 -0.2078 -0.4591
 8311TIP3    H146348   4.920   6.150  11.176  0.3171 -1.8756  0.2101
 8311TIP3    H246349   4.991   6.234  11.280  1.0233 -2.1108 -0.0791
 8312TIP3   OH246350   0.162   1.566  12.603 -0.3402 -0.3660  0.8166
 8312TIP3    H146351   0.206   1.514  12.670  0.0734 -0.2995  0.6021
 8312TIP3    H246352   0.088   1.512  12.575 -0.5373 -0.3750  1.3559
 8313TIP3   OH246353   1.769   1.689  11.205  0.2749  0.0682  0.3945
 8313TIP3    H146354   1.776   1.678  11.111 -1.6280  1.9939 -0.0156
 8313TIP3    H246355   1.845   1.644  11.241  1.1931 -0.3866 -2.0771
 8314TIP3   OH246356   5.962   0.518   2.436 -0.6045 -0.2221  0.7926
 8314TIP3    H146357   5.903   0.589   2.409  0.5967  0.6813  0.4608
 8314TIP3    H246358   5.993   0.545   2.522 -0.0740 -0.3014  0.6279
 8315TIP3   OH246359   0.409   5.094   2.235 -0.3430 -0.9232  0.3455
 8315TIP3    H146360   0.368   5.099   2.149 -1.2194 -1.3470  0.7305
 8315TIP3    H246361   0.500   5.070   2.218 -0.0701  0.7081 -0.5612
 8316TIP3   OH246362   6.126   1.165  14.084  0.3493 -0.0471  0.4796
 8316TIP3    H146363   6.166   1.251  14.097 -0.0714  0.1607  0.3935
 8316TIP3    H246364   6.183   1.121  14.021 -1.4217  1.5158 -2.3081
 8317TIP3   OH246365   4.302   2.880   0.977 -0.2268  0.2021 -0.3141
 8317TIP3    H146366   4.369   2.812   0.985 -0.5304 -0.3076 -1.9980
 8317TIP3    H246367   4.219   2.833   0.991 -0.3565  0.5048 -0.0460
 8318TIP3   OH246368   1.755   1.767   3.542  0.1332  0.7712 -0.0719
 8318TIP3    H146369   1.815   1.779   3.468  1.0671  0.5815  0.6571
 8318TIP3    H246370   1.801   1.804   3.617  0.7795 -2.4245  1.1659
 8319TIP3   OH246371   2.419   1.923  12.133  0.3247  0.1801 -0.1542
 8319TIP3    H146372   2.363   1.915  12.056  1.1354 -0.1820 -0.7124
 8319TIP3    H246373   2.485   1.988  12.108  2.0277 -1.7177 -0.6426
 8320TIP3   OH246374   5.054   1.105   1.273  0.3843 -0.1661  0.3956
 8320TIP3    H146375   5.058   1.194   1.239  1.0766 -0.4433 -0.2654
 8320TIP3    H246376   5.036   1.051   1.196  0.0012 -0.6056  0.7895
 8321TIP3   OH246377   0.825   3.311  10.699 -0.3794  0.0394 -0.2325
 8321TIP3    H146378   0.830   3.405  10.685  0.7589 -0.1671 -1.2585
 8321TIP3    H246379   0.915   3.279  10.688 -0.7597 -1.1744  0.0200
 8322TIP3   OH246380   0.257   3.044   2.898 -0.2463  0.3954  0.3029
 8322TIP3    H146381   0.318   3.085   2.837  0.5059 -0.0819  0.7232
 8322TIP3    H246382   0.273   2.950   2.889 -0.6848  0.2851  0.6501
 8323TIP3   OH246383   6.193   2.950   6.249  0.2095  0.2520  0.3169
 8323TIP3    H146384   6.271   3.001   6.228  1.3653 -1.1136  1.2151
 8323TIP3    H246385   6.207   2.921   6.339 -1.4069  0.1022  0.5333
 8324TIP3   OH246386   3.129   0.695  13.331  0.5511 -0.8296 -0.2733
 8324TIP3    H146387   3.163   0.620  13.379  1.1746  0.2531  0.9905
 8324TIP3    H246388   3.207   0.745  13.305  0.1538 -0.6871 -1.2330
 8325TIP3   OH246389   0.664   0.694  10.959 -0.0529 -0.2456 -0.4506
 8325TIP3    H146390   0.746   0.644  10.966  0.8655  1.2786 -0.2396
 8325TIP3    H246391   0.608   0.658  11.028  1.0090 -0.2224  0.4237
 8326TIP3   OH246392   5.602   4.202   2.930  0.1756 -0.5351  0.3692
 8326TIP3    H146393   5.672   4.173   2.988  0.1711  1.3549  1.3812
 8326TIP3    H246394   5.545   4.255   2.986 -0.0661  0.9740 -1.2603
 8327TIP3   OH246395   4.451   5.975   4.705 -0.2922 -0.2709  0.0167
 8327TIP3    H146396   4.514   6.026   4.756  0.5374 -2.8109  1.6154
 8327TIP3    H246397   4.398   6.041   4.659  4.4210  1.9224 -2.5482
 8328TIP3   OH246398   5.736   6.283  15.556  0.7903  0.0790 -0.1646
 8328TIP3    H146399   5.642   6.274  15.544  0.4899  1.4769  0.9520
 8328TIP3    H246400   5.763   6.201  15.598 -0.3891  0.7083  1.8852
 8329TIP3   OH246401   3.061   3.001  11.342 -0.1976  0.2408 -0.0836
 8329TIP3    H146402   3.033   2.985  11.252 -2.2022  0.8112  0.4102
 8329TIP3    H246403   3.096   3.090  11.341 -2.0994  1.0173  0.0939
 8330TIP3   OH246404   3.188   4.562   0.638  0.7229 -0.1606 -0.1012
 8330TIP3    H146405   3.180   4.516   0.555  2.4823 -0.5242 -0.0846
 8330TIP3    H246406   3.204   4.653   0.614 -0.5815  0.0642 -0.1425
 8331TIP3   OH246407   2.658   1.386  11.708  0.2709  0.0996  0.2997
 8331TIP3    H146408   2.726   1.437  11.753 -0.3528  1.3395 -0.1435
 8331TIP3    H246409   2.607   1.346  11.778  0.3266  0.6626  0.6629
 8332TIP3   OH246410   1.867   1.990   5.347 -0.5758 -0.5142 -1.0363
 8332TIP3    H146411   1.806   1.938   5.294 -1.2696 -0.6374 -0.1115
 8332TIP3    H246412   1.813   2.055   5.390  0.0438 -0.1721 -0.7663
 8333TIP3   OH246413   2.996   4.123   1.529 -0.5080  0.2829 -0.4083
 8333TIP3    H146414   3.068   4.078   1.574  0.1534  1.3391 -0.3799
 8333TIP3    H246415   2.994   4.084   1.442 -0.6669 -0.5702 -0.0292
 8334TIP3   OH246416   2.504   1.563   0.179 -0.4230 -0.6080 -0.2440
 8334TIP3    H146417   2.522   1.654   0.158  1.0678 -0.5386  1.2195
 8334TIP3    H246418   2.530   1.554   0.271  2.2297 -3.2063 -1.1660
 8335TIP3   OH246419   1.219   6.109   0.746  0.0504  0.3383  0.0140
 8335TIP3    H146420   1.189   6.135   0.659 -0.7390 -1.4183 -0.2675
 8335TIP3    H246421   1.139   6.089   0.794  0.5299  0.4373  0.8660
 8336TIP3   OH246422   1.868   1.381  11.915  0.2048 -0.4274  0.0274
 8336TIP3    H146423   1.911   1.451  11.964 -0.5623  1.3699 -1.7962
 8336TIP3    H246424   1.891   1.398  11.824 -1.6356 -1.3893 -0.6314
 8337TIP3   OH246425   6.770   1.558  14.393  0.0334 -0.0308  0.7321
 8337TIP3    H146426   6.848   1.607  14.364  0.0858  0.2861  1.3936
 8337TIP3    H246427   6.704   1.578  14.327  0.3123  0.2468  0.5327
 8338TIP3   OH246428   6.258   5.089  12.432 -0.2947  0.6331 -0.4855
 8338TIP3    H146429   6.299   5.171  12.402 -0.6013  1.1566  0.5163
 8338TIP3    H246430   6.330   5.026  12.433 -0.0926  0.8382 -1.4449
 8339TIP3   OH246431   0.727   1.529  13.722 -0.1698  0.6517  1.0937
 8339TIP3    H146432   0.659   1.508  13.785  0.8702 -1.5474  1.5378
 8339TIP3    H246433   0.682   1.530  13.637 -0.3112 -3.6555  1.0365
 8340TIP3   OH246434   1.748   6.656   2.200 -0.2913  0.0703  0.0903
 8340TIP3    H146435   1.695   6.701   2.266  0.6755  1.0777  0.1957
 8340TIP3    H246436   1.835   6.649   2.239  0.0075 -0.3460 -0.6271
 8341TIP3   OH246437   0.722   0.580   2.119 -0.2721  0.1371 -0.0065
 8341TIP3    H146438   0.722   0.582   2.024 -0.7529  0.5736  0.0020
 8341TIP3    H246439   0.668   0.655   2.145 -0.2652 -0.0661  0.6038
 8342TIP3   OH246440   6.418   1.554  16.142  0.6824 -0.1661  0.0422
 8342TIP3    H146441   6.353   1.508  16.089  1.1059 -0.8971  0.1520
 8342TIP3    H246442   6.379   1.640  16.160  0.0090 -0.3837 -0.3968
 8343TIP3   OH246443   6.108   0.306  15.507  0.1517  0.3889 -0.2953
 8343TIP3    H146444   6.167   0.306  15.583  1.0903 -0.2597 -1.0132
 8343TIP3    H246445   6.022   0.288  15.544  0.2982  1.8957  0.8337
 8344TIP3   OH246446   3.501   1.130   6.138  0.0682 -0.1737 -0.5468
 8344TIP3    H146447   3.414   1.093   6.145 -0.3298  0.9970  1.2534
 8344TIP3    H246448   3.529   1.111   6.049 -2.1850 -0.2055 -1.2671
 8345TIP3   OH246449   5.149   3.209   1.504 -0.4907  0.2551 -0.4094
 8345TIP3    H146450   5.068   3.194   1.553 -0.0237  1.0120  0.6249
 8345TIP3    H246451   5.152   3.303   1.491 -0.4093  0.1017 -1.5837
 8346TIP3   OH246452   4.923   3.814   0.666 -0.4795 -0.1836  0.1150
 8346TIP3    H146453   4.879   3.881   0.718  2.4255 -0.5501  3.1824
 8346TIP3    H246454   4.994   3.783   0.721  2.1811 -1.3122 -3.7274
 8347TIP3   OH246455   1.473   2.277   2.668  0.3073 -0.1305  0.0559
 8347TIP3    H146456   1.386   2.292   2.631  0.3877  3.5496  1.1935
 8347TIP3    H246457   1.533   2.317   2.605  0.8315  1.2333  1.3911
 8348TIP3   OH246458   3.862   0.523  14.753  0.3807 -0.0367 -0.7563
 8348TIP3    H146459   3.807   0.598  14.775 -0.3073 -0.9644  0.7497
 8348TIP3    H246460   3.896   0.492  14.837 -0.4927 -2.2753 -1.1956
 8349TIP3   OH246461   1.958   6.133  14.348  0.2638 -0.3119 -0.5205
 8349TIP3    H146462   2.036   6.081  14.330  1.3928  1.8061 -2.0051
 8349TIP3    H246463   1.991   6.214  14.386 -1.4285 -0.4407  1.3202
 8350TIP3   OH246464   4.871   4.952   0.039 -0.8071 -0.5201 -0.2878
 8350TIP3    H146465   4.870   4.938  -0.055  1.8399  0.8709 -0.5795
 8350TIP3    H246466   4.872   4.865   0.078  0.2538 -1.1029 -1.6146
 8351TIP3   OH246467   6.060   2.727   2.189  0.2744  0.4458 -0.5789
 8351TIP3    H146468   6.025   2.638   2.198  0.2991  0.5573  0.8441
 8351TIP3    H246469   6.069   2.740   2.095 -1.2397 -0.4800 -0.8831
 8352TIP3   OH246470   6.163   5.739  11.385  0.2438  0.5350  0.9008
 8352TIP3    H146471   6.139   5.749  11.293 -0.6770 -0.6547  1.0024
 8352TIP3    H246472   6.192   5.649  11.393  0.7929  0.7725  1.6854
 8353TIP3   OH246473   3.751   4.304  13.435  0.5990  0.6293 -0.0969
 8353TIP3    H146474   3.781   4.326  13.523 -1.4062  0.7171  0.5927
 8353TIP3    H246475   3.667   4.261  13.448 -0.3602  1.8227 -2.0444
 8354TIP3   OH246476   0.347   0.582   0.752 -0.2271  0.1982  0.8731
 8354TIP3    H146477   0.417   0.619   0.806  1.3396 -1.5759  0.1356
 8354TIP3    H246478   0.342   0.491   0.778 -0.6927 -0.2463 -0.6843
 8355TIP3   OH246479   6.754   5.732   3.609 -0.4532 -0.1483 -0.2058
 8355TIP3    H146480   6.738   5.696   3.696 -0.1928 -1.5429 -0.7129
 8355TIP3    H246481   6.847   5.718   3.593 -0.4300  0.3911 -0.5809
 8356TIP3   OH246482   4.803   3.750   6.098  0.0840  0.1120  0.1641
 8356TIP3    H146483   4.823   3.665   6.058  0.5485 -0.8523  2.4064
 8356TIP3    H246484   4.746   3.730   6.171  1.2185  1.6011  1.5022
 8357TIP3   OH246485   1.755   5.615  16.985 -0.2380 -0.3537  0.0389
 8357TIP3    H146486   1.809   5.681  17.029  0.2852 -1.3043  0.8488
 8357TIP3    H246487   1.690   5.666  16.936  2.2444  0.8512 -2.0833
 8358TIP3   OH246488   1.432   6.543  12.433 -0.1387 -0.2128 -0.6170
 8358TIP3    H146489   1.401   6.487  12.362  0.6133 -1.6848  0.1908
 8358TIP3    H246490   1.414   6.632  12.403  1.0414 -0.7692 -3.0517
 8359TIP3   OH246491   6.400   0.994  11.904 -0.6641  0.5828 -0.1329
 8359TIP3    H146492   6.355   0.951  11.977 -1.1851  0.4300 -0.5499
 8359TIP3    H246493   6.467   0.931  11.877 -2.0044 -0.3495 -1.3307
 8360TIP3   OH246494   1.415   0.324  13.664 -0.8275 -0.5361  0.1810
 8360TIP3    H146495   1.401   0.411  13.703 -1.6023 -0.2508 -0.7198
 8360TIP3    H246496   1.481   0.283  13.721  1.0404  1.3905 -0.5043
 8361TIP3   OH246497   1.767   3.041  11.567  0.0617  0.1077  0.1892
 8361TIP3    H146498   1.780   3.114  11.506  1.0345  1.6709  2.2017
 8361TIP3    H246499   1.856   3.012  11.588 -0.2751 -0.5443  0.7069
 8362TIP3   OH246500   4.083   0.701  14.637  0.4336 -0.1330 -0.0995
 8362TIP3    H146501   4.120   0.780  14.676  1.0809 -0.6794  0.3999
 8362TIP3    H246502   4.073   0.641  14.710 -0.1883 -0.4688 -0.4567
 8363TIP3   OH246503   5.550   0.387   5.974  0.0390 -0.1854  0.2191
 8363TIP3    H146504   5.580   0.318   6.034 -1.0630 -1.1005 -0.2808
 8363TIP3    H246505   5.478   0.347   5.925  0.5559  0.7446 -1.3250
 8364TIP3   OH246506   4.816   4.424   4.385  0.3203 -0.3912  0.2801
 8364TIP3    H146507   4.802   4.367   4.310 -1.3500 -0.6884  0.7949
 8364TIP3    H246508   4.860   4.369   4.449 -1.2523 -1.1216  0.7612
 8365TIP3   OH246509   2.742   6.659   0.358 -0.8773  0.0622  0.3685
 8365TIP3    H146510   2.716   6.741   0.400  1.5818  0.1212  1.8239
 8365TIP3    H246511   2.795   6.686   0.283  0.6737 -0.1842  1.3558
 8366TIP3   OH246512   1.060   3.683  12.478  0.7531  0.1207  0.1536
 8366TIP3    H146513   0.977   3.728  12.460  1.1300  1.1692  0.9762
 8366TIP3    H246514   1.056   3.604  12.425 -1.9534 -1.2070  2.1954
 8367TIP3   OH246515   4.652   6.112  12.658  0.2148 -0.3969  0.1206
 8367TIP3    H146516   4.711   6.039  12.676  1.5267  0.7353  0.4976
 8367TIP3    H246517   4.630   6.147  12.744  1.7070  1.2741 -0.1355
 8368TIP3   OH246518   2.710   2.195  12.386  0.4839 -0.3550  0.6648
 8368TIP3    H146519   2.765   2.193  12.308  0.0311 -0.8738  0.3490
 8368TIP3    H246520   2.742   2.269  12.437  0.3303  0.4240 -0.3513
 8369TIP3   OH246521   3.865   1.860   3.065  0.5437 -0.7888 -0.0213
 8369TIP3    H146522   3.871   1.861   2.969 -0.6977  1.2507 -0.1058
 8369TIP3    H246523   3.909   1.940   3.092  0.4521 -1.1098  1.0935
 8370TIP3   OH246524   6.098   2.441  13.121  0.2174  0.3341  0.0261
 8370TIP3    H146525   6.015   2.466  13.162  0.7081 -0.8275  1.8032
 8370TIP3    H246526   6.165   2.468  13.185  1.0842 -0.3571 -0.5731
 8371TIP3   OH246527   1.790   5.755   0.380 -0.4696  0.4406 -0.0319
 8371TIP3    H146528   1.764   5.757   0.287 -1.7090  0.5184  0.3044
 8371TIP3    H246529   1.721   5.806   0.424 -0.2509 -0.1816  1.0179
 8372TIP3   OH246530   2.233   4.428   2.435 -0.2642  0.1795 -0.4967
 8372TIP3    H146531   2.327   4.429   2.455 -0.6141 -0.6744  1.2081
 8372TIP3    H246532   2.202   4.514   2.462 -0.2834 -0.1242  0.4557
 8373TIP3   OH246533   0.112   5.609  11.281 -0.6331  0.9239 -0.3096
 8373TIP3    H146534   0.100   5.524  11.323 -0.4976 -0.6453 -3.3059
 8373TIP3    H246535   0.201   5.635  11.306 -0.3156 -0.2682 -0.1373
 8374TIP3   OH246536   2.986   6.062   5.823  0.6587  0.1147  0.0247
 8374TIP3    H146537   3.058   6.046   5.884  1.5414 -0.1090 -1.0488
 8374TIP3    H246538   3.022   6.125   5.760 -0.2356  0.3456 -0.2559
 8375TIP3   OH246539   1.891   6.765  13.031  0.4274 -0.1482 -0.1431
 8375TIP3    H146540   1.954   6.815  12.980  0.0106 -0.7474 -1.2567
 8375TIP3    H246541   1.814   6.759  12.975  0.5042 -2.1026 -0.0855
 8376TIP3   OH246542   4.349   3.740   5.819 -0.0855  0.2424  0.4483
 8376TIP3    H146543   4.353   3.836   5.818 -1.2580  0.2945 -0.4261
 8376TIP3    H246544   4.300   3.719   5.898 -0.1666  0.3828  0.4367
 8377TIP3   OH246545   0.862   1.335   4.082  0.7100 -0.8122 -0.4129
 8377TIP3    H146546   0.923   1.409   4.077  0.7244 -0.8527 -0.9038
 8377TIP3    H246547   0.904   1.267   4.029  1.0776 -1.4525  0.6943
 8378TIP3   OH246548   1.235   0.297  11.785 -0.5578 -0.6058  0.4301
 8378TIP3    H146549   1.203   0.356  11.853  0.5924  1.3120 -0.6101
 8378TIP3    H246550   1.330   0.293  11.800 -0.3904 -0.7054 -0.6234
 8379TIP3   OH246551   4.465   6.346  15.086  0.1608  0.5543 -0.7680
 8379TIP3    H146552   4.496   6.353  14.996  1.7050 -1.9908 -0.5027
 8379TIP3    H246553   4.536   6.383  15.139 -0.4241  1.3808 -0.5589
 8380TIP3   OH246554   3.649   4.511  11.844  0.1417  0.0858  0.6128
 8380TIP3    H146555   3.557   4.534  11.831  0.0263 -0.9884 -0.5618
 8380TIP3    H246556   3.693   4.595  11.859 -0.6036  0.8961 -1.5592
 8381TIP3   OH246557   1.870   2.912  15.933 -0.0131 -0.4329  0.4940
 8381TIP3    H146558   1.886   2.819  15.951 -0.3453 -0.7517 -0.7923
 8381TIP3    H246559   1.780   2.915  15.901 -0.6361  0.5857  2.2901
 8382TIP3   OH246560   2.707   5.019   3.288 -0.1940 -0.3866 -0.2720
 8382TIP3    H146561   2.675   4.943   3.239 -1.2611  0.5614 -1.0454
 8382TIP3    H246562   2.632   5.047   3.340  0.2758 -0.0023  0.2017
 8383TIP3   OH246563   4.165   3.061  13.930  0.1872  0.4036 -0.6287
 8383TIP3    H146564   4.195   2.981  13.973  1.9976  0.4276 -1.8030
 8383TIP3    H246565   4.069   3.056  13.935  0.3026 -1.2869  0.2845
 8384TIP3   OH246566   5.315   5.090   0.168 -0.1673 -0.0162  0.8782
 8384TIP3    H146567   5.264   5.140   0.233  1.0414  1.7266  0.5006
 8384TIP3    H246568   5.387   5.052   0.218  0.0793  0.3275  0.7863
 8385TIP3   OH246569   5.989   2.121   0.799 -0.2926  0.7640  0.1243
 8385TIP3    H146570   6.074   2.165   0.797  0.2092 -0.1007  1.5074
 8385TIP3    H246571   6.011   2.028   0.800 -1.3037  0.5026 -0.9808
 8386TIP3   OH246572   6.010   6.239  13.367 -0.6453 -0.7241 -0.5161
 8386TIP3    H146573   5.998   6.264  13.458 -0.0009  1.4548 -1.0039
 8386TIP3    H246574   5.937   6.181  13.347 -2.7754  1.5859  0.3755
 8387TIP3   OH246575   2.491   6.593   5.529  0.3916 -0.0442 -0.2364
 8387TIP3    H146576   2.551   6.525   5.561 -2.4720 -2.3992  0.3257
 8387TIP3    H246577   2.487   6.656   5.601  0.4523 -1.0485  0.6672
 8388TIP3   OH246578   2.526   4.090  13.118  0.2705  0.2206 -0.0437
 8388TIP3    H146579   2.482   4.017  13.162 -0.0416  0.3519 -0.1339
 8388TIP3    H246580   2.508   4.165  13.174 -1.4070  0.6846 -1.1631
 8389TIP3   OH246581   0.350   6.417   4.780 -0.0527  0.7664  0.3855
 8389TIP3    H146582   0.343   6.390   4.688 -2.9998 -0.1226  0.8367
 8389TIP3    H246583   0.376   6.338   4.826  0.7705  1.0560  0.4322
 8390TIP3   OH246584   3.351   6.653   6.175 -0.1292  0.1155 -0.3025
 8390TIP3    H146585   3.300   6.723   6.133  0.9507  0.5442 -0.9105
 8390TIP3    H246586   3.401   6.698   6.243 -0.3653 -0.2703  0.1292
 8391TIP3   OH246587   0.771   0.236  14.329 -0.4062  0.2227  0.1326
 8391TIP3    H146588   0.846   0.227  14.271 -0.0721 -1.1566  0.7565
 8391TIP3    H246589   0.741   0.146  14.345 -2.0224  0.7392  0.1086
 8392TIP3   OH246590   0.006   2.064  15.386  0.1082  0.5066 -0.1773
 8392TIP3    H146591  -0.042   2.118  15.323 -0.0186 -0.9356 -1.3440
 8392TIP3    H246592   0.089   2.110  15.397 -0.3702  1.4462 -0.4202
 8393TIP3   OH246593   2.395   1.294   1.913  0.0951  0.2576 -0.0947
 8393TIP3    H146594   2.423   1.383   1.934  0.5674 -0.1872  1.2130
 8393TIP3    H246595   2.301   1.301   1.898  0.3361  1.1890 -1.2533
 8394TIP3   OH246596   6.358   6.602  12.765  0.3295  0.4503 -0.1799
 8394TIP3    H146597   6.388   6.531  12.821  0.1017  1.6073  1.4349
 8394TIP3    H246598   6.268   6.617  12.790 -0.7266 -0.9462 -2.9050
 8395TIP3   OH246599   4.086   1.610  15.045 -0.3240 -0.0469  0.3111
 8395TIP3    H146600   4.011   1.663  15.017 -1.0809 -1.5781 -0.6445
 8395TIP3    H246601   4.051   1.558  15.118 -0.1616 -0.6928 -0.0712
 8396TIP3   OH246602   2.944   3.562   0.917 -0.0088 -0.3813  0.5723
 8396TIP3    H146603   2.893   3.518   0.850  1.9210  1.0872 -1.9597
 8396TIP3    H246604   2.951   3.653   0.886  1.4319  0.1833  2.4456
 8397TIP3   OH246605   5.294   0.578  16.968 -0.5480 -0.1468  0.0640
 8397TIP3    H146606   5.384   0.546  16.975 -0.7498 -1.1084 -1.4539
 8397TIP3    H246607   5.240   0.499  16.977 -1.3036  0.5881  2.1996
 8398TIP3   OH246608   1.978   5.650  15.385 -0.9296 -0.0849 -0.6611
 8398TIP3    H146609   2.074   5.646  15.394 -1.0155  1.3326  1.0610
 8398TIP3    H246610   1.946   5.585  15.448 -1.1485  1.1435  0.5280
 8399TIP3   OH246611   2.374   1.113  15.079 -0.3698  0.0260  0.0247
 8399TIP3    H146612   2.448   1.052  15.069  0.2000  0.4307  1.6107
 8399TIP3    H246613   2.395   1.185  15.019 -0.0708 -0.4092 -0.4069
 8400TIP3   OH246614   3.557   6.678  14.283  0.5518  0.4033  0.2104
 8400TIP3    H146615   3.587   6.690  14.193  1.2064 -1.2870  0.1907
 8400TIP3    H246616   3.470   6.638  14.274  0.2304  1.0616  0.3323
 8401TIP3   OH246617   2.672   5.836  12.731  0.1254  0.0474  0.4106
 8401TIP3    H146618   2.682   5.777  12.805 -0.8398 -1.4514 -0.6249
 8401TIP3    H246619   2.735   5.906  12.748 -0.1291 -0.2304  2.6549
 8402TIP3   OH246620   1.902   6.759  13.625 -0.0364 -0.3560 -0.1457
 8402TIP3    H146621   1.874   6.677  13.666  3.6695 -1.4350  0.5055
 8402TIP3    H246622   1.944   6.808  13.696 -0.4792  1.2282 -0.9674
 8403TIP3   OH246623   2.012   5.516   4.296  0.8491  0.3213  0.5067
 8403TIP3    H146624   1.996   5.471   4.213 -1.0577  1.2298  0.3483
 8403TIP3    H246625   2.068   5.590   4.273  0.6790  0.3256  0.1028
 8404TIP3   OH246626   0.859   1.528   2.224 -0.4031  0.0634 -0.0171
 8404TIP3    H146627   0.904   1.478   2.155 -0.4325  1.7874 -1.3201
 8404TIP3    H246628   0.850   1.466   2.296  1.9270 -1.0326 -0.6141
 8405TIP3   OH246629   3.884   4.909  12.419  0.1811  0.0157 -0.5195
 8405TIP3    H146630   3.791   4.925  12.435  0.1949 -0.1009 -0.3223
 8405TIP3    H246631   3.888   4.877  12.328  0.1940  1.4677 -1.0438
 8406TIP3   OH246632   6.037   2.629  10.525  0.0912 -0.5777 -0.2162
 8406TIP3    H146633   6.111   2.653  10.470 -0.5111  1.1115 -0.3166
 8406TIP3    H246634   5.977   2.704  10.520 -0.6100 -0.9665  1.6355
 8407TIP3   OH246635   2.687   1.330   1.301  0.2428  0.3931  0.0127
 8407TIP3    H146636   2.721   1.377   1.225  1.1081  0.9369  0.7419
 8407TIP3    H246637   2.737   1.248   1.303 -1.6367 -0.8723 -1.5833
 8408TIP3   OH246638   6.323   4.651  12.164  0.8822 -0.1703 -0.3635
 8408TIP3    H146639   6.290   4.579  12.219  1.6698 -0.3497 -0.1202
 8408TIP3    H246640   6.244   4.697  12.136  0.4443 -0.3392  0.5656
 8409TIP3   OH246641   1.319   3.957  11.799  0.5542 -0.1542 -0.4627
 8409TIP3    H146642   1.254   3.905  11.753 -0.5660  1.2293 -0.4891
 8409TIP3    H246643   1.268   4.026  11.842  1.9685  0.7610 -0.2328
 8410TIP3   OH246644   0.682   5.308   2.800 -0.2832 -0.0519  0.3636
 8410TIP3    H146645   0.639   5.372   2.743 -0.3838 -1.2615 -0.9436
 8410TIP3    H246646   0.613   5.276   2.858 -0.0814  1.5250  1.5096
 8411TIP3   OH246647   1.533   1.202  16.924  0.1279 -0.1777  0.3976
 8411TIP3    H146648   1.527   1.209  16.829 -0.5940 -1.0288  0.3708
 8411TIP3    H246649   1.454   1.154  16.949  0.4987 -0.2855  1.3887
 8412TIP3   OH246650   2.675   2.765   0.321  0.2624  0.3721  0.3728
 8412TIP3    H146651   2.704   2.675   0.307  1.2380  0.5840  0.9663
 8412TIP3    H246652   2.626   2.787   0.241  1.0933 -0.2577 -0.3269
 8413TIP3   OH246653   0.966   5.910  10.527  0.0507  0.5180 -0.2643
 8413TIP3    H146654   1.010   5.893  10.444  0.0063  0.4011 -0.2636
 8413TIP3    H246655   1.024   5.872  10.593 -0.3397 -0.1661 -0.3072
 8414TIP3   OH246656   6.680   6.025  12.743 -0.3367  0.3630  0.6702
 8414TIP3    H146657   6.698   6.119  12.736  2.2477 -0.1938 -0.5690
 8414TIP3    H246658   6.657   6.013  12.835 -0.1033  2.1076  0.9895
 8415TIP3   OH246659   2.731   0.618  15.045  0.1807  0.4335 -0.2356
 8415TIP3    H146660   2.746   0.598  15.137  0.1274  1.4394 -0.0119
 8415TIP3    H246661   2.643   0.585  15.027  0.4736 -0.4244 -0.1230
 8416TIP3   OH246662   4.457   4.805   3.751 -0.6870 -0.1400  0.3513
 8416TIP3    H146663   4.404   4.819   3.673 -0.5637 -0.0713  0.2793
 8416TIP3    H246664   4.442   4.713   3.774  0.9202 -0.7606 -0.9926
 8417TIP3   OH246665   2.917   2.552  16.938 -0.4564 -0.0449 -0.3039
 8417TIP3    H146666   2.876   2.612  16.876 -0.5524 -0.2978 -0.4824
 8417TIP3    H246667   2.882   2.466  16.915  0.1691 -0.2572 -0.4491
 8418TIP3   OH246668   2.579   1.733  12.957  0.5548  0.2103 -0.1012
 8418TIP3    H146669   2.628   1.676  12.898 -0.3169  0.3715 -1.0053
 8418TIP3    H246670   2.642   1.798  12.986  1.7742 -1.6811  1.6054
 8419TIP3   OH246671   5.043   0.806  14.412 -0.0319  0.0967  0.1775
 8419TIP3    H146672   4.991   0.840  14.485  0.0723  1.4517 -0.3647
 8419TIP3    H246673   5.121   0.770  14.452  1.5662  3.7347  0.5338
 8420TIP3   OH246674   1.074   2.186  11.934 -0.7213 -0.4785 -0.0166
 8420TIP3    H146675   0.995   2.234  11.960 -0.3063  0.2964 -0.1749
 8420TIP3    H246676   1.114   2.241  11.866 -0.7826 -1.5413 -0.9388
 8421TIP3   OH246677   2.358   2.914   4.798 -0.1775 -0.3345  0.4076
 8421TIP3    H146678   2.397   2.850   4.858  0.0388 -0.3741  0.2234
 8421TIP3    H246679   2.327   2.861   4.724  1.3839 -0.0506 -0.4654
 8422TIP3   OH246680   0.115   1.562  11.584  0.2437  0.6014  0.2039
 8422TIP3    H146681   0.095   1.553  11.491 -0.9747 -0.8550  0.5793
 8422TIP3    H246682   0.155   1.649  11.592  1.5911  0.2015 -1.8669
 8423TIP3   OH246683   1.645   5.468   2.214 -0.5056  0.1158  0.2513
 8423TIP3    H146684   1.620   5.435   2.128 -1.3250 -0.4427  0.6924
 8423TIP3    H246685   1.696   5.397   2.253  1.1885  0.9804 -0.3733
 8424TIP3   OH246686   3.217   2.716  11.879  0.4899  0.1058  0.5606
 8424TIP3    H146687   3.264   2.799  11.883 -0.8740  0.9717 -0.8294
 8424TIP3    H246688   3.260   2.667  11.809  0.9820 -0.1751  1.0523
 8425TIP3   OH246689   0.259   4.312   5.342 -0.4223  0.6983  0.5352
 8425TIP3    H146690   0.194   4.255   5.382  0.5489 -0.4983  0.4432
 8425TIP3    H246691   0.340   4.295   5.391  0.3149  0.6363 -0.6765
 8426TIP3   OH246692   0.442   4.655  12.424  0.2378  0.3599  0.0867
 8426TIP3    H146693   0.461   4.697  12.508  0.8477 -0.2271  0.2481
 8426TIP3    H246694   0.526   4.620  12.395 -0.3786 -1.4056  0.3382
 8427TIP3   OH246695   3.495   5.481  15.912 -0.1630  0.3597 -0.2318
 8427TIP3    H146696   3.492   5.560  15.858 -2.5435  1.6267  1.6950
 8427TIP3    H246697   3.556   5.502  15.983  0.8039 -0.3260 -0.8276
 8428TIP3   OH246698   0.794   1.343   6.448 -0.2194 -0.9562  0.5554
 8428TIP3    H146699   0.723   1.399   6.418  0.1408 -0.7901  0.0151
 8428TIP3    H246700   0.823   1.295   6.370 -0.5289 -1.9006  1.0062
 8429TIP3   OH246701   2.354   1.231  13.459  0.1495  0.0828 -0.1464
 8429TIP3    H146702   2.435   1.194  13.494 -0.2698  0.7536  1.6067
 8429TIP3    H246703   2.382   1.300  13.399  0.8891  0.6082  0.7843
 8430TIP3   OH246704   0.410   0.403  14.932 -0.2529  0.0147  0.6561
 8430TIP3    H146705   0.483   0.424  14.873  0.3104  1.3151  1.7905
 8430TIP3    H246706   0.440   0.432  15.018 -0.7387 -2.6289  1.7593
 8431TIP3   OH246707   3.617   4.066   0.981 -0.2847 -0.3306  0.5586
 8431TIP3    H146708   3.660   4.015   0.912 -0.7842  1.0336 -0.7985
 8431TIP3    H246709   3.532   4.023   0.993  0.2783 -1.2841  1.1783
 8432TIP3   OH246710   3.402   1.059   2.520 -0.4633 -0.2575 -0.0511
 8432TIP3    H146711   3.338   1.120   2.482  1.2153  2.0653  0.7741
 8432TIP3    H246712   3.395   1.073   2.614 -0.6536 -1.9977  0.2097
 8433TIP3   OH246713   6.437   3.600   0.425 -0.5717 -0.0568 -0.2878
 8433TIP3    H146714   6.378   3.623   0.497 -1.6989 -0.4292 -1.0876
 8433TIP3    H246715   6.500   3.672   0.422 -0.2848 -0.2227  1.3109
 8434TIP3   OH246716   5.140   6.618  11.752  0.0067  0.9294 -0.2284
 8434TIP3    H146717   5.182   6.680  11.811  1.2322  0.5668 -0.6939
 8434TIP3    H246718   5.209   6.593  11.690 -0.4912 -0.7757 -0.1362
 8435TIP3   OH246719   5.538   1.998  16.735 -0.0875  0.7703 -0.4080
 8435TIP3    H146720   5.471   1.941  16.773  1.3959 -0.8935 -0.2659
 8435TIP3    H246721   5.502   2.023  16.650 -0.1324 -1.5544 -1.1036
 8436TIP3   OH246722   6.347   1.516  16.503 -0.5433  0.0457 -0.2390
 8436TIP3    H146723   6.431   1.559  16.487 -0.0472 -0.9248 -0.2531
 8436TIP3    H246724   6.332   1.462  16.426 -1.3836  0.5408 -0.4239
 8437TIP3   OH246725   0.902   5.928   0.102 -0.2370  0.3819 -0.8201
 8437TIP3    H146726   0.960   5.992   0.143 -0.6832  1.0109 -1.1772
 8437TIP3    H246727   0.961   5.875   0.048  0.4189 -0.7073  0.9105
 8438TIP3   OH246728   1.146   2.870  12.832  0.3768  0.1561 -0.0482
 8438TIP3    H146729   1.208   2.797  12.843 -0.2452 -0.3188  0.4112
 8438TIP3    H246730   1.063   2.834  12.862  0.0263  1.0127  0.0113
 8439TIP3   OH246731   6.751   5.778   4.117  0.1740  0.2352 -0.0123
 8439TIP3    H146732   6.799   5.784   4.034 -1.1991  1.7463 -0.7345
 8439TIP3    H246733   6.662   5.804   4.094 -0.4380 -0.2828  1.7633
 8440TIP3   OH246734   3.833   1.269   1.924  0.2277 -0.4032 -0.2854
 8440TIP3    H146735   3.864   1.282   1.834  0.2067 -1.8146 -0.5092
 8440TIP3    H246736   3.745   1.306   1.924  0.8050  1.0051 -0.4263
 8441TIP3   OH246737   4.168   4.905   3.180 -0.0586 -0.6416 -0.1188
 8441TIP3    H146738   4.096   4.878   3.238 -1.5878  2.0038 -0.7066
 8441TIP3    H246739   4.124   4.944   3.104  1.9841  1.9483 -0.0512
 8442TIP3   OH246740   1.157   5.889  16.468  0.4095  0.3294  0.7363
 8442TIP3    H146741   1.217   5.892  16.543  0.4087 -0.7859  0.7832
 8442TIP3    H246742   1.191   5.818  16.413 -0.3539  0.2833  0.3206
 8443TIP3   OH246743   4.117   5.216   4.055  0.1784  0.3003  0.2500
 8443TIP3    H146744   4.035   5.254   4.025  0.2817  0.3413  0.0190
 8443TIP3    H246745   4.127   5.247   4.145 -0.7139 -0.7748  0.7194
 8444TIP3   OH246746   0.074   1.119  15.143  0.0901 -0.8956 -0.0632
 8444TIP3    H146747   0.093   1.132  15.050 -2.2770  1.0088 -0.3180
 8444TIP3    H246748   0.151   1.153  15.188 -0.2185  1.4428 -1.2307
 8445TIP3   OH246749   3.928   3.042  10.654 -0.1302  0.4400 -0.3363
 8445TIP3    H146750   3.882   3.087  10.725 -0.1561 -0.9331  0.5428
 8445TIP3    H246751   3.889   3.076  10.574 -3.1829 -1.1820  0.4085
 8446TIP3   OH246752   6.407   4.413   5.109  0.0297  0.0690  0.1450
 8446TIP3    H146753   6.399   4.354   5.184 -1.9153 -1.9600 -1.5874
 8446TIP3    H246754   6.501   4.420   5.094  0.4632  0.4985  2.7222
 8447TIP3   OH246755   5.270   0.414   1.645 -0.5616  0.0065  0.6100
 8447TIP3    H146756   5.219   0.491   1.670 -1.1654 -0.5873  1.2357
 8447TIP3    H246757   5.207   0.342   1.644 -0.4481 -0.0990 -2.1756
 8448TIP3   OH246758   5.604   5.605  17.019 -0.8118  0.3675 -0.0123
 8448TIP3    H146759   5.678   5.582  17.076  1.0447  0.8368 -2.2013
 8448TIP3    H246760   5.574   5.689  17.053 -1.3775 -0.5505  1.8656
 8449TIP3   OH246761   1.900   0.577   1.359  0.2362 -0.3987  0.0961
 8449TIP3    H146762   1.885   0.485   1.380 -0.6510 -0.1936  0.3917
 8449TIP3    H246763   1.876   0.624   1.439  0.5148  0.1026 -0.1141
 8450TIP3   OH246764   6.520   0.045   4.337  0.0955  0.8396 -0.2668
 8450TIP3    H146765   6.478  -0.038   4.360  0.2129  0.5980 -0.9014
 8450TIP3    H246766   6.612   0.034   4.363  0.0547  0.8644 -0.1163
 8451TIP3   OH246767   0.339   6.638  13.411 -0.1378  0.2818 -0.7246
 8451TIP3    H146768   0.261   6.678  13.450 -0.2367  0.2345 -0.8748
 8451TIP3    H246769   0.305   6.565  13.359  0.1498 -0.9035  0.7107
 8452TIP3   OH246770   5.076   5.293  13.303 -0.2154  0.2040 -0.1075
 8452TIP3    H146771   5.154   5.342  13.330  0.5915  0.7421 -3.2774
 8452TIP3    H246772   5.003   5.351  13.326  0.3379  0.1353  1.9438
 8453TIP3   OH246773   5.662   1.367  11.843  0.0582  0.4286 -0.3238
 8453TIP3    H146774   5.680   1.377  11.750  0.6851  2.4564  0.0078
 8453TIP3    H246775   5.634   1.453  11.872 -0.1404 -0.1868  1.3735
 8454TIP3   OH246776   4.771   0.693  13.337  0.4423 -0.1312  0.9338
 8454TIP3    H146777   4.676   0.680  13.329  0.2686  1.1807  0.6403
 8454TIP3    H246778   4.809   0.617  13.294 -0.4908 -0.0104 -0.1493
 8455TIP3   OH246779   0.986   3.985   4.848 -0.1090  0.4781 -0.2398
 8455TIP3    H146780   0.993   3.905   4.900 -0.3207  0.3533 -0.4033
 8455TIP3    H246781   1.007   4.056   4.909  0.8054  0.2466 -0.2738
 8456TIP3   OH246782   2.932   4.063   1.274  0.0862 -0.5108  0.1477
 8456TIP3    H146783   2.868   4.125   1.241  1.0519 -0.4863 -1.7391
 8456TIP3    H246784   2.883   3.982   1.287 -0.0857 -0.8573 -2.5188
 8457TIP3   OH246785   0.064   5.329   5.280 -0.0183  0.1691 -0.0466
 8457TIP3    H146786  -0.026   5.356   5.300  0.1381 -0.2274  1.2347
 8457TIP3    H246787   0.118   5.382   5.339  0.5270 -0.2858 -0.1401
 8458TIP3   OH246788   5.871   3.409   4.900  0.0236  0.7983  0.0845
 8458TIP3    H146789   5.809   3.478   4.923 -1.0486 -0.7612  2.1294
 8458TIP3    H246790   5.816   3.337   4.868  0.9732  0.2562 -0.3619
 8459TIP3   OH246791   5.848   4.865   3.984  0.1334 -0.2903 -0.0100
 8459TIP3    H146792   5.753   4.880   3.986  0.1891 -0.0398  1.0791
 8459TIP3    H246793   5.883   4.924   4.051  0.8908 -1.5328  0.7034
 8460TIP3   OH246794   2.480   2.380  14.098  0.0689  0.0288 -0.4536
 8460TIP3    H146795   2.486   2.427  14.182 -0.9007 -0.9060  0.1606
 8460TIP3    H246796   2.387   2.366  14.085  0.1791  0.7227 -2.0220
 8461TIP3   OH246797   3.083   3.493   2.015 -0.5024 -0.0497 -0.3198
 8461TIP3    H146798   3.122   3.462   2.096  1.3944  1.7238 -0.5162
 8461TIP3    H246799   3.098   3.588   2.016  0.5845 -0.1415 -3.2631
 8462TIP3   OH246800   0.855   3.044  15.237 -0.8708 -0.2920 -0.0411
 8462TIP3    H146801   0.923   3.016  15.175  0.4643 -2.1154  2.1562
 8462TIP3    H246802   0.890   3.125  15.275 -0.3049 -0.7609  0.4551
 8463TIP3   OH246803   3.468   3.969   4.628  0.1935 -0.4952 -0.3729
 8463TIP3    H146804   3.547   4.022   4.614 -0.0445  0.2952  1.1595
 8463TIP3    H246805   3.417   3.980   4.547  1.2772 -0.3663 -1.0474
 8464TIP3   OH246806   0.811   5.768  15.268 -0.4159  1.0612 -0.2534
 8464TIP3    H146807   0.718   5.771  15.292 -0.4843 -4.2202  0.7119
 8464TIP3    H246808   0.813   5.717  15.187  1.5859  2.1944 -0.9558
 8465TIP3   OH246809   6.324   6.345  16.907  0.6392 -0.0288  0.3172
 8465TIP3    H146810   6.270   6.391  16.843  0.5968 -0.2364  0.2042
 8465TIP3    H246811   6.326   6.404  16.983  0.4880  0.1066  0.2161
 8466TIP3   OH246812   4.129   6.773  12.240 -0.0348 -0.3696  0.2230
 8466TIP3    H146813   4.071   6.713  12.287 -1.0819 -0.1873 -0.8111
 8466TIP3    H246814   4.217   6.738  12.254 -0.6327 -2.1803 -0.3914
 8467TIP3   OH246815   1.386   3.704   1.607  0.0472  0.1023 -0.0340
 8467TIP3    H146816   1.378   3.717   1.701 -0.9245 -0.3935 -0.0396
 8467TIP3    H246817   1.365   3.790   1.569  1.2807  0.5245  0.2290
 8468TIP3   OH246818   6.137   2.487  11.001  0.3682 -0.2523  0.2660
 8468TIP3    H146819   6.135   2.476  10.906 -0.5074 -0.8163  0.3464
 8468TIP3    H246820   6.123   2.400  11.036 -0.2171  0.1007  0.9167
 8469TIP3   OH246821   1.649   3.287  14.400 -0.3176  0.6357 -0.3335
 8469TIP3    H146822   1.617   3.207  14.360  0.2628 -1.1722  2.6533
 8469TIP3    H246823   1.574   3.324  14.446 -0.7509  2.1949 -2.2356
 8470TIP3   OH246824   0.667   5.680   6.172 -0.2988  0.0837 -0.8459
 8470TIP3    H146825   0.661   5.645   6.261  1.1250  1.2732 -0.2729
 8470TIP3    H246826   0.610   5.757   6.173  0.0328  0.3276 -0.8531
 8471TIP3   OH246827   3.177   2.365  14.346 -0.0523  0.3966  0.1202
 8471TIP3    H146828   3.152   2.339  14.434  0.7275  1.0967  0.5475
 8471TIP3    H246829   3.095   2.368  14.297 -0.3618 -1.1406  0.5152
 8472TIP3   OH246830   1.698   2.645   0.774 -0.6198  0.5432  0.0713
 8472TIP3    H146831   1.659   2.593   0.844 -0.6300  2.3438  1.4445
 8472TIP3    H246832   1.790   2.654   0.798 -0.5324  0.8299 -0.3537
 8473TIP3   OH246833   2.589   1.194  17.194 -0.1673  0.1803  0.2531
 8473TIP3    H146834   2.536   1.273  17.181 -0.7103 -0.0891  0.8199
 8473TIP3    H246835   2.605   1.191  17.288 -1.5556 -1.2899  0.4611
 8474TIP3   OH246836   0.137   0.812   5.387  0.0980 -0.2369 -0.1407
 8474TIP3    H146837   0.219   0.762   5.392 -0.6121 -1.4514 -0.4451
 8474TIP3    H246838   0.130   0.837   5.295 -0.2833 -0.8255 -0.2700
 8475TIP3   OH246839   0.904   5.901  12.516 -0.3368 -0.2950  0.2882
 8475TIP3    H146840   0.953   5.890  12.435  0.6721  0.9236  0.7081
 8475TIP3    H246841   0.814   5.914  12.488 -0.1756 -0.9989 -0.5755
 8476TIP3   OH246842   0.853   2.999   4.039 -0.6737 -0.0793 -0.1591
 8476TIP3    H146843   0.796   2.960   4.106  0.2074 -0.6417  0.2634
 8476TIP3    H246844   0.936   3.014   4.083 -1.4653  3.8043  0.1313
 8477TIP3   OH246845   2.879   2.157   5.799  0.4424  0.2336 -0.2389
 8477TIP3    H146846   2.920   2.238   5.831 -0.2704  0.3298  0.4773
 8477TIP3    H246847   2.919   2.141   5.714  0.0436  1.7872 -0.7486
 8478TIP3   OH246848   1.787   1.710  12.020 -0.4446 -1.1764 -0.4131
 8478TIP3    H146849   1.758   1.802  12.016  3.1267  0.0229 -0.7889
 8478TIP3    H246850   1.796   1.684  11.928  4.3304  0.2015 -0.5290
 8479TIP3   OH246851   1.753   1.060  10.930  0.0333  0.1264  0.1291
 8479TIP3    H146852   1.803   1.016  10.861 -3.2070  0.0864 -2.3443
 8479TIP3    H246853   1.741   0.993  10.997  0.5800 -0.8132 -0.6940
 8480TIP3   OH246854   3.443   6.748  12.669 -0.2125  0.2437 -0.4221
 8480TIP3    H146855   3.386   6.675  12.645 -2.1065  0.1862  3.7662
 8480TIP3    H246856   3.403   6.824  12.628 -1.8941 -0.1937  0.3546
 8481TIP3   OH246857   3.597   1.214  12.517  0.8389  0.1091  0.2494
 8481TIP3    H146858   3.664   1.280  12.502  2.8717 -1.7868  0.6789
 8481TIP3    H246859   3.644   1.139  12.555 -1.2029 -1.9734 -1.1281
 8482TIP3   OH246860   0.307   0.853  11.030  0.1861 -0.0227  0.1180
 8482TIP3    H146861   0.250   0.802  10.972 -0.9985  0.8611  0.4986
 8482TIP3    H246862   0.282   0.826  11.118 -0.4472  1.2052  0.3236
 8483TIP3   OH246863   3.916   6.497   5.396 -0.1587 -0.6935  0.0507
 8483TIP3    H146864   3.835   6.514   5.444  0.0373 -0.9926  0.4870
 8483TIP3    H246865   3.958   6.582   5.388 -0.3901 -0.5791  0.0452
 8484TIP3   OH246866   5.057   3.258  16.897  0.0214 -0.6272  0.3403
 8484TIP3    H146867   5.148   3.239  16.876 -0.3718 -1.5385 -0.5545
 8484TIP3    H246868   5.059   3.348  16.932  1.0088  0.0493 -1.3869
 8485TIP3   OH246869   0.273   4.916   0.707 -0.1682  0.0930 -0.0836
 8485TIP3    H146870   0.312   4.859   0.773 -0.0442 -0.4693 -0.6318
 8485TIP3    H246871   0.192   4.949   0.747  0.3918  0.5208  0.7033
 8486TIP3   OH246872   4.242   2.991   6.475  0.4006  0.0456 -0.2103
 8486TIP3    H146873   4.156   2.951   6.480 -0.1891  1.3974  1.0289
 8486TIP3    H246874   4.303   2.917   6.472 -0.8179 -0.9348 -2.3370
 8487TIP3   OH246875   4.721   1.273   0.997 -0.2009  0.5948  0.1009
 8487TIP3    H146876   4.815   1.270   0.975 -0.5419 -0.7094 -1.2853
 8487TIP3    H246877   4.702   1.185   1.030 -0.8497  0.9853  0.7786
 8488TIP3   OH246878   0.525   1.341   2.954 -0.6068  0.0504  0.0690
 8488TIP3    H146879   0.589   1.277   2.985 -1.1604  1.0429  3.4592
 8488TIP3    H246880   0.469   1.292   2.895  1.9333 -1.3740 -1.2621
 8489TIP3   OH246881   2.819   6.465  12.803 -0.1524  0.1303  0.4933
 8489TIP3    H146882   2.801   6.432  12.715  2.4607  0.3660 -0.1794
 8489TIP3    H246883   2.798   6.558  12.799 -2.9972 -0.4441  1.0423
 8490TIP3   OH246884   6.314   3.702  16.854  0.3538  0.2544  0.1503
 8490TIP3    H146885   6.234   3.677  16.807  0.2532  0.7656  0.0418
 8490TIP3    H246886   6.286   3.714  16.945 -0.1568  2.5378 -0.2719
 8491TIP3   OH246887   1.197   3.937  16.687  0.2831 -0.3795 -1.2572
 8491TIP3    H146888   1.293   3.932  16.688  0.3837  0.4747 -3.2963
 8491TIP3    H246889   1.178   4.029  16.669 -0.9965  0.0945  2.1471
 8492TIP3   OH246890   3.460   4.402  15.493 -0.5081  0.4056  0.3247
 8492TIP3    H146891   3.397   4.458  15.539 -1.4831  0.2541 -0.8069
 8492TIP3    H246892   3.537   4.458  15.480 -0.3937  0.5915  1.7036
 8493TIP3   OH246893   0.754   3.024  14.599  0.5661  0.3999  0.1371
 8493TIP3    H146894   0.782   3.103  14.645  0.4182  0.6745 -0.2425
 8493TIP3    H246895   0.715   3.056  14.518 -1.1372  0.0395  0.7849
 8494TIP3   OH246896   0.057   4.267  15.666 -0.1975 -0.1851 -0.1396
 8494TIP3    H146897   0.080   4.210  15.593  0.3718 -0.1186 -0.0167
 8494TIP3    H246898   0.029   4.348  15.624  1.7064  0.4366 -0.2678
 8495TIP3   OH246899   5.083   2.004  16.772 -0.0251 -1.0866 -0.0572
 8495TIP3    H146900   5.101   1.911  16.758 -0.9173 -1.3907  0.8388
 8495TIP3    H246901   5.057   2.036  16.685 -1.8947 -2.1611  0.0762
 8496TIP3   OH246902   2.932   0.206  13.318 -0.2095 -0.1112 -0.7854
 8496TIP3    H146903   2.856   0.182  13.265  0.4559  0.2589 -1.9248
 8496TIP3    H246904   2.904   0.284  13.367 -0.5667  0.0260 -1.2078
 8497TIP3   OH246905   0.162   2.884  11.140 -0.4648  0.4831 -0.3129
 8497TIP3    H146906   0.195   2.797  11.163  0.5817  0.5458 -1.4470
 8497TIP3    H246907   0.240   2.930  11.108 -1.5665  0.7524 -2.7712
 8498TIP3   OH246908   3.480   2.687   3.125 -0.0948  0.0430  0.2589
 8498TIP3    H146909   3.555   2.642   3.164  0.0823 -0.5274 -0.7268
 8498TIP3    H246910   3.518   2.740   3.056 -0.7667 -1.4228 -1.2552
 8499TIP3   OH246911   2.542   1.001  16.163  0.0787 -0.2830 -0.0928
 8499TIP3    H146912   2.533   1.096  16.162 -0.2559 -0.3212 -1.5671
 8499TIP3    H246913   2.464   0.970  16.210  0.0960  0.1534  0.2258
 8500TIP3   OH246914   1.115   5.351  16.255  0.4408 -0.6259 -0.2231
 8500TIP3    H146915   1.097   5.267  16.213 -1.0429  0.2046 -1.2733
 8500TIP3    H246916   1.206   5.371  16.231 -0.5599  0.1247 -3.5971
 8501TIP3   OH246917   3.101   3.773   1.704  0.0206  0.5494 -0.5143
 8501TIP3    H146918   3.141   3.860   1.706 -0.1902  0.6755 -1.4457
 8501TIP3    H246919   3.172   3.713   1.725  0.0990  0.9663  0.4343
 8502TIP3   OH246920   3.163   3.561   1.082  0.8369  0.4337  0.4379
 8502TIP3    H146921   3.090   3.567   1.021  2.4223 -0.1606 -1.6107
 8502TIP3    H246922   3.135   3.610   1.159 -1.3599  0.9171 -0.6380
 8503TIP3   OH246923   5.477   0.766  16.858  0.0312 -0.1544  0.5096
 8503TIP3    H146924   5.416   0.735  16.924 -0.7633 -0.1380 -0.2153
 8503TIP3    H246925   5.459   0.711  16.781  2.6032 -1.8563  1.0402
 8504TIP3   OH246926   4.194   3.163   4.990  0.1705  0.0865  0.3176
 8504TIP3    H146927   4.169   3.090   4.934  1.4427  0.9428 -1.4197
 8504TIP3    H246928   4.274   3.198   4.951  0.1506  1.7827  1.6849
 8505TIP3   OH246929   5.085   4.297  17.041  0.6149 -0.5225  0.3813
 8505TIP3    H146930   5.076   4.392  17.032 -0.0337 -0.6777 -0.6070
 8505TIP3    H246931   5.002   4.262  17.009  0.0916 -1.3346  2.5121
 8506TIP3   OH246932   4.706   0.214   0.278 -0.4193 -0.2854 -0.4105
 8506TIP3    H146933   4.768   0.279   0.311 -0.5291  0.6783 -2.0376
 8506TIP3    H246934   4.761   0.140   0.251  0.2175  1.0935 -3.0996
 8507TIP3   OH246935   6.647   1.797   0.817  0.0318  0.1782  0.0206
 8507TIP3    H146936   6.648   1.882   0.860 -0.5266  0.5914 -0.7802
 8507TIP3    H246937   6.728   1.794   0.767 -0.8896  1.0835 -1.5663
 8508TIP3   OH246938   6.354   4.693   0.029  0.2950  0.2686 -0.0632
 8508TIP3    H146939   6.393   4.719   0.113 -1.4919 -0.7270  1.1211
 8508TIP3    H246940   6.358   4.597   0.031 -1.0724  0.2030 -0.4773
 8509TIP3   OH246941   2.537   1.807   6.221 -0.1234  0.4415  0.1228
 8509TIP3    H146942   2.464   1.867   6.205  0.1070  0.2751 -1.6415
 8509TIP3    H246943   2.578   1.795   6.135  1.9652  0.4935  1.0718
 8510TIP3   OH246944   0.861   4.584  14.266 -0.3467 -0.0765  0.2584
 8510TIP3    H146945   0.806   4.633  14.206  0.2571 -0.0278 -0.2571
 8510TIP3    H246946   0.891   4.649  14.330 -1.1484 -0.1685  0.7408
 8511TIP3   OH246947   5.288   0.061   1.484  0.2294  0.3169 -0.1772
 8511TIP3    H146948   5.340   0.092   1.410  1.9905  1.2860  1.4248
 8511TIP3    H246949   5.352   0.038   1.551 -1.3219 -0.7374  0.9924
 8512TIP3   OH246950   2.972   2.338   3.522  0.0029  0.1066  0.1862
 8512TIP3    H146951   2.889   2.380   3.497  1.4458  1.8204 -1.8908
 8512TIP3    H246952   3.034   2.411   3.530  1.4775 -1.2144  1.0652
 8513TIP3   OH246953   4.158   4.260   1.547  0.1980  0.3996 -0.2388
 8513TIP3    H146954   4.189   4.346   1.521 -0.2223  0.1972 -1.4816
 8513TIP3    H246955   4.131   4.219   1.464 -1.4196 -0.1887  0.5645
 8514TIP3   OH246956   4.626   0.192   3.719  0.3516 -0.5959  0.6845
 8514TIP3    H146957   4.592   0.262   3.775  0.1534  0.3573 -0.6033
 8514TIP3    H246958   4.702   0.230   3.676 -0.0513 -0.9998 -0.4075
 8515TIP3   OH246959   3.044   1.777   4.261  0.2388  0.5536 -0.0507
 8515TIP3    H146960   2.981   1.829   4.311 -0.7606 -0.8747  0.2375
 8515TIP3    H246961   3.110   1.751   4.325  1.3222  2.3251 -0.4224
 8516TIP3   OH246962   0.790   0.268   1.512  0.0164  0.1992 -0.0399
 8516TIP3    H146963   0.831   0.309   1.588 -1.4075  0.5607  0.5463
 8516TIP3    H246964   0.798   0.174   1.528 -0.4912  0.2744  0.6871
 8517TIP3   OH246965   2.063   6.680   4.939 -0.3286  0.2931  0.2990
 8517TIP3    H146966   1.969   6.672   4.956 -0.3263  0.0598  0.2010
 8517TIP3    H246967   2.104   6.621   5.002 -0.1928  1.1007  0.9714
 8518TIP3   OH246968   5.597   5.347   4.101 -0.0421  0.3050  0.0705
 8518TIP3    H146969   5.607   5.431   4.146 -0.6324  0.9728 -1.0109
 8518TIP3    H246970   5.671   5.344   4.040  0.2410 -0.1774  0.4347
 8519TIP3   OH246971   0.001   0.611  11.197  0.0915 -0.3449 -0.4344
 8519TIP3    H146972  -0.063   0.617  11.127 -0.4114 -2.0635 -0.1408
 8519TIP3    H246973   0.085   0.625  11.153 -0.3567  0.5600 -1.0341
 8520TIP3   OH246974   4.487   1.882   0.459 -0.2279 -0.1365 -0.1058
 8520TIP3    H146975   4.394   1.904   0.457 -0.1019  0.3964  0.0405
 8520TIP3    H246976   4.509   1.863   0.368 -0.3429  0.2935 -0.2229
 8521TIP3   OH246977   6.777   1.188   4.843  0.3723  0.1090  0.5980
 8521TIP3    H146978   6.753   1.208   4.933 -0.7143  2.4502 -0.1800
 8521TIP3    H246979   6.735   1.104   4.825 -2.0016  1.1145  1.3029
 8522TIP3   OH246980   5.942   5.975  17.039 -0.4824  0.1454  0.2282
 8522TIP3    H146981   5.966   6.067  17.042 -0.9467  0.2312  1.2679
 8522TIP3    H246982   5.875   5.969  16.972 -0.9750  0.6794  0.6813
 8523TIP3   OH246983   2.295   2.587   0.348 -0.2748  0.0848  0.2420
 8523TIP3    H146984   2.218   2.530   0.354  0.3772 -0.7715  0.5124
 8523TIP3    H246985   2.264   2.663   0.298 -1.4235 -0.0352  0.7482
 8524TIP3   OH246986   3.778   3.165  14.815 -0.4613  0.1046  1.0363
 8524TIP3    H146987   3.841   3.237  14.806 -0.7754  0.2534 -0.1713
 8524TIP3    H246988   3.706   3.202  14.866 -0.9435  0.8896 -0.1737
 8525TIP3   OH246989   1.193   0.501  15.427 -0.3334  0.1815  0.1939
 8525TIP3    H146990   1.145   0.525  15.348 -0.6515  0.1555  0.3781
 8525TIP3    H246991   1.150   0.421  15.457  1.1984 -1.0634 -0.8412
 8526TIP3   OH246992   6.065   3.547  15.549 -0.4816 -0.1198  0.3345
 8526TIP3    H146993   5.980   3.564  15.590 -0.3758 -0.8164  0.8442
 8526TIP3    H246994   6.055   3.577  15.458 -1.2283 -0.0946  0.4276
 8527TIP3   OH246995   0.635   3.295  12.909  0.3178 -0.4574  0.3235
 8527TIP3    H146996   0.712   3.306  12.854 -1.4276 -1.1537 -2.3907
 8527TIP3    H246997   0.575   3.364  12.880  0.6265  1.3052  3.7300
 8528TIP3   OH246998   2.216   0.301   0.299 -0.5294 -0.0589 -0.7412
 8528TIP3    H146999   2.306   0.332   0.287 -1.2308  1.6533 -1.5492
 8528TIP3    H247000   2.213   0.273   0.391  0.2662  1.7260 -0.1625
 8529TIP3   OH247001   5.800   0.865   4.490 -0.0920  0.1699 -0.3639
 8529TIP3    H147002   5.740   0.915   4.435 -0.0817 -1.9259 -2.3459
 8529TIP3    H247003   5.804   0.914   4.572 -1.8916  2.1284 -1.4112
 8530TIP3   OH247004   5.736   3.932  16.331  0.0168  0.1090  0.2948
 8530TIP3    H147005   5.801   3.928  16.261  1.1039  1.7726  1.2022
 8530TIP3    H247006   5.769   3.998  16.391 -1.4168 -0.5891  1.8819
 8531TIP3   OH247007   4.110   4.911   5.166 -0.0688  0.6620 -0.6742
 8531TIP3    H147008   4.155   4.833   5.199  0.1698  1.5221  1.0745
 8531TIP3    H247009   4.138   4.918   5.075 -0.1162 -1.3138 -0.8650
 8532TIP3   OH247010   6.249   4.795   2.214  0.9046 -0.3249 -0.3082
 8532TIP3    H147011   6.164   4.780   2.256  0.8393  1.1594  0.1281
 8532TIP3    H247012   6.296   4.713   2.225 -0.3455 -1.0562 -0.2576
 8533TIP3   OH247013   2.534   5.967   4.809  0.1390 -0.9053 -0.1795
 8533TIP3    H147014   2.513   5.888   4.859 -0.7636 -1.9319 -2.1180
 8533TIP3    H247015   2.584   5.936   4.734  1.5995  0.6209  0.1324
 8534TIP3   OH247016   3.543   4.040  13.779 -0.2514 -0.3930 -0.1728
 8534TIP3    H147017   3.501   3.955  13.773  0.1634 -0.5482 -1.1318
 8534TIP3    H247018   3.630   4.026  13.739 -0.1420  0.4429 -0.2362
 8535TIP3   OH247019   5.274   4.329  11.923  0.2816  0.4524  0.3928
 8535TIP3    H147020   5.194   4.369  11.956 -0.5055 -1.8017  1.2399
 8535TIP3    H247021   5.247   4.278  11.847  0.9280 -0.2821  0.6495
 8536TIP3   OH247022   6.415   0.438  15.982 -0.0018  0.6723  0.1829
 8536TIP3    H147023   6.416   0.510  16.045  0.6009  0.5905  0.2767
 8536TIP3    H247024   6.498   0.448  15.934 -0.4057  0.6672 -0.5128
 8537TIP3   OH247025   4.907   5.356  11.497 -0.8401  0.2877  0.2729
 8537TIP3    H147026   4.995   5.321  11.494 -0.0158  2.2443  0.4198
 8537TIP3    H247027   4.850   5.281  11.481  0.7607 -1.3472  1.9730
 8538TIP3   OH247028   6.666   0.046  13.398  0.1018  0.0542 -0.1739
 8538TIP3    H147029   6.610   0.122  13.412  0.3667  0.0291  1.0281
 8538TIP3    H247030   6.649  -0.011  13.473 -0.3830 -1.2622 -1.2440
 8539TIP3   OH247031   3.845   1.671  13.783  0.2691 -0.3785 -0.1426
 8539TIP3    H147032   3.858   1.752  13.733  3.3546  0.7086  2.2151
 8539TIP3    H247033   3.819   1.701  13.870 -0.5789 -2.0325  0.1961
 8540TIP3   OH247034   1.345   6.545  15.378 -0.2416 -0.4141  0.4811
 8540TIP3    H147035   1.309   6.514  15.296 -2.5488 -1.2884  1.7889
 8540TIP3    H247036   1.416   6.604  15.352 -1.2685 -0.2638 -2.1219
 8541TIP3   OH247037   0.660   2.353   5.387 -0.7719  0.2995  0.2772
 8541TIP3    H147038   0.641   2.441   5.419 -0.6487  0.6753 -0.6452
 8541TIP3    H247039   0.756   2.346   5.391 -0.7471  0.3872 -0.0774
 8542TIP3   OH247040   1.478   2.322   3.884  0.4106  0.3777 -0.4912
 8542TIP3    H147041   1.463   2.409   3.922  1.8570  0.5449 -0.2543
 8542TIP3    H247042   1.570   2.304   3.903  0.6807 -0.3241 -2.3364
 8543TIP3   OH247043   6.431   5.536   3.286 -0.5005 -0.3182  0.2006
 8543TIP3    H147044   6.446   5.445   3.311 -0.7882 -0.0443  1.4397
 8543TIP3    H247045   6.512   5.563   3.242 -0.5269 -1.2518 -0.4326
 8544TIP3   OH247046   4.289   4.295   2.718  0.0516  0.2852  0.3083
 8544TIP3    H147047   4.375   4.282   2.678 -0.5583  0.7704 -1.1966
 8544TIP3    H247048   4.231   4.311   2.644 -1.3317 -0.0114  1.3203
 8545TIP3   OH247049   1.173   0.490  14.955  0.0332 -0.1204  1.1762
 8545TIP3    H147050   1.173   0.421  15.022  1.4847 -0.9828  0.3184
 8545TIP3    H247051   1.265   0.517  14.950 -0.1840  0.3903 -0.0174
 8546TIP3   OH247052   5.406   4.975  12.564  0.3662  0.4520  0.5994
 8546TIP3    H147053   5.413   4.905  12.499  1.2309  0.8806  0.2251
 8546TIP3    H247054   5.394   4.929  12.648  1.1889 -0.1485  0.3902
 8547TIP3   OH247055   2.644   2.532   0.898  0.6121  0.1500 -0.0845
 8547TIP3    H147056   2.636   2.601   0.832  1.1610 -0.6730 -1.0409
 8547TIP3    H247057   2.659   2.578   0.980  0.2917  1.1868 -0.5957
 8548TIP3   OH247058   0.252   3.432   0.058 -0.1306  0.0472  0.2314
 8548TIP3    H147059   0.170   3.443   0.010 -0.7234  0.5403  1.3450
 8548TIP3    H247060   0.262   3.337   0.067 -1.3767  0.0215  1.4424
 8549TIP3   OH247061   2.437   1.392   2.729  0.0619 -0.7523 -0.0078
 8549TIP3    H147062   2.485   1.424   2.805  1.1786 -1.1052 -0.5508
 8549TIP3    H247063   2.456   1.456   2.660 -0.3995 -0.7951 -0.1775
 8550TIP3   OH247064   6.737   3.643  16.294  0.3984 -0.5097 -0.3198
 8550TIP3    H147065   6.736   3.737  16.313  0.8845 -0.3978 -0.8408
 8550TIP3    H247066   6.753   3.602  16.378 -1.6206 -0.2090  0.2349
 8551TIP3   OH247067   1.884   0.129   0.353 -0.4384 -0.1002  0.1185
 8551TIP3    H147068   1.943   0.135   0.428 -0.9781 -2.3320  0.7820
 8551TIP3    H247069   1.798   0.113   0.392 -1.0434  0.5477 -0.9250
 8552TIP3   OH247070   1.146   1.444   5.221  0.4543 -0.0751  0.1918
 8552TIP3    H147071   1.200   1.370   5.248  1.9954  0.0482 -2.4550
 8552TIP3    H247072   1.176   1.466   5.133 -4.4285 -0.5081 -1.7471
 8553TIP3   OH247073   5.625   3.803  15.764 -0.4574  0.0659 -0.1014
 8553TIP3    H147074   5.553   3.760  15.719  1.3351 -1.8024 -1.2490
 8553TIP3    H247075   5.665   3.859  15.698 -0.9555  1.2553  0.5886
 8554TIP3   OH247076   2.468   2.312  15.695 -0.0451 -0.4279  0.3482
 8554TIP3    H147077   2.495   2.304  15.787 -0.4487  0.4656  0.5575
 8554TIP3    H247078   2.449   2.405  15.685 -2.7291 -0.9627  0.1198
 8555TIP3   OH247079   2.550   1.395   3.577  0.2443  0.8087  0.0253
 8555TIP3    H147080   2.644   1.405   3.566  0.4544 -1.8028 -0.8981
 8555TIP3    H247081   2.518   1.370   3.490 -1.2656  1.5420  0.3645
 8556TIP3   OH247082   5.723   1.939   0.973  0.0680 -0.1116 -0.1318
 8556TIP3    H147083   5.734   2.034   0.969 -0.8516  0.0175  0.1769
 8556TIP3    H247084   5.777   1.905   0.902 -0.1360  0.6897 -0.6755
 8557TIP3   OH247085   1.419   2.303   3.571  0.3420 -0.1913  0.1026
 8557TIP3    H147086   1.423   2.321   3.665  0.3220 -0.1816  0.1015
 8557TIP3    H247087   1.368   2.222   3.565  0.2389 -0.1256  0.0909
 8558TIP3   OH247088   3.456   4.150  15.259 -0.2834 -0.3619  0.4605
 8558TIP3    H147089   3.439   4.057  15.273  0.6591 -0.6085  0.0255
 8558TIP3    H247090   3.391   4.177  15.195 -1.7166 -0.2894  1.9210
 8559TIP3   OH247091   2.863   2.796   6.256  0.9792  0.4833  0.5256
 8559TIP3    H147092   2.924   2.746   6.310  1.6825 -0.5522 -1.1750
 8559TIP3    H247093   2.802   2.835   6.318  0.2235 -2.7391  1.8946
 8560TIP3   OH247094   4.838   5.833   6.109 -0.4785 -0.1211  0.2207
 8560TIP3    H147095   4.904   5.806   6.047 -0.9789 -1.7525  0.3826
 8560TIP3    H247096   4.768   5.769   6.100 -1.4527  0.8016  1.0016
 8561TIP3   OH247097   0.331   4.030   2.981  0.2331  0.1479  0.8044
 8561TIP3    H147098   0.420   4.014   3.013  0.2147 -1.0495  0.2793
 8561TIP3    H247099   0.290   3.943   2.979 -0.0957  0.3258 -1.4955
 8562TIP3   OH247100   3.467   4.145   4.068  0.9075 -0.9815 -0.6578
 8562TIP3    H147101   3.412   4.191   4.131  1.3503 -0.7478 -0.4416
 8562TIP3    H247102   3.552   4.137   4.112  1.0326 -1.3827 -0.9700
 8563TIP3   OH247103   2.499   6.396  11.685  0.8230 -0.4484  0.3619
 8563TIP3    H147104   2.488   6.363  11.595  1.8135 -0.5317  0.2585
 8563TIP3    H247105   2.520   6.489  11.674  1.8382 -0.6566  0.4449
 8564TIP3   OH247106   0.343   5.545   2.222  0.1838  0.0742 -0.2590
 8564TIP3    H147107   0.398   5.474   2.189  0.7435 -0.1426  1.0983
 8564TIP3    H247108   0.325   5.600   2.145  0.6787 -0.9110 -1.0903
 8565TIP3   OH247109   3.557   4.889   4.626 -0.1099 -0.5022  0.0011
 8565TIP3    H147110   3.572   4.800   4.594 -1.0274 -1.0087  0.9488
 8565TIP3    H247111   3.464   4.891   4.649  0.0046  0.5677  0.4003
 8566TIP3   OH247112   6.344   0.573   5.649 -0.4661 -0.5115  0.6785
 8566TIP3    H147113   6.393   0.498   5.681 -0.7664 -0.7264  0.6260
 8566TIP3    H247114   6.259   0.538   5.622  0.0907 -0.4865 -1.1853
 8567TIP3   OH247115   3.671   1.260   4.451 -0.4312  0.7664  0.5242
 8567TIP3    H147116   3.686   1.209   4.531  2.4172 -0.8298 -0.9645
 8567TIP3    H247117   3.677   1.351   4.480 -1.1552  0.2417  2.4116
 8568TIP3   OH247118   1.009   6.035   3.998 -0.0959  0.1101  0.3663
 8568TIP3    H147119   1.043   5.946   4.007 -0.0604  0.2103  1.1874
 8568TIP3    H247120   1.078   6.081   3.949 -0.8542 -0.7347 -1.5755
 8569TIP3   OH247121   3.713   3.561   2.917  0.3245 -0.2236  0.4315
 8569TIP3    H147122   3.705   3.601   2.831 -0.2072  0.1932  0.6691
 8569TIP3    H247123   3.792   3.507   2.911  1.2956  1.1728  0.2212
 8570TIP3   OH247124   5.763   4.820   3.343 -0.3352 -0.4589 -0.1466
 8570TIP3    H147125   5.793   4.729   3.347 -0.6749 -0.5702 -0.1417
 8570TIP3    H247126   5.667   4.814   3.347 -0.3796 -0.1300 -0.6684
 8571TIP3   OH247127   2.754   0.552   0.274 -0.2636 -0.8486  0.1053
 8571TIP3    H147128   2.818   0.487   0.303  0.2209 -0.9215 -1.1146
 8571TIP3    H247129   2.677   0.501   0.251 -1.2042 -0.6614  2.7232
 8572TIP3   OH247130   0.780   3.161   4.439  0.2431 -0.0976  0.4733
 8572TIP3    H147131   0.693   3.200   4.450  0.4131 -0.1076  1.8839
 8572TIP3    H247132   0.764   3.067   4.433 -0.0322  0.0579 -1.4461
 8573TIP3   OH247133   1.720   3.730   1.560 -0.5251 -0.1707 -0.5361
 8573TIP3    H147134   1.630   3.729   1.592 -0.2006  0.3903  0.4412
 8573TIP3    H247135   1.748   3.821   1.570  0.6655 -0.6439  0.7228
 8574TIP3   OH247136   3.915   5.725   1.666 -0.7768  0.0084 -0.1142
 8574TIP3    H147137   3.887   5.685   1.584 -0.9632 -1.2742  0.5692
 8574TIP3    H247138   3.837   5.772   1.696 -1.3493 -1.2144  0.3530
 8575TIP3   OH247139   5.661   2.533   2.028  0.0216  0.1642 -0.1284
 8575TIP3    H147140   5.718   2.602   1.994  1.5299 -0.3825  1.1576
 8575TIP3    H247141   5.715   2.490   2.095 -1.9075 -0.4347  1.0598
 8576TIP3   OH247142   6.593   0.203   6.053  0.1829 -0.1284  0.7626
 8576TIP3    H147143   6.676   0.249   6.045 -1.0577  1.6520 -2.4529
 8576TIP3    H247144   6.539   0.260   6.108  0.7404 -0.8364  2.0663
 8577TIP3   OH247145   4.480   0.745  13.802  0.0693 -0.2190 -0.1511
 8577TIP3    H147146   4.388   0.767  13.784  0.0151 -0.2264  0.1156
 8577TIP3    H247147   4.526   0.828  13.797  0.2770 -0.4068 -1.6916
 8578TIP3   OH247148   4.362   1.546   2.266 -0.2035  0.1836  0.1514
 8578TIP3    H147149   4.336   1.619   2.209  1.0082 -0.3053 -1.0271
 8578TIP3    H247150   4.311   1.560   2.346  1.2879  3.3065  0.6234
 8579TIP3   OH247151   4.588   1.408   4.251 -0.2132 -0.0503 -1.2161
 8579TIP3    H147152   4.550   1.409   4.339 -1.1150 -0.1022 -1.5975
 8579TIP3    H247153   4.616   1.499   4.236 -3.0044  0.7336 -2.1132
 8580TIP3   OH247154   2.455   3.966   5.913 -0.1147 -0.5327 -0.0335
 8580TIP3    H147155   2.492   3.983   6.000  1.1933  0.5998 -0.8005
 8580TIP3    H247156   2.528   3.930   5.863 -0.8154 -0.9842 -0.7375
 8581TIP3   OH247157   1.824   0.790  15.964 -0.6726 -0.3308  0.1252
 8581TIP3    H147158   1.853   0.756  16.049  0.5822 -1.3066 -0.6862
 8581TIP3    H247159   1.903   0.823  15.923 -1.3613  0.5884 -0.4845
 8582TIP3   OH247160   2.651   1.491  15.424 -0.4761  0.3954  0.2157
 8582TIP3    H147161   2.717   1.560  15.417  1.0312 -1.0771 -0.4148
 8582TIP3    H247162   2.588   1.512  15.355  0.4652  0.6310 -0.5889
 8583TIP3   OH247163   4.398   3.185  13.161 -0.5578 -0.0844  0.1215
 8583TIP3    H147164   4.430   3.271  13.189  1.0299 -0.4201 -0.6077
 8583TIP3    H247165   4.367   3.200  13.071 -1.3298 -0.0355  0.3909
 8584TIP3   OH247166   6.646   2.398  16.764 -0.5471  0.0887  0.1795
 8584TIP3    H147167   6.560   2.359  16.776 -0.5305  0.1652  0.5531
 8584TIP3    H247168   6.671   2.430  16.851 -1.4306  2.7584 -0.4821
 8585TIP3   OH247169   1.061   3.144   4.411 -0.5176  0.0265 -0.0036
 8585TIP3    H147170   0.965   3.151   4.409 -0.5390  0.1838  1.0245
 8585TIP3    H247171   1.078   3.059   4.452 -0.2257  0.3349  0.5338
 8586TIP3   OH247172   6.651   2.033  14.088 -0.1543  0.2394 -0.8089
 8586TIP3    H147173   6.615   2.094  14.024 -4.9162 -0.2797  1.1437
 8586TIP3    H247174   6.663   2.085  14.167  1.6643 -0.0566 -0.8659
 8587TIP3   OH247175   4.527   3.329   0.963 -0.2939 -0.1622  0.4630
 8587TIP3    H147176   4.495   3.323   0.873 -1.0184 -1.0472  0.7711
 8587TIP3    H247177   4.535   3.238   0.992  0.5308  0.1028  1.0892
 8588TIP3   OH247178   5.978   2.899   6.088 -0.2723  0.1713  0.0370
 8588TIP3    H147179   6.067   2.881   6.116  0.1221  0.3677 -1.0680
 8588TIP3    H247180   5.983   2.984   6.045 -0.3999 -1.0999 -2.6208
 8589TIP3   OH247181   1.860   5.150   6.261 -0.1667 -0.9116 -0.1153
 8589TIP3    H147182   1.930   5.084   6.260  0.9026  0.1130  2.4229
 8589TIP3    H247183   1.790   5.109   6.311 -0.8266 -1.3510 -1.3668
 8590TIP3   OH247184   4.589   3.287   5.302 -0.2305 -0.2589  0.1019
 8590TIP3    H147185   4.543   3.352   5.355 -0.8598  0.8942 -1.8152
 8590TIP3    H247186   4.522   3.222   5.280 -0.1292 -0.3823  0.1595
 8591TIP3   OH247187   3.834   4.491  13.001 -0.1378  0.4558  0.0976
 8591TIP3    H147188   3.899   4.560  12.989 -1.1310  1.1138 -1.6127
 8591TIP3    H247189   3.807   4.467  12.913 -0.2881 -1.6858  0.6904
 8592TIP3   OH247190   3.651   3.605   6.412 -0.6294  0.3547 -0.2772
 8592TIP3    H147191   3.745   3.591   6.406 -0.6009  0.7864 -0.8234
 8592TIP3    H247192   3.640   3.699   6.426 -0.9615  0.2573  0.1264
 8593TIP3   OH247193   3.808   3.547  14.806  0.1657 -0.4521  0.3730
 8593TIP3    H147194   3.789   3.605  14.880 -0.5609  0.8170 -0.7784
 8593TIP3    H247195   3.888   3.584  14.768  0.5402 -1.1085  0.5121
 8594TIP3   OH247196   3.878   0.287  16.838  0.2353 -0.0461 -0.0264
 8594TIP3    H147197   3.791   0.263  16.867 -1.1066  3.5155 -0.8075
 8594TIP3    H247198   3.864   0.361  16.780  3.7212  0.0057 -0.9035
 8595TIP3   OH247199   3.384   0.300  10.466 -0.2321 -0.4735 -0.3726
 8595TIP3    H147200   3.337   0.356  10.404  0.5138 -0.6397 -1.0964
 8595TIP3    H247201   3.464   0.348  10.486  0.1002 -0.9832 -0.4815
 8596TIP3   OH247202   1.100   1.554   4.108  0.3519 -0.1233  0.0803
 8596TIP3    H147203   1.153   1.487   4.066  0.0458 -1.3842  1.6453
 8596TIP3    H247204   1.129   1.555   4.199 -0.6802  0.8201  0.4273
 8597TIP3   OH247205   5.221   5.017  13.298 -0.4389 -0.2375  0.2954
 8597TIP3    H147206   5.297   5.045  13.347 -0.0595 -1.4077  0.3829
 8597TIP3    H247207   5.176   5.098  13.275  0.7945  0.4532  0.2915
 8598TIP3   OH247208   0.939   5.294  17.062 -0.3538  0.6740 -0.4271
 8598TIP3    H147209   0.999   5.251  17.001  0.6945  1.4716  0.0442
 8598TIP3    H247210   0.857   5.245  17.052  0.0593  0.2339 -1.8275
 8599TIP3   OH247211   6.179   0.744  12.567 -0.5523  0.7310 -0.2542
 8599TIP3    H147212   6.164   0.657  12.604  0.1110 -1.1267 -4.0809
 8599TIP3    H247213   6.272   0.761  12.584 -0.4655  0.2932 -0.2788
 8600TIP3   OH247214   5.780   5.952  16.835 -0.1255 -0.7842 -0.1559
 8600TIP3    H147215   5.808   5.923  16.748  0.6318 -3.1185  0.8435
 8600TIP3    H247216   5.697   5.905  16.850 -0.0845 -0.6406  0.5167
 8601TIP3   OH247217   0.642   6.528  16.758  0.1942  0.1719  0.0407
 8601TIP3    H147218   0.694   6.463  16.804  0.1128  0.8196  1.0636
 8601TIP3    H247219   0.705   6.574  16.702  0.0249 -1.6235 -1.6740
 8602TIP3   OH247220   6.048   2.995   4.848  0.3812  0.2318 -0.0528
 8602TIP3    H147221   6.093   3.071   4.811 -0.0385  0.3747 -0.2731
 8602TIP3    H247222   5.983   2.971   4.782 -0.3290  0.4524  0.5563
 8603TIP3   OH247223   5.253   0.918  12.273  0.0247  0.5834 -0.4625
 8603TIP3    H147224   5.252   0.980  12.200  0.9278 -0.2123 -1.1594
 8603TIP3    H247225   5.337   0.873  12.266  0.0967  0.4479  1.0349
 8604TIP3   OH247226   3.651   1.598  15.597  0.4165  0.8327 -0.4456
 8604TIP3    H147227   3.646   1.581  15.503  3.4697  2.4936 -0.9583
 8604TIP3    H247228   3.744   1.598  15.617 -0.1675  0.8750  2.5328
 8605TIP3   OH247229   2.504   0.940  11.477 -0.1836 -0.4256 -0.2429
 8605TIP3    H147230   2.484   0.934  11.384  0.3435  0.5629 -0.4239
 8605TIP3    H247231   2.537   1.029  11.489  0.2299 -0.7096  0.7951
 8606TIP3   OH247232   3.608   4.166   5.856 -0.1124  0.2636 -0.3759
 8606TIP3    H147233   3.512   4.169   5.856 -0.1022  0.6294  0.7815
 8606TIP3    H247234   3.633   4.198   5.942  1.0193 -1.1320 -0.1759
 8607TIP3   OH247235   4.410   5.760  15.655  0.3102 -0.7042  0.3776
 8607TIP3    H147236   4.498   5.724  15.662  0.2548 -0.7434  0.9714
 8607TIP3    H247237   4.411   5.814  15.576  0.9343 -0.5087  0.5177
 8608TIP3   OH247238   0.836   3.148   2.350 -0.3154 -0.0370 -0.2414
 8608TIP3    H147239   0.777   3.116   2.282 -1.5498  1.3503  0.1482
 8608TIP3    H247240   0.924   3.137   2.312 -0.6345 -3.9358 -0.0475
 8609TIP3   OH247241   3.798   0.126   3.637 -0.3099  0.4735 -0.3600
 8609TIP3    H147242   3.791   0.212   3.678  0.9058  0.2398  0.3811
 8609TIP3    H247243   3.888   0.123   3.603 -0.4446 -0.3833 -0.6622
 8610TIP3   OH247244   2.740   2.469  15.211 -0.2116 -0.0964 -0.4696
 8610TIP3    H147245   2.717   2.423  15.292 -1.5329 -2.4821 -2.1525
 8610TIP3    H247246   2.706   2.557  15.223 -1.7367 -0.8576  0.9614
 8611TIP3   OH247247   6.656   4.166  16.608 -0.0966 -0.4506  0.0243
 8611TIP3    H147248   6.655   4.170  16.704  0.5330 -2.9831  0.1970
 8611TIP3    H247249   6.646   4.073  16.588  0.1298 -0.0027 -2.3749
 8612TIP3   OH247250   0.271   5.544   0.157 -0.5458 -0.3540 -0.0354
 8612TIP3    H147251   0.286   5.558   0.251  0.3743  2.2896 -0.5240
 8612TIP3    H247252   0.265   5.449   0.147 -1.0696 -0.6536  2.7586
 8613TIP3   OH247253   6.467   4.617  11.756  0.1212  0.5865 -0.6179
 8613TIP3    H147254   6.376   4.618  11.786  0.9901  0.6852  2.0983
 8613TIP3    H247255   6.505   4.698  11.790  1.3357  0.3830 -1.4372
 8614TIP3   OH247256   5.774   2.386  14.383 -0.2317 -0.3458 -0.6357
 8614TIP3    H147257   5.780   2.375  14.478  1.1756  1.4698 -0.4841
 8614TIP3    H247258   5.849   2.441  14.360 -0.3534 -1.0514 -2.8602
 8615TIP3   OH247259   1.602   2.848  15.829 -0.3441  0.2532 -0.7418
 8615TIP3    H147260   1.581   2.757  15.853 -2.0837  0.8410  0.0280
 8615TIP3    H247261   1.518   2.893  15.830  0.5005  1.8734 -1.2056
 8616TIP3   OH247262   3.713   6.556   0.052 -0.0726 -0.0300  0.1605
 8616TIP3    H147263   3.636   6.510   0.019  0.9416  0.2456 -2.7485
 8616TIP3    H247264   3.733   6.514   0.135 -0.7303 -3.1050 -1.1758
 8617TIP3   OH247265   5.477   3.022  13.484  0.4276  0.1778  0.3037
 8617TIP3    H147266   5.531   3.057  13.555  2.3730 -1.4652 -0.3130
 8617TIP3    H247267   5.491   3.082  13.411  1.0117  0.0644  0.3157
 8618TIP3   OH247268   6.271   1.212  12.768  0.8692  0.1379 -0.0820
 8618TIP3    H147269   6.283   1.144  12.835 -0.5622 -0.0257  0.0180
 8618TIP3    H247270   6.227   1.166  12.696 -0.3737  1.0258  0.1067
 8619TIP3   OH247271   5.147   2.523   0.474 -0.3192  0.0797 -0.3563
 8619TIP3    H147272   5.126   2.452   0.535  0.4425  0.5985  0.5211
 8619TIP3    H247273   5.166   2.598   0.530  1.8367  0.1754 -1.1794
 8620TIP3   OH247274   3.127   3.290   0.800  0.5404  0.1080 -0.1614
 8620TIP3    H147275   3.068   3.284   0.725  0.8322  0.2886 -0.4058
 8620TIP3    H247276   3.072   3.270   0.876  0.0340  0.8156 -0.3350
 8621TIP3   OH247277   5.595   2.285   5.448  0.0961  1.0954  0.5461
 8621TIP3    H147278   5.614   2.369   5.490  0.2995  0.1915  2.2986
 8621TIP3    H247279   5.502   2.290   5.426  0.5668  2.6011 -1.3468
 8622TIP3   OH247280   1.567   1.655  13.688 -0.2526  0.1029 -0.4587
 8622TIP3    H147281   1.652   1.637  13.727 -1.3327 -0.4063  1.7429
 8622TIP3    H247282   1.530   1.568  13.671 -0.7026  0.3108 -0.5479
 8623TIP3   OH247283   2.539   6.112   5.865 -0.2919  0.2201 -0.1631
 8623TIP3    H147284   2.548   6.059   5.944 -2.3133 -1.4925 -1.0156
 8623TIP3    H247285   2.492   6.055   5.804  0.2132  1.9275 -2.1873
 8624TIP3   OH247286   4.918   5.047   1.322  0.1309 -0.4951 -0.1298
 8624TIP3    H147287   5.002   5.079   1.289  0.0574  0.2071  0.3453
 8624TIP3    H247288   4.885   5.119   1.376 -0.4202 -1.0703  0.3031
 8625TIP3   OH247289   3.156   6.739   0.554 -0.0581 -0.0529 -0.0033
 8625TIP3    H147290   3.102   6.775   0.623  0.1340  1.1088 -0.4366
 8625TIP3    H247291   3.113   6.658   0.528 -1.1352  0.4457  0.2165
 8626TIP3   OH247292   3.086   1.386  15.543 -0.6410  0.1244  0.1840
 8626TIP3    H147293   3.097   1.441  15.620 -0.0268  0.6660 -0.2867
 8626TIP3    H247294   3.150   1.419  15.480 -0.3974 -1.0057 -0.1717
 8627TIP3   OH247295   4.599   3.792  14.457 -0.0328 -0.8104 -0.1392
 8627TIP3    H147296   4.658   3.718  14.469 -0.8239 -1.2254  1.1993
 8627TIP3    H247297   4.529   3.758  14.401 -0.3003 -1.0149  0.3228
 8628TIP3   OH247298   3.091   1.019   6.846  0.2191  0.0803  0.0331
 8628TIP3    H147299   3.019   1.077   6.871 -0.1452  0.0372 -0.8836
 8628TIP3    H247300   3.066   0.985   6.760  0.9402 -0.5942  0.0789
 8629TIP3   OH247301   0.295   4.420  12.088 -0.1104 -0.4573  0.8260
 8629TIP3    H147302   0.357   4.392  12.020  0.7368 -0.8252  1.7182
 8629TIP3    H247303   0.318   4.511  12.106 -1.6943  0.2833 -0.8243
 8630TIP3   OH247304   3.349   3.381  15.178  0.7075  0.0454 -0.0031
 8630TIP3    H147305   3.436   3.377  15.139  1.6840 -0.0055  2.1360
 8630TIP3    H247306   3.345   3.468  15.220  0.5405 -0.7563  1.6875
 8631TIP3   OH247307   6.153   4.043   3.253 -0.4579 -0.6363  0.2909
 8631TIP3    H147308   6.195   4.059   3.338  1.0976 -0.4087 -0.4925
 8631TIP3    H247309   6.113   4.127   3.230  1.5765  0.1648 -0.4952
 8632TIP3   OH247310   0.868   2.980   3.217  0.2618 -0.1328 -0.4522
 8632TIP3    H147311   0.827   3.034   3.149  0.8033  1.5419  0.5190
 8632TIP3    H247312   0.855   3.029   3.298  0.1490 -1.8213  0.5759
 8633TIP3   OH247313   0.770   1.796   2.157 -0.1876 -0.6734 -0.7246
 8633TIP3    H147314   0.817   1.848   2.092  0.9173 -0.6267  0.1040
 8633TIP3    H247315   0.830   1.725   2.179 -1.3049 -1.7578 -1.1396
 8634TIP3   OH247316   5.217   2.507  12.897  0.3815 -0.0898  0.0427
 8634TIP3    H147317   5.204   2.472  12.985  0.4760  0.8772  0.4445
 8634TIP3    H247318   5.154   2.460  12.843  0.4914 -0.8588  0.5843
 8635TIP3   OH247319   5.787   5.188   4.964 -0.0209 -0.7845 -0.2795
 8635TIP3    H147320   5.745   5.187   4.878 -2.0049 -0.5064  0.6501
 8635TIP3    H247321   5.867   5.239   4.952  0.1232 -1.4165 -2.1250
 8636TIP3   OH247322   4.148   0.054  12.760  0.3969 -0.0098  0.0800
 8636TIP3    H147323   4.147  -0.012  12.692  1.1573 -0.7276  0.7576
 8636TIP3    H247324   4.172   0.007  12.840 -1.9047  0.5268  1.1419
 8637TIP3   OH247325   3.697   1.692   0.485 -0.1673 -0.1610 -0.4300
 8637TIP3    H147326   3.625   1.632   0.502 -0.5056  0.4335  0.2670
 8637TIP3    H247327   3.736   1.709   0.570 -0.1280  0.6658 -0.6039
 8638TIP3   OH247328   2.818   4.610   3.490 -0.3230 -0.0170 -0.1106
 8638TIP3    H147329   2.850   4.531   3.446 -0.4827  1.2122 -2.5191
 8638TIP3    H247330   2.875   4.680   3.457 -1.2062  1.1222  0.7556
 8639TIP3   OH247331   6.254   3.235  14.714 -0.6204 -1.0064 -0.0192
 8639TIP3    H147332   6.258   3.328  14.736  1.9863 -1.2780  0.8616
 8639TIP3    H247333   6.230   3.234  14.621  1.2036  0.6460 -0.5516
 8640TIP3   OH247334   1.883   4.113  11.448 -0.5917  0.2631 -0.1902
 8640TIP3    H147335   1.854   4.091  11.360  0.1222  0.5718 -0.5028
 8640TIP3    H247336   1.897   4.207  11.446  2.3709 -0.1412 -0.6241
 8641TIP3   OH247337   0.215   6.121   4.367 -0.0775  0.1704  0.1049
 8641TIP3    H147338   0.138   6.141   4.314 -0.0457 -0.7015 -0.2890
 8641TIP3    H247339   0.179   6.087   4.449 -0.1196  0.1845  0.0920
 8642TIP3   OH247340   5.907   6.099   5.929  0.0813 -0.0239  0.5556
 8642TIP3    H147341   5.913   6.073   6.021  0.4856  1.6453  1.0137
 8642TIP3    H247342   5.986   6.150   5.914  0.6314 -1.3230 -1.0713
 8643TIP3   OH247343   2.896   3.291   0.620 -0.5892  0.0857 -0.2463
 8643TIP3    H147344   2.826   3.253   0.567 -1.3834  1.9124 -0.5408
 8643TIP3    H247345   2.856   3.366   0.664  0.7266  0.1134  0.9518
 8644TIP3   OH247346   6.438   2.523  12.016  0.4156 -0.1428 -0.4124
 8644TIP3    H147347   6.397   2.539  11.932 -1.7153 -1.1119  0.4042
 8644TIP3    H247348   6.493   2.446  12.001 -0.8209 -0.9999 -0.6794
 8645TIP3   OH247349   4.610   1.436   6.001 -0.4453 -0.3386  0.0349
 8645TIP3    H147350   4.695   1.399   5.975 -1.2516 -1.8213 -0.5690
 8645TIP3    H247351   4.630   1.526   6.025  1.1441 -0.3660 -1.0748
 8646TIP3   OH247352   4.964   5.465   4.544  0.1605 -0.4253 -0.4376
 8646TIP3    H147353   4.971   5.377   4.507  1.0144 -0.6873  0.3196
 8646TIP3    H247354   5.054   5.499   4.542  0.1316 -0.2650  0.9437
 8647TIP3   OH247355   0.843   0.618  15.215 -0.0276 -0.0593 -0.3164
 8647TIP3    H147356   0.937   0.636  15.218 -0.3163  1.5266 -0.2248
 8647TIP3    H247357   0.824   0.602  15.123  0.2163  0.2526 -0.4196
 8648TIP3   OH247358   6.122   1.503  11.736 -0.0328 -0.0342  0.0819
 8648TIP3    H147359   6.133   1.470  11.825 -3.8010 -0.4940  0.4395
 8648TIP3    H247360   6.101   1.596  11.748  0.4771  0.1474 -0.4053
 8649TIP3   OH247361   2.313   1.835   2.306  0.0902  0.3279 -0.4674
 8649TIP3    H147362   2.366   1.819   2.385  0.9607  0.6092 -0.9845
 8649TIP3    H247363   2.238   1.886   2.337  0.3139  0.2450  0.2183
 8650TIP3   OH247364   0.248   0.065   5.370  0.3683  0.2897  0.0766
 8650TIP3    H147365   0.218  -0.025   5.357  1.5246 -0.1597  0.4565
 8650TIP3    H247366   0.343   0.060   5.364  0.4319  1.5206 -0.0812
 8651TIP3   OH247367   5.106   4.180  14.290  0.3296 -0.0441 -0.3945
 8651TIP3    H147368   5.094   4.193  14.196  1.1572 -1.3206 -0.6940
 8651TIP3    H247369   5.197   4.154  14.299  0.3340  0.3662  0.7992
 8652TIP3   OH247370   5.963   1.019   3.584  0.1794  0.2132 -0.2393
 8652TIP3    H147371   5.997   1.089   3.529  1.2082  0.1622  0.3025
 8652TIP3    H247372   5.923   1.064   3.658 -0.9609  0.2747 -0.8886
 8653TIP3   OH247373   5.325   2.298  10.585  0.1649  0.3674 -0.3458
 8653TIP3    H147374   5.272   2.250  10.522 -0.9012  0.3772  0.5266
 8653TIP3    H247375   5.261   2.344  10.640  1.0875  0.6708  0.4848
 8654TIP3   OH247376   2.581   3.162   4.605 -0.5927  0.6924 -0.7038
 8654TIP3    H147377   2.632   3.081   4.595  1.6761  2.0694 -0.7576
 8654TIP3    H247378   2.587   3.183   4.698 -1.7956  0.4153 -0.5612
 8655TIP3   OH247379   4.979   3.003   6.833 -0.1252 -0.0767  0.1725
 8655TIP3    H147380   4.997   3.097   6.825 -0.8815 -0.0740 -1.8443
 8655TIP3    H247381   5.065   2.962   6.838  0.2395  0.6250 -0.2912
 8656TIP3   OH247382   5.469   6.575  11.793 -0.7769  0.1785 -0.0717
 8656TIP3    H147383   5.437   6.555  11.705 -0.5129 -0.5899  0.0054
 8656TIP3    H247384   5.549   6.524  11.801 -0.9325  0.0561  0.7098
 8657TIP3   OH247385   0.207   0.054   4.578 -0.1425 -0.2264  0.5323
 8657TIP3    H147386   0.203   0.006   4.660  0.1182 -1.4395 -0.1520
 8657TIP3    H247387   0.296   0.038   4.545 -0.6740 -0.8649 -0.6286
 8658TIP3   OH247388   6.298   1.979  14.295 -0.6289 -0.0497  0.2614
 8658TIP3    H147389   6.380   1.932  14.310 -0.4215  0.0144 -0.6321
 8658TIP3    H247390   6.325   2.070  14.281 -0.7824 -0.1599 -0.7698
 8659TIP3   OH247391   3.568   1.669   5.014 -0.2459  0.4393  0.6541
 8659TIP3    H147392   3.632   1.705   5.076  0.7422 -1.1801  0.6034
 8659TIP3    H247393   3.527   1.746   4.975  2.8804  1.5710 -0.5580
 8660TIP3   OH247394   0.272   2.215  11.228 -0.5497  0.0757  0.1260
 8660TIP3    H147395   0.284   2.141  11.169 -0.7999  1.3685 -1.5700
 8660TIP3    H247396   0.191   2.257  11.198  0.1299  1.6356  0.4093
 8661TIP3   OH247397   2.165   5.842  10.507 -0.4283 -0.4663 -0.2361
 8661TIP3    H147398   2.210   5.906  10.452 -2.3177 -0.2065 -1.5225
 8661TIP3    H247399   2.230   5.816  10.573  1.6298 -0.2459 -2.1445
 8662TIP3   OH247400   1.097   6.099   0.210  0.4200 -0.1058  0.5552
 8662TIP3    H147401   1.044   6.175   0.229 -1.5564 -1.1088 -0.7615
 8662TIP3    H247402   1.175   6.109   0.264  0.0663  2.6906  0.5846
 8663TIP3   OH247403   5.030   3.698  15.682 -0.2840  0.3610  0.3213
 8663TIP3    H147404   4.980   3.708  15.601 -1.2955 -0.0042  0.8876
 8663TIP3    H247405   4.974   3.643  15.738 -0.4888  2.2379  2.0066
 8664TIP3   OH247406   0.911   0.071   4.634 -0.2572 -0.4610  0.4347
 8664TIP3    H147407   0.904  -0.023   4.617 -2.2020 -0.1814 -0.4654
 8664TIP3    H247408   0.965   0.077   4.713 -1.0628 -2.3936  1.1685
 8665TIP3   OH247409   1.611   3.812   2.384  0.3840  0.0904 -0.1467
 8665TIP3    H147410   1.678   3.877   2.404  0.0385  0.0285  1.2212
 8665TIP3    H247411   1.593   3.769   2.468 -0.5731 -0.6454 -0.7195
 8666TIP3   OH247412   5.618   6.200   3.920 -0.7423  0.5415 -0.4751
 8666TIP3    H147413   5.618   6.144   3.842 -2.8234  0.6002 -0.5556
 8666TIP3    H247414   5.676   6.155   3.981 -0.7767 -0.6517 -1.2931
 8667TIP3   OH247415   6.075   3.927   3.030 -0.2117  0.1213 -0.0006
 8667TIP3    H147416   6.120   3.963   3.107  0.3859 -2.7479  1.0654
 8667TIP3    H247417   6.130   3.853   3.002 -0.1391  1.4450 -3.5500
 8668TIP3   OH247418   2.402   5.788   2.453 -0.1684 -0.1742 -0.5860
 8668TIP3    H147419   2.308   5.801   2.461 -0.1324 -1.1676  2.0948
 8668TIP3    H247420   2.413   5.734   2.375 -1.9913 -1.5077  0.0452
 8669TIP3   OH247421   6.482   5.260   3.251 -0.2524  0.0807 -0.0870
 8669TIP3    H147422   6.498   5.213   3.333 -0.1007 -0.2407 -0.3007
 8669TIP3    H247423   6.563   5.249   3.201 -0.5038 -0.0937 -0.4617
 8670TIP3   OH247424   1.254   3.307  16.713  0.0303 -0.6479  0.6569
 8670TIP3    H147425   1.270   3.321  16.620  1.0718  1.0484  1.0613
 8670TIP3    H247426   1.161   3.286  16.719  0.1299 -1.5823 -0.8389
 8671TIP3   OH247427   4.099   1.405   6.220 -0.0179  0.1816  0.5915
 8671TIP3    H147428   4.168   1.360   6.269 -0.4636  0.9131  1.9111
 8671TIP3    H247429   4.060   1.465   6.283 -1.2280  0.4673 -0.4120
 8672TIP3   OH247430   4.242   6.675  12.568 -0.5921 -0.3947 -0.3876
 8672TIP3    H147431   4.316   6.642  12.620 -1.6124 -0.1350  1.2872
 8672TIP3    H247432   4.223   6.604  12.507  0.1417 -1.0553  0.1329
 8673TIP3   OH247433   1.995   3.235   4.066  0.3333 -0.4361 -0.6324
 8673TIP3    H147434   2.042   3.161   4.027  2.1151 -0.4836  1.5180
 8673TIP3    H247435   2.059   3.276   4.124 -1.3625  1.3722  0.0113
 8674TIP3   OH247436   5.156   3.828  17.159  0.0622 -0.3857 -0.4019
 8674TIP3    H147437   5.124   3.890  17.225 -0.1887 -0.1517 -0.7434
 8674TIP3    H247438   5.086   3.762  17.153 -0.4709  0.2518 -1.3183
 8675TIP3   OH247439   5.351   5.311  16.621  0.2074  0.1432 -0.8713
 8675TIP3    H147440   5.410   5.386  16.607 -0.5440  0.7960 -0.5865
 8675TIP3    H247441   5.325   5.319  16.713 -0.2213 -0.2202 -0.9643
 8676TIP3   OH247442   5.264   0.398  14.026 -0.4193 -0.3704 -0.0901
 8676TIP3    H147443   5.254   0.473  14.085 -2.5620 -0.2279 -0.5783
 8676TIP3    H247444   5.295   0.327  14.082  0.6111  0.5995  0.5812
 8677TIP3   OH247445   0.540   0.745  12.455  0.1593  0.6346  0.2629
 8677TIP3    H147446   0.521   0.805  12.382  0.0197  0.2733 -0.0012
 8677TIP3    H247447   0.454   0.728  12.494  0.3802  1.8663  1.3438
 8678TIP3   OH247448   4.912   2.949   1.590 -0.1876  0.5826 -0.4014
 8678TIP3    H147449   4.878   2.999   1.515 -0.2101  1.1112 -0.0412
 8678TIP3    H247450   4.915   3.012   1.662  0.6673  0.2984 -0.1820
 8679TIP3   OH247451   0.796   6.613  17.160  0.4297  0.5838 -0.1884
 8679TIP3    H147452   0.892   6.616  17.161  0.4112  1.2971 -0.3107
 8679TIP3    H247453   0.769   6.703  17.181 -0.2103  0.4222 -0.3136
 8680TIP3   OH247454   6.780   6.783   4.394 -0.0907 -0.2357 -0.3984
 8680TIP3    H147455   6.856   6.788   4.451 -1.0222  0.6980  0.7862
 8680TIP3    H247456   6.816   6.763   4.308  1.3655 -1.2834  0.4349
 8681TIP3   OH247457   5.184   6.064   2.353  0.2202  0.2831 -0.3111
 8681TIP3    H147458   5.101   6.110   2.356 -1.1517 -2.1697  0.3957
 8681TIP3    H247459   5.188   6.026   2.266 -0.1910 -0.9955  0.2177
 8682TIP3   OH247460   1.931   3.557  13.832 -0.2989 -0.3896  0.4527
 8682TIP3    H147461   1.938   3.462  13.822  1.1807 -0.2169 -0.3229
 8682TIP3    H247462   1.844   3.571  13.868 -1.3363 -1.9044 -1.4007
 8683TIP3   OH247463   3.104   1.551   2.982  0.6798 -0.2319 -0.3852
 8683TIP3    H147464   3.187   1.587   2.951  0.8138 -0.3649 -0.1836
 8683TIP3    H247465   3.109   1.458   2.962  0.6512 -0.2702 -0.2119
 8684TIP3   OH247466   1.675   3.822   4.529  0.1995  0.3267  0.4131
 8684TIP3    H147467   1.666   3.747   4.470  1.9155 -0.0881  0.6615
 8684TIP3    H247468   1.652   3.897   4.475  0.7644 -0.1440 -0.5012
 8685TIP3   OH247469   2.612   0.190  13.692  0.1374 -0.8630  0.3432
 8685TIP3    H147470   2.608   0.223  13.602 -0.9046 -0.2120  0.6223
 8685TIP3    H247471   2.533   0.224  13.733  0.6143 -1.1657  1.5122
 8686TIP3   OH247472   0.600   6.626   5.215  0.0793  0.1353 -0.7402
 8686TIP3    H147473   0.539   6.556   5.192  1.6705 -1.7742  0.7212
 8686TIP3    H247474   0.663   6.627   5.143 -0.5198  0.7523 -1.2587
 8687TIP3   OH247475   3.752   4.018   1.952  0.2505 -0.1025 -0.0670
 8687TIP3    H147476   3.806   3.969   2.014  1.1591  1.1812  0.1774
 8687TIP3    H247477   3.699   4.076   2.006 -0.3215 -0.3111 -0.3955
 8688TIP3   OH247478   3.153   1.421   5.673 -0.3582 -0.3112 -0.1324
 8688TIP3    H147479   3.214   1.474   5.724 -1.0027  1.4987 -1.1865
 8688TIP3    H247480   3.076   1.477   5.662 -0.8279 -1.2545 -1.8018
 8689TIP3   OH247481   4.457   3.581  16.124 -0.3122  0.2815  0.0236
 8689TIP3    H147482   4.544   3.608  16.097 -1.2503  0.8110 -2.5734
 8689TIP3    H247483   4.413   3.662  16.150 -0.1964  0.0721  0.8952
 8690TIP3   OH247484   4.528   1.236   0.231 -0.4533 -0.1134 -0.3659
 8690TIP3    H147485   4.455   1.297   0.238 -0.2545  0.1266 -0.4083
 8690TIP3    H247486   4.533   1.215   0.137 -1.1459 -0.9497 -0.2266
 8691TIP3   OH247487   4.943   5.541  11.701 -0.2558 -0.0722  0.5634
 8691TIP3    H147488   4.909   5.476  11.639 -0.7331  1.2749 -0.6047
 8691TIP3    H247489   4.871   5.557  11.762 -0.3082 -0.2426  0.5464
 8692TIP3   OH247490   4.688   4.131   1.874  0.3169  0.5179  0.1054
 8692TIP3    H147491   4.639   4.194   1.820  0.1847 -0.3586 -0.8100
 8692TIP3    H247492   4.664   4.045   1.839  0.0818 -0.0764  1.7068
 8693TIP3   OH247493   2.067   1.388  15.038 -0.4623  0.1335  0.5217
 8693TIP3    H147494   2.016   1.426  14.966 -0.9273  0.1153  0.8456
 8693TIP3    H247495   2.137   1.339  14.994  0.1468  1.3660  0.0958
 8694TIP3   OH247496   5.878   3.525   3.537  0.2173 -0.4002 -0.5786
 8694TIP3    H147497   5.941   3.575   3.589 -0.6148 -0.3740  0.3982
 8694TIP3    H247498   5.909   3.435   3.541  1.0565 -0.1541 -1.3701
 8695TIP3   OH247499   3.017   4.407  16.712 -0.3126 -0.4400  0.4024
 8695TIP3    H147500   3.073   4.346  16.664 -0.2241 -2.2006  2.6737
 8695TIP3    H247501   3.043   4.494  16.681  1.9882 -1.3805 -0.3318
 8696TIP3   OH247502   5.287   5.231  12.563  0.0469 -0.6453 -0.0463
 8696TIP3    H147503   5.273   5.151  12.614 -0.6820 -0.1517  0.5466
 8696TIP3    H247504   5.288   5.202  12.472 -1.3275 -1.1889  0.0990
 8697TIP3   OH247505   0.512   2.002   3.592 -0.3919  0.4192 -0.0176
 8697TIP3    H147506   0.582   1.940   3.570  0.2674  1.4362 -0.8047
 8697TIP3    H247507   0.555   2.073   3.638 -1.2642 -0.0207  1.5276
 8698TIP3   OH247508   0.126   5.688  16.849 -0.1388 -0.0673 -0.1891
 8698TIP3    H147509   0.078   5.762  16.812  0.8931  0.6820 -0.0622
 8698TIP3    H247510   0.212   5.692  16.807 -0.1353 -1.3036 -0.3125
 8699TIP3   OH247511   2.618   4.524  16.532  0.5178  0.8555 -0.0871
 8699TIP3    H147512   2.646   4.521  16.441 -1.5198 -0.2470 -0.7077
 8699TIP3    H247513   2.598   4.434  16.555  2.2541  0.9407  1.8836
 8700TIP3   OH247514   1.306   0.557  11.327 -0.1591  0.6815 -0.3492
 8700TIP3    H147515   1.395   0.587  11.345  0.0110 -0.1840  0.2402
 8700TIP3    H247516   1.257   0.578  11.406  0.2562 -1.7598  0.6017
 8701TIP3   OH247517   1.045   1.775  13.086  0.1474 -0.2594 -0.0051
 8701TIP3    H147518   1.028   1.839  13.154  1.6952  1.1929 -0.9423
 8701TIP3    H247519   0.999   1.696  13.115  1.2223  0.1442  3.0028
 8702TIP3   OH247520   3.944   6.599   4.287 -0.3891  0.4986  0.3017
 8702TIP3    H147521   3.864   6.547   4.288 -0.9956  1.3877 -0.2898
 8702TIP3    H247522   3.928   6.669   4.350 -0.2059  0.8487 -0.0327
 8703TIP3   OH247523   2.850   2.040  13.315 -0.4157 -0.2162  0.1994
 8703TIP3    H147524   2.856   1.975  13.384 -1.4105 -0.4125  0.1172
 8703TIP3    H247525   2.763   2.026  13.277 -1.3475  2.2324  1.2932
 8704TIP3   OH247526   1.815   5.941  12.073 -0.3474  0.5783  0.3062
 8704TIP3    H147527   1.741   5.935  12.134  0.3214  0.9184  1.1503
 8704TIP3    H247528   1.858   6.023  12.096 -0.3198  0.9178 -0.8929
 8705TIP3   OH247529   2.127   5.076  11.507 -0.3284  0.0912 -0.0621
 8705TIP3    H147530   2.078   5.118  11.577 -0.5936  0.0039 -0.1953
 8705TIP3    H247531   2.136   4.985  11.536 -1.7919 -0.3274 -0.8512
 8706TIP3   OH247532   1.720   2.586  14.699 -0.5474  0.2392  0.4056
 8706TIP3    H147533   1.729   2.645  14.773  1.2417  1.0001 -0.4118
 8706TIP3    H247534   1.742   2.639  14.622 -2.8333 -0.3996 -0.7579
 8707TIP3   OH247535   5.532   2.032   0.230  0.0452 -0.0483  0.1459
 8707TIP3    H147536   5.549   2.107   0.174 -1.5770  1.0673  1.1320
 8707TIP3    H247537   5.441   2.008   0.213  0.4588 -1.6433  0.0327
 8708TIP3   OH247538   0.416   0.814   2.669 -0.4785 -0.3361 -0.5348
 8708TIP3    H147539   0.372   0.856   2.743 -0.1562 -0.7601 -0.1045
 8708TIP3    H247540   0.509   0.833   2.682 -0.5502  0.8719 -1.6382
 8709TIP3   OH247541   4.930   0.823   1.818  0.1032 -0.1205 -0.2068
 8709TIP3    H147542   4.897   0.840   1.730  0.5142  0.3296 -0.2773
 8709TIP3    H247543   4.857   0.781   1.863  0.0200 -0.7241 -0.8821
 8710TIP3   OH247544   4.915   5.164  13.841  0.3368  0.0505  0.3768
 8710TIP3    H147545   4.983   5.113  13.798  1.5180  1.6249  0.3103
 8710TIP3    H247546   4.833   5.128  13.808  1.1234 -1.8192  0.3949
 8711TIP3   OH247547   2.864   2.425   0.749 -0.0826  0.8416 -0.3861
 8711TIP3    H147548   2.785   2.444   0.799 -0.4322 -2.6161  0.4691
 8711TIP3    H247549   2.838   2.434   0.658 -1.8694 -1.5486 -0.1542
 8712TIP3   OH247550   3.305   2.184   4.306 -0.6480 -0.3333 -0.2654
 8712TIP3    H147551   3.217   2.149   4.316 -0.6476 -0.2248  0.1330
 8712TIP3    H247552   3.319   2.237   4.385  0.1736 -1.2290  0.2105
 8713TIP3   OH247553   5.700   0.691  13.987 -0.0775 -0.0827 -0.2359
 8713TIP3    H147554   5.726   0.630  14.056 -0.4628  0.5259  0.4386
 8713TIP3    H247555   5.642   0.639  13.931  1.6207 -1.1162 -1.1152
 8714TIP3   OH247556   3.162   1.367  11.508 -0.2519  0.5444 -0.0746
 8714TIP3    H147557   3.074   1.402  11.492 -0.5226 -0.2841 -0.4343
 8714TIP3    H247558   3.209   1.381  11.425  0.1817  1.6372  0.3501
 8715TIP3   OH247559   5.085   1.492  13.601  0.8539  0.0790 -0.0988
 8715TIP3    H147560   4.991   1.497  13.582  0.4023 -1.0109  1.7690
 8715TIP3    H247561   5.120   1.439  13.530 -0.0508 -0.1180 -0.4110
 8716TIP3   OH247562   5.385   0.103   2.832 -0.1972 -0.4597 -0.0477
 8716TIP3    H147563   5.407   0.092   2.740 -2.0351 -0.8914 -0.4543
 8716TIP3    H247564   5.460   0.064   2.879  0.2911 -1.1391 -1.3578
 8717TIP3   OH247565   6.123   1.760  11.849  0.1947  0.5507  0.2237
 8717TIP3    H147566   6.076   1.801  11.922 -0.7202  0.2863 -0.2111
 8717TIP3    H247567   6.215   1.776  11.868 -0.0818  1.2943  0.9566
 8718TIP3   OH247568   4.715   0.573  11.953  0.1868 -0.5394  0.2039
 8718TIP3    H147569   4.684   0.609  11.870 -1.6079 -1.6979  0.3304
 8718TIP3    H247570   4.753   0.647  12.000 -1.4164  0.7292 -0.4521
 8719TIP3   OH247571   0.623   2.275  12.478 -0.2655 -0.3841 -0.3175
 8719TIP3    H147572   0.655   2.220  12.407 -0.1882 -0.7641  0.0115
 8719TIP3    H247573   0.694   2.338  12.494  0.5148 -1.4925  0.6971
 8720TIP3   OH247574   1.610   5.428   5.895 -0.2924  0.2891 -0.1355
 8720TIP3    H147575   1.700   5.450   5.871 -0.8209  2.1511 -0.4784
 8720TIP3    H247576   1.557   5.491   5.847 -1.7700 -0.5008  0.4405
 8721TIP3   OH247577   3.306   1.438  11.280 -0.2649  0.6268 -0.0150
 8721TIP3    H147578   3.223   1.434  11.232 -0.8420 -1.3624  1.0739
 8721TIP3    H247579   3.368   1.391  11.225 -0.2087  0.9445 -0.2173
 8722TIP3   OH247580   6.251   2.500  14.628 -0.6310 -0.4242  0.3151
 8722TIP3    H147581   6.321   2.438  14.607 -0.0320 -0.2542  1.7183
 8722TIP3    H247582   6.296   2.575  14.667 -1.6006 -0.4614  1.5641
 8723TIP3   OH247583   3.590   3.176   0.849  0.0840 -0.0656  0.1142
 8723TIP3    H147584   3.617   3.143   0.934 -0.0920 -0.6163 -0.0405
 8723TIP3    H247585   3.671   3.192   0.801  0.3286  3.5229  1.5852
 8724TIP3   OH247586   6.349   0.141  13.922  0.7320 -0.4302  0.5249
 8724TIP3    H147587   6.335   0.053  13.956 -1.1500 -0.2881  0.1680
 8724TIP3    H247588   6.350   0.198  13.999  0.8235 -0.6324  0.6714
 8725TIP3   OH247589   4.896   0.511  16.483 -0.2765  0.1456 -0.0402
 8725TIP3    H147590   4.979   0.485  16.442 -2.2797 -1.2457 -3.4416
 8725TIP3    H247591   4.887   0.604  16.463 -0.6891 -0.2649 -1.8159
 8726TIP3   OH247592   5.196   5.578  17.172  0.1224  0.2558  0.2230
 8726TIP3    H147593   5.258   5.520  17.216 -0.6951  0.1983  1.3296
 8726TIP3    H247594   5.207   5.559  17.079  2.2297  0.7463  0.3597
 8727TIP3   OH247595   6.084   4.208   5.244 -0.5044 -0.1221 -0.5655
 8727TIP3    H147596   6.035   4.159   5.309  1.0302 -0.3922  0.4028
 8727TIP3    H247597   6.025   4.279   5.219 -0.9694  0.2257  1.4150
 8728TIP3   OH247598   5.411   3.935  11.684  0.1179 -0.6214 -0.1592
 8728TIP3    H147599   5.453   3.967  11.764 -0.9997  0.9796 -0.1934
 8728TIP3    H247600   5.451   3.849  11.669  1.7260 -0.1110  1.0496
 8729TIP3   OH247601   3.702   1.468   4.859 -0.0908 -0.1018  0.0348
 8729TIP3    H147602   3.659   1.536   4.911 -0.9739 -0.2430 -0.4882
 8729TIP3    H247603   3.704   1.392   4.916  0.2725  0.1669  0.3804
 8730TIP3   OH247604   2.661   4.868   2.249 -0.1330 -0.0865 -0.1361
 8730TIP3    H147605   2.682   4.778   2.273 -0.7714 -0.7991 -2.1701
 8730TIP3    H247606   2.745   4.914   2.253  0.3322 -0.9586  0.1225
 8731TIP3   OH247607   3.232   0.672  16.588 -0.0532 -0.1304 -0.5312
 8731TIP3    H147608   3.266   0.646  16.674 -1.2953 -1.5235 -0.4509
 8731TIP3    H247609   3.155   0.724  16.607  0.5528  0.8712 -0.7811
 8732TIP3   OH247610   3.756   1.587   5.820 -0.7177 -0.0579 -0.1696
 8732TIP3    H147611   3.830   1.545   5.862 -1.0756 -0.0028  0.5216
 8732TIP3    H247612   3.722   1.521   5.759 -1.4138 -0.8511  1.0684
 8733TIP3   OH247613   2.988   6.670   4.365  0.6893 -0.5123 -0.3389
 8733TIP3    H147614   3.047   6.614   4.315  1.9228  0.9168 -0.5032
 8733TIP3    H247615   3.038   6.695   4.443  0.5172  1.1264 -0.7273
 8734TIP3   OH247616   1.051   1.119  13.749  0.4145 -0.4968  0.7525
 8734TIP3    H147617   1.092   1.205  13.748  0.7091 -0.6353 -0.7841
 8734TIP3    H247618   1.109   1.064  13.695 -1.0847 -1.0186 -0.3714
 8735TIP3   OH247619   1.498   4.683   2.872 -0.1978 -0.3146  0.4536
 8735TIP3    H147620   1.450   4.635   2.939 -0.4168 -0.6126  0.0880
 8735TIP3    H247621   1.590   4.671   2.895 -0.3213  1.1030  1.7293
 8736TIP3   OH247622   4.055   1.363   0.760 -0.2654  0.0156 -0.5294
 8736TIP3    H147623   4.005   1.303   0.705 -0.8506  0.0560 -0.0433
 8736TIP3    H247624   4.056   1.321   0.846  0.3900  0.0986 -0.4974
 8737TIP3   OH247625   5.096   0.874   1.111 -0.3671 -0.1314 -0.0162
 8737TIP3    H147626   5.178   0.900   1.069 -1.4996  0.1675 -2.1480
 8737TIP3    H247627   5.099   0.778   1.113  0.5460 -0.0919  1.0334
 8738TIP3   OH247628   5.862   2.505  17.062 -0.2739 -0.0650  0.5845
 8738TIP3    H147629   5.923   2.566  17.020  2.4162  0.4509  4.9628
 8738TIP3    H247630   5.795   2.561  17.101  0.5472 -0.0664  2.0357
 8739TIP3   OH247631   4.255   3.070   2.474 -0.1485 -0.2144 -0.7514
 8739TIP3    H147632   4.274   2.977   2.460 -1.6714 -0.8344  1.0276
 8739TIP3    H247633   4.176   3.087   2.423 -1.4994 -0.6521  1.1120
 8740TIP3   OH247634   2.102   2.223   2.421 -0.0114  0.5173  0.4183
 8740TIP3    H147635   2.118   2.275   2.342  0.7106 -1.2538 -0.6184
 8740TIP3    H247636   2.101   2.287   2.492 -1.3261  2.2196 -1.1016
 8741TIP3   OH247637   1.009   2.106   1.287 -0.4221 -0.7527 -0.3567
 8741TIP3    H147638   0.931   2.080   1.336 -0.5340  1.6143  0.7955
 8741TIP3    H247639   1.082   2.084   1.345 -0.2999 -1.8874 -0.9384
 8742TIP3   OH247640   4.226   6.223  13.854 -0.2625  0.6152  0.2602
 8742TIP3    H147641   4.287   6.280  13.899 -0.7431  0.8311  0.6467
 8742TIP3    H247642   4.149   6.278  13.838 -0.3170  0.3799 -0.3186
 8743TIP3   OH247643   2.129   1.110   1.648  0.1311  0.0962 -0.1325
 8743TIP3    H147644   2.197   1.164   1.609  1.7752 -1.6172  0.2567
 8743TIP3    H247645   2.136   1.127   1.742  1.9787 -2.1752  0.1945
 8744TIP3   OH247646   1.347   4.479   4.084 -0.3968  0.0370  1.0610
 8744TIP3    H147647   1.254   4.457   4.086 -0.6165  0.9410  0.8601
 8744TIP3    H247648   1.382   4.433   4.008 -0.4823 -1.0392  1.6512
 8745TIP3   OH247649   1.747   6.151  15.564 -0.1006 -0.0721  0.0101
 8745TIP3    H147650   1.818   6.114  15.617  1.4090  1.2462 -1.0506
 8745TIP3    H247651   1.764   6.245  15.563 -2.7653  0.4522  1.0262
 8746TIP3   OH247652   5.516   0.294  12.216 -0.3523  0.2670 -0.0617
 8746TIP3    H147653   5.538   0.367  12.275 -1.1759  0.7292 -0.3053
 8746TIP3    H247654   5.599   0.270  12.175  0.0565  0.5859  0.5713
 8747TIP3   OH247655   1.003   0.176  13.908 -0.6210 -0.1519  0.6844
 8747TIP3    H147656   0.976   0.215  13.825 -0.0983  0.3636  0.7566
 8747TIP3    H247657   0.978   0.084  13.900 -0.2914 -0.1726 -0.1607
 8748TIP3   OH247658   3.957   1.468   4.078  0.3515  0.1173 -0.1480
 8748TIP3    H147659   4.020   1.442   4.146  0.5955  1.6802  0.2419
 8748TIP3    H247660   3.909   1.541   4.117 -0.9025 -0.3064 -0.8986
 8749TIP3   OH247661   5.694   1.714  10.993 -0.0396  0.3253  0.3821
 8749TIP3    H147662   5.689   1.809  10.997  1.1966  0.3736  0.9938
 8749TIP3    H247663   5.758   1.696  10.924 -0.2327 -0.0607  0.3016
 8750TIP3   OH247664   3.362   5.853   0.214  0.3347 -0.3660  0.0660
 8750TIP3    H147665   3.425   5.795   0.172 -0.3506 -2.0869  1.3503
 8750TIP3    H247666   3.279   5.833   0.172 -0.2557 -1.7211  1.8073
 8751TIP3   OH247667   0.624   3.159  15.928 -0.2561 -0.3452 -0.4533
 8751TIP3    H147668   0.618   3.236  15.984  2.9361 -1.9574  2.2913
 8751TIP3    H247669   0.670   3.191  15.850  0.0055  0.7876  0.1480
 8752TIP3   OH247670   3.896   5.973  14.330  0.9437  0.5044  0.5292
 8752TIP3    H147671   3.816   6.025  14.323  0.0383 -1.0463 -1.0261
 8752TIP3    H247672   3.865   5.883  14.343  2.4243 -0.0779  0.1057
 8753TIP3   OH247673   5.549   3.491   3.213  0.0882  0.2029  0.0195
 8753TIP3    H147674   5.513   3.568   3.169  0.7930  1.0329  0.8494
 8753TIP3    H247675   5.549   3.515   3.306 -0.4132 -1.1095  0.3607
 8754TIP3   OH247676   2.164   4.266   1.684  0.8923 -0.1939 -0.2743
 8754TIP3    H147677   2.238   4.257   1.625  2.2619  1.3025  1.1405
 8754TIP3    H247678   2.112   4.337   1.646  1.4949  0.4049 -0.0153
 8755TIP3   OH247679   5.256   1.274   3.338 -0.0009 -0.1675 -0.4340
 8755TIP3    H147680   5.238   1.360   3.302  2.5627  0.1477 -1.0552
 8755TIP3    H247681   5.237   1.213   3.266  0.2901  0.0558 -0.6975
 8756TIP3   OH247682   1.907   5.483  15.112  0.6923  0.1368 -0.1422
 8756TIP3    H147683   1.892   5.521  15.198 -1.8267  0.2581 -0.6022
 8756TIP3    H247684   1.954   5.551  15.063 -0.3925  1.1707  0.2384
 8757TIP3   OH247685   2.066   0.241   2.815 -0.7841  0.0210  0.5404
 8757TIP3    H147686   2.144   0.233   2.870 -0.7194 -0.6009  0.3575
 8757TIP3    H247687   2.072   0.330   2.780  0.0723 -0.1706  0.1809
 8758TIP3   OH247688   0.270   4.785  13.222  0.0623  0.4543  0.1957
 8758TIP3    H147689   0.255   4.828  13.138 -0.5148 -0.1265 -0.0047
 8758TIP3    H247690   0.235   4.697  13.210  0.6957  0.1174  0.7941
 8759TIP3   OH247691   5.686   6.113   0.367 -0.4176  0.7009 -0.3087
 8759TIP3    H147692   5.690   6.102   0.272  1.2788 -1.0703 -0.0868
 8759TIP3    H247693   5.778   6.121   0.393 -0.6955 -1.4190  1.4254
 8760TIP3   OH247694   5.222   3.357   4.220  0.3086  0.2554 -0.6749
 8760TIP3    H147695   5.173   3.362   4.137  0.9706 -2.7242 -1.3066
 8760TIP3    H247696   5.270   3.275   4.214  0.5516  0.0993  2.6044
 8761TIP3   OH247697   0.964   0.072  11.526 -0.3811  0.4630  0.4280
 8761TIP3    H147698   0.924   0.072  11.439 -0.4326 -1.1459  0.4323
 8761TIP3    H247699   0.954   0.162  11.557  0.3949  1.2564 -1.5582
 8762TIP3   OH247700   2.127   5.379  11.935 -0.1612  0.3011 -0.2134
 8762TIP3    H147701   2.065   5.399  12.005  0.2386 -1.4065  0.6640
 8762TIP3    H247702   2.073   5.353  11.861 -0.5772  1.7580 -0.4261
 8763TIP3   OH247703   4.810   2.357   0.479 -0.6912  0.1181 -0.1289
 8763TIP3    H147704   4.723   2.396   0.492  0.1209  1.8583  0.2361
 8763TIP3    H247705   4.869   2.412   0.531  1.0593  0.7046 -2.6441
 8764TIP3   OH247706   3.694   3.775   4.547  1.1246  0.2727  0.8816
 8764TIP3    H147707   3.702   3.810   4.458  0.2500  0.6845  0.9643
 8764TIP3    H247708   3.630   3.704   4.539 -1.3198  2.3340  1.7554
 8765TIP3   OH247709   0.881   4.847   2.966 -0.0070 -0.0233 -0.7174
 8765TIP3    H147710   0.943   4.782   2.997 -0.5116 -0.6228 -0.9667
 8765TIP3    H247711   0.869   4.906   3.040 -1.1739 -1.4263  0.2464
 8766TIP3   OH247712   5.622   3.114  10.378 -0.7595  0.3687  0.0162
 8766TIP3    H147713   5.666   3.143  10.458 -0.7727  2.2360 -0.6298
 8766TIP3    H247714   5.635   3.186  10.316 -1.6738 -0.5920 -1.3219
 8767TIP3   OH247715   5.270   1.636  14.804 -0.2812  0.3037  0.4163
 8767TIP3    H147716   5.234   1.550  14.783 -0.3187 -0.3293  2.9339
 8767TIP3    H247717   5.362   1.619  14.827 -0.2137  0.9590  0.6457
 8768TIP3   OH247718   3.162   6.201  14.878  0.3051 -0.0933  0.2983
 8768TIP3    H147719   3.080   6.163  14.848  0.3143 -0.5647  0.8654
 8768TIP3    H247720   3.204   6.235  14.799 -0.9820  1.2039  0.1654
 8769TIP3   OH247721   3.960   2.554  14.429  0.2776 -0.1461  0.3481
 8769TIP3    H147722   4.034   2.558  14.489  1.2501 -2.3253 -0.6507
 8769TIP3    H247723   3.991   2.596  14.349 -0.3320  0.9180  0.6549
 8770TIP3   OH247724   2.103   0.279   3.434  1.0352 -0.6126  0.1201
 8770TIP3    H147725   2.192   0.280   3.470  1.9992 -1.2084 -2.1524
 8770TIP3    H247726   2.116   0.271   3.340 -1.4812 -2.1167 -0.1196
 8771TIP3   OH247727   6.552   1.898   5.812 -0.1419 -0.0171  0.0445
 8771TIP3    H147728   6.569   1.978   5.862 -1.0743  1.8136 -2.4011
 8771TIP3    H247729   6.468   1.866   5.845  0.0602  0.2345  0.7935
 8772TIP3   OH247730   2.475   1.614  14.922 -0.1377  0.9044  0.2448
 8772TIP3    H147731   2.510   1.641  14.837 -1.5244 -0.0482 -0.6588
 8772TIP3    H247732   2.406   1.677  14.941  1.0936  1.9512  1.3586
 8773TIP3   OH247733   3.259   4.053  16.288 -0.4265  0.4589  0.0858
 8773TIP3    H147734   3.182   4.070  16.341 -1.5635 -1.1012 -1.0413
 8773TIP3    H247735   3.332   4.052  16.351 -1.8123 -1.9223  1.7109
 8774TIP3   OH247736   6.625   3.828   0.520 -0.0641 -0.4793  0.2664
 8774TIP3    H147737   6.704   3.775   0.524  0.7913  0.3851 -3.3285
 8774TIP3    H247738   6.654   3.917   0.538 -0.0908 -0.0930 -1.4857
 8775TIP3   OH247739   3.572   1.443   0.887  0.1666  0.8588  0.3320
 8775TIP3    H147740   3.483   1.456   0.854 -0.2244  0.1470  1.0921
 8775TIP3    H247741   3.626   1.433   0.808 -0.4819  0.9356 -0.1195
 8776TIP3   OH247742   4.445   4.592  16.629  0.0289  0.5245  0.2285
 8776TIP3    H147743   4.441   4.619  16.720  1.2121  0.4951  0.2909
 8776TIP3    H247744   4.466   4.672  16.581 -3.1239  1.0970 -0.3263
 8777TIP3   OH247745   6.430   5.132   0.492 -0.0151  0.2072  0.0714
 8777TIP3    H147746   6.348   5.088   0.515  0.2693 -0.3995 -0.0701
 8777TIP3    H247747   6.416   5.223   0.518 -1.5417  0.5708 -1.9034
 8778TIP3   OH247748   2.898   5.081   4.477  1.2789  0.5960 -0.6380
 8778TIP3    H147749   2.811   5.049   4.502  2.4926 -0.9092  1.8758
 8778TIP3    H247750   2.881   5.154   4.418 -1.6998  0.9461  0.5853
 8779TIP3   OH247751   6.247   5.459   5.385 -0.5957 -0.2794 -0.1260
 8779TIP3    H147752   6.197   5.484   5.307  0.6324  0.5958 -0.6472
 8779TIP3    H247753   6.313   5.527   5.395 -1.3597  0.1512  2.2952
 8780TIP3   OH247754   6.435   5.820   5.134 -0.8518 -0.1074 -0.3163
 8780TIP3    H147755   6.458   5.892   5.076 -2.1717 -0.4114 -1.2221
 8780TIP3    H247756   6.514   5.806   5.187  0.0108  0.8341 -1.3349
 8781TIP3   OH247757   6.329   5.054  11.383 -0.3956  0.4372  0.5587
 8781TIP3    H147758   6.302   4.993  11.314 -2.1184  0.6093  1.0608
 8781TIP3    H247759   6.389   5.114  11.339 -2.0958  1.0420 -1.0149
 8782TIP3   OH247760   0.541   6.217  12.369  0.4406 -0.1296  0.3398
 8782TIP3    H147761   0.621   6.257  12.402 -0.4791  2.5789 -0.5396
 8782TIP3    H247762   0.470   6.261  12.417 -0.6319 -0.2083 -1.1106
 8783TIP3   OH247763   3.781   4.047   2.452 -0.7661  0.7183  0.0611
 8783TIP3    H147764   3.774   4.031   2.358 -1.8858 -0.5361  0.3532
 8783TIP3    H247765   3.836   4.126   2.459  0.6910 -0.1346 -1.5707
 8784TIP3   OH247766   5.186   2.570  11.460 -0.2618 -0.6240  0.3969
 8784TIP3    H147767   5.281   2.575  11.475 -0.2216  0.4115 -0.1595
 8784TIP3    H247768   5.159   2.489  11.505  1.2024 -2.0469 -1.2079
 8785TIP3   OH247769   1.903   0.955   1.151 -0.2096 -0.2915  0.0864
 8785TIP3    H147770   1.971   0.953   1.218 -0.6121 -1.1463  0.4712
 8785TIP3    H247771   1.895   1.048   1.128  1.5089 -0.2378 -0.3988
 8786TIP3   OH247772   5.004   0.371   5.048  0.3740 -0.4190  0.3780
 8786TIP3    H147773   4.937   0.306   5.026 -2.2682  1.5494  2.2402
 8786TIP3    H247774   5.069   0.324   5.099 -1.4205 -1.6437  1.5784
 8787TIP3   OH247775   3.577   5.603   0.139  0.0509  0.2653  0.0032
 8787TIP3    H147776   3.569   5.509   0.122 -0.9558  0.4636 -0.6606
 8787TIP3    H247777   3.602   5.608   0.231 -2.2751 -0.5968  0.7290
 8788TIP3   OH247778   5.867   1.208  10.493 -0.3516 -0.0883  0.7112
 8788TIP3    H147779   5.874   1.159  10.411  0.4455 -1.7718  1.7581
 8788TIP3    H247780   5.850   1.298  10.466  0.4347 -0.5231 -1.3116
 8789TIP3   OH247781   4.955   2.461   2.948 -0.9341  0.0343  0.3570
 8789TIP3    H147782   5.025   2.395   2.945  0.6807  1.7388 -0.8439
 8789TIP3    H247783   4.880   2.415   2.986  0.3767 -2.2727  0.2556
 8790TIP3   OH247784   2.843   6.638  14.462  0.2939 -0.2291 -0.1335
 8790TIP3    H147785   2.763   6.667  14.507 -0.3242 -2.3087  0.1889
 8790TIP3    H247786   2.865   6.710  14.404 -2.4420  0.0022 -0.9907
 8791TIP3   OH247787   2.514   3.569   5.072 -0.7215  0.4262  0.2771
 8791TIP3    H147788   2.556   3.654   5.088  0.5643 -0.4340  1.6109
 8791TIP3    H247789   2.502   3.532   5.160 -1.8121 -0.5253 -0.2602
 8792TIP3   OH247790   1.999   2.648  11.490 -0.1999  0.1018 -0.0155
 8792TIP3    H147791   1.911   2.685  11.494 -0.6386 -0.8178 -1.0397
 8792TIP3    H247792   1.986   2.558  11.459  0.9740 -0.4668  1.0923
 8793TIP3   OH247793   3.636   2.924  15.294 -0.1710  0.2565  0.0009
 8793TIP3    H147794   3.655   2.831  15.281  0.1815  0.3945 -0.4789
 8793TIP3    H247795   3.563   2.941  15.235 -1.3153 -0.0872  1.2688
 8794TIP3   OH247796   4.781   4.578  15.658 -0.6779  0.1516  0.1800
 8794TIP3    H147797   4.693   4.614  15.645 -1.4602 -1.5306  0.7450
 8794TIP3    H247798   4.837   4.631  15.601 -2.5970 -0.9929 -2.8562
 8795TIP3   OH247799   5.709   3.409  13.337  0.7044 -0.1080 -0.5671
 8795TIP3    H147800   5.656   3.469  13.389 -0.4481 -0.8309 -0.8973
 8795TIP3    H247801   5.784   3.389  13.392 -0.4075 -0.7211  0.7512
 8796TIP3   OH247802   5.083   5.017  12.506 -0.2064 -0.2297 -0.4541
 8796TIP3    H147803   5.039   5.036  12.423  1.1907  4.4036 -0.2951
 8796TIP3    H247804   5.012   5.015  12.570 -0.7215  3.1234 -0.8124
 8797TIP3   OH247805   3.568   4.890  12.820 -0.6604  0.5333  0.1574
 8797TIP3    H147806   3.569   4.964  12.759 -0.8220  1.5563  1.3588
 8797TIP3    H247807   3.482   4.895  12.861 -0.0153  0.7512  1.5118
 8798TIP3   OH247808   6.277   4.890  16.571 -0.0750 -0.3406  0.6415
 8798TIP3    H147809   6.214   4.898  16.643  0.1654 -2.5825  1.1201
 8798TIP3    H247810   6.325   4.809  16.589  3.2616  1.4987  0.5099
 8799TIP3   OH247811   1.755   5.853  11.818  0.0136  0.5242  0.1102
 8799TIP3    H147812   1.714   5.940  11.811 -0.7421  0.1381 -0.3726
 8799TIP3    H247813   1.799   5.854  11.903  1.6500  2.0657 -0.7361
 8800TIP3   OH247814   2.423   0.033   5.999 -0.0813  0.2971  0.0474
 8800TIP3    H147815   2.357  -0.003   6.058 -1.2885  0.2139 -1.3340
 8800TIP3    H247816   2.447   0.117   6.038 -1.1391  0.4146  0.4559
 8801TIP3   OH247817   2.343   1.157   5.018 -0.6363  0.0747  0.3889
 8801TIP3    H147818   2.257   1.146   5.058 -0.2947  2.1806  1.7736
 8801TIP3    H247819   2.405   1.149   5.090  0.1472  1.2844 -0.1275
 8802TIP3   OH247820   4.602   6.179   3.865  0.0399  0.6020 -0.5147
 8802TIP3    H147821   4.688   6.214   3.887  0.5545 -0.6709 -0.4596
 8802TIP3    H247822   4.579   6.220   3.782  1.9726 -1.1943 -1.9825
 8803TIP3   OH247823   4.253   2.326   3.961 -1.6435 -0.8513  0.2766
 8803TIP3    H147824   4.271   2.419   3.977  1.3342 -1.1929 -0.7135
 8803TIP3    H247825   4.294   2.281   4.035  0.0116 -1.5635 -1.0454
 8804TIP3   OH247826   3.163   6.244  12.253 -0.2114 -0.2833 -0.6458
 8804TIP3    H147827   3.208   6.322  12.218 -2.4236  0.8011 -1.1317
 8804TIP3    H247828   3.171   6.179  12.183  2.5094 -0.8930  0.1447
 8805TIP3   OH247829   1.673   4.341  12.047 -0.3112 -0.3685  0.6075
 8805TIP3    H147830   1.648   4.254  12.078 -3.3593  0.0582 -0.5244
 8805TIP3    H247831   1.600   4.398  12.070  0.1390  1.2066 -1.6331
 8806TIP3   OH247832   1.074   5.548  15.663 -0.6778  0.0244 -0.1345
 8806TIP3    H147833   1.085   5.496  15.742  0.8074  0.5408  0.0061
 8806TIP3    H247834   0.980   5.566  15.659 -0.7800 -0.1282  1.4373
 8807TIP3   OH247835   5.987   2.999   4.362  0.3534 -0.1553 -0.7164
 8807TIP3    H147836   5.919   2.937   4.336  1.1060 -0.1457 -2.7849
 8807TIP3    H247837   5.940   3.070   4.406 -0.9399 -0.3049 -1.8354
 8808TIP3   OH247838   3.321   0.678  12.364  0.1958  0.5662 -0.5875
 8808TIP3    H147839   3.409   0.641  12.374 -0.3007 -0.2300  0.9191
 8808TIP3    H247840   3.294   0.653  12.276  0.3437 -1.6540 -0.0144
 8809TIP3   OH247841   3.873   3.051  13.941  0.9294  0.3329  0.1099
 8809TIP3    H147842   3.888   2.977  13.999  0.8823 -0.8756 -1.3774
 8809TIP3    H247843   3.867   3.012  13.854  2.2998  2.2467 -0.8773
 8810TIP3   OH247844   6.547   4.362   2.890  0.0382  0.2217 -0.2554
 8810TIP3    H147845   6.531   4.298   2.959  0.1320 -0.6655 -1.0435
 8810TIP3    H247846   6.459   4.391   2.864  0.0082  0.6567  0.3207
 8811TIP3   OH247847   2.366   0.305   5.355  0.5294  0.5106  0.0667
 8811TIP3    H147848   2.365   0.317   5.450 -0.0630 -0.8160  0.2411
 8811TIP3    H247849   2.297   0.363   5.323 -2.6066 -2.5156  0.9346
 8812TIP3   OH247850   3.345   0.299  14.360  0.2729  0.0620  0.2077
 8812TIP3    H147851   3.308   0.210  14.357 -1.6522  0.7996  1.3331
 8812TIP3    H247852   3.270   0.356  14.373  1.6201  1.7734  0.6882
 8813TIP3   OH247853   0.211   1.709   1.569  0.6203 -0.2108  0.0410
 8813TIP3    H147854   0.291   1.754   1.596 -0.1451  0.6841  0.8634
 8813TIP3    H247855   0.242   1.630   1.524  1.9643  0.6498 -0.5674
 8814TIP3   OH247856   1.146   6.785  15.023 -0.1876  0.0194 -0.2993
 8814TIP3    H147857   1.151   6.698  15.063  0.8575  0.0200 -0.4154
 8814TIP3    H247858   1.065   6.823  15.058 -0.1613 -0.6358  0.4844
 8815TIP3   OH247859   0.628   3.711   3.819  0.3204 -0.8708  0.0098
 8815TIP3    H147860   0.663   3.673   3.900  3.0083  1.1812 -0.1172
 8815TIP3    H247861   0.618   3.804   3.839 -0.6673 -0.6515 -1.4671
 8816TIP3   OH247862   3.567   4.391   5.030 -0.0384  0.1418 -0.0266
 8816TIP3    H147863   3.536   4.441   4.955  2.0638 -0.3646 -1.2840
 8816TIP3    H247864   3.594   4.457   5.094 -0.0412  0.5828 -0.4832
 8817TIP3   OH247865   2.609   5.607   5.686 -0.2364 -0.3241  0.3974
 8817TIP3    H147866   2.654   5.664   5.623  1.1812  0.2669  1.8937
 8817TIP3    H247867   2.530   5.655   5.709 -1.0306 -0.7874 -1.3137
 8818TIP3   OH247868   4.055   4.507  14.549 -0.1667  0.8350  0.0063
 8818TIP3    H147869   4.051   4.481  14.458 -1.7328 -1.5346  0.7180
 8818TIP3    H247870   4.001   4.586  14.554  3.0872  3.3393 -1.7959
 8819TIP3   OH247871   4.029   6.358   2.009 -0.2621 -0.1095  0.0907
 8819TIP3    H147872   4.075   6.279   2.038  0.2889  0.7094  1.5022
 8819TIP3    H247873   4.068   6.379   1.924 -0.9798 -1.7991 -0.6782
 8820TIP3   OH247874   1.947   4.461  15.368 -0.5654  0.2438 -0.5993
 8820TIP3    H147875   1.861   4.436  15.401  0.2140 -1.5746  0.1289
 8820TIP3    H247876   1.992   4.499  15.443  0.7978 -2.8522  0.2555
 8821TIP3   OH247877   4.396   0.743  17.038  0.1549 -0.6643 -0.5074
 8821TIP3    H147878   4.405   0.824  17.089 -2.1778 -1.1916  0.8318
 8821TIP3    H247879   4.397   0.673  17.104  2.7931 -1.8150 -1.7108
 8822TIP3   OH247880   1.754   6.719  12.691  0.4089 -0.0126  1.1375
 8822TIP3    H147881   1.782   6.784  12.627 -1.6591  1.2021  1.4415
 8822TIP3    H247882   1.692   6.765  12.747 -0.8528 -2.1683  1.5634
 8823TIP3   OH247883   1.726   3.436   5.493 -0.4998  0.0730 -0.1575
 8823TIP3    H147884   1.684   3.382   5.560  1.7115 -0.0857  1.1558
 8823TIP3    H247885   1.756   3.513   5.540  1.6113 -0.3090 -0.8476
 8824TIP3   OH247886   1.298   4.695   6.088  0.3170  0.2545  0.4433
 8824TIP3    H147887   1.365   4.689   6.156  1.1523  2.7672 -0.1081
 8824TIP3    H247888   1.330   4.639   6.018 -0.4252 -2.1521  1.9889
 8825TIP3   OH247889   4.366   3.677   1.856 -0.1337 -0.2347 -0.5880
 8825TIP3    H147890   4.446   3.626   1.839 -1.1307 -0.9990 -3.2186
 8825TIP3    H247891   4.373   3.753   1.799  0.3324  1.5559  1.7783
 8826TIP3   OH247892   3.603   6.373   1.182 -0.2455 -0.4572  0.4681
 8826TIP3    H147893   3.681   6.413   1.143 -1.3208  0.2310 -1.0405
 8826TIP3    H247894   3.637   6.302   1.237  1.5635  1.1130  1.4460
 8827TIP3   OH247895   6.009   0.898  12.776  0.1398 -0.5035  0.2349
 8827TIP3    H147896   6.005   0.806  12.801  0.2348 -0.3770  0.7337
 8827TIP3    H247897   6.102   0.915  12.762  0.4008  0.0901  2.4206
 8828TIP3   OH247898   6.221   1.584  13.479  0.4287  0.1602  0.3040
 8828TIP3    H147899   6.181   1.580  13.567  1.2269 -0.9373  0.6285
 8828TIP3    H247900   6.155   1.545  13.422 -0.5291  1.8411  0.2526
 8829TIP3   OH247901   0.995   4.036   2.336  0.0290 -0.3558 -0.1071
 8829TIP3    H147902   0.966   4.117   2.293 -2.7486 -0.7141  0.9796
 8829TIP3    H247903   1.048   4.066   2.410  3.0919  0.3050 -2.4874
 8830TIP3   OH247904   1.057   2.247  13.604  0.0579 -0.1353  0.0792
 8830TIP3    H147905   1.144   2.209  13.614  0.5281  0.9692  0.2343
 8830TIP3    H247906   1.006   2.213  13.677 -0.1326 -2.1232 -0.9425
 8831TIP3   OH247907   5.896   6.345   3.425  0.2370  0.6295 -0.1542
 8831TIP3    H147908   5.822   6.391   3.384  1.0223 -0.6019 -3.0575
 8831TIP3    H247909   5.858   6.263   3.458 -0.5206  1.8860  2.2602
 8832TIP3   OH247910   2.272   2.769   0.871  0.7003 -0.2573  0.5259
 8832TIP3    H147911   2.213   2.695   0.884 -0.3997  0.6857  1.0152
 8832TIP3    H247912   2.217   2.837   0.832  2.1494 -0.3645 -1.8176
 8833TIP3   OH247913   4.419   5.791   6.389 -0.0820  0.7453  0.4599
 8833TIP3    H147914   4.451   5.701   6.399  1.9522  1.3021 -0.6664
 8833TIP3    H247915   4.352   5.801   6.457 -0.7739 -1.8098  0.1906
 8834TIP3   OH247916   2.016   2.822   5.183  0.0586 -0.2493 -0.1868
 8834TIP3    H147917   2.039   2.887   5.249 -0.2163  0.7636 -1.0791
 8834TIP3    H247918   2.065   2.744   5.209 -0.0964  0.1158  1.2441
 8835TIP3   OH247919   5.458   6.563  14.511 -0.0074 -0.2259 -0.3427
 8835TIP3    H147920   5.457   6.656  14.536  0.0083 -0.0939 -0.8262
 8835TIP3    H247921   5.414   6.518  14.582 -0.1095  0.1695 -0.1568
 8836TIP3   OH247922   0.341   6.706  13.962  0.2360  0.0461 -0.2181
 8836TIP3    H147923   0.409   6.727  14.025 -1.2670  1.4182  0.9871
 8836TIP3    H247924   0.380   6.639  13.905  2.4539  0.5997  0.6263
 8837TIP3   OH247925   4.746   1.333  15.311  1.0397  0.1395 -0.6012
 8837TIP3    H147926   4.730   1.424  15.334 -1.9309 -0.1626 -1.2681
 8837TIP3    H247927   4.731   1.285  15.393 -2.4783 -0.2059 -1.3550
 8838TIP3   OH247928   2.908   5.644  11.081 -0.5099  0.1193  0.3667
 8838TIP3    H147929   2.828   5.684  11.047 -1.0679 -0.8010  0.5898
 8838TIP3    H247930   2.881   5.558  11.113  0.4059  0.1225  1.1942
 8839TIP3   OH247931   5.825   0.512   3.299  0.3360 -0.1483 -0.3262
 8839TIP3    H147932   5.848   0.508   3.207  1.3092  1.7165 -0.1885
 8839TIP3    H247933   5.856   0.598   3.328 -0.5229 -0.4495  1.5787
 8840TIP3   OH247934   0.581   6.720  14.084 -0.1464  0.0338  0.0815
 8840TIP3    H147935   0.603   6.806  14.047 -1.6735 -0.1246 -1.2416
 8840TIP3    H247936   0.662   6.670  14.078 -0.1412  0.3011 -2.2653
 8841TIP3   OH247937   5.935   2.408  15.474  0.4274  0.9867  0.1548
 8841TIP3    H147938   5.866   2.445  15.418 -0.4004  1.2290  1.3207
 8841TIP3    H247939   5.982   2.484  15.506 -0.1960  0.9487  1.1783
 8842TIP3   OH247940   0.121   0.801   1.614  0.5018  0.2506  0.1792
 8842TIP3    H147941   0.184   0.753   1.561  2.8175  1.1142  2.0610
 8842TIP3    H247942   0.117   0.888   1.574 -1.1321 -0.4449 -1.2066
 8843TIP3   OH247943   2.742   3.601  16.438 -0.5969  0.1225  0.0967
 8843TIP3    H147944   2.782   3.517  16.460 -1.5338 -0.5624 -0.7732
 8843TIP3    H247945   2.723   3.641  16.523  1.4552  0.2493  0.5175
 8844TIP3   OH247946   6.490   3.261   3.195 -0.0612 -0.2807  0.0093
 8844TIP3    H147947   6.579   3.233   3.215  0.1971  1.0658  0.7636
 8844TIP3    H247948   6.499   3.348   3.157 -1.0800  0.0203  0.4357
 8845TIP3   OH247949   6.151   6.156  15.488 -0.1708 -0.1592  0.7330
 8845TIP3    H147950   6.119   6.089  15.548 -1.1891  0.5225  0.9656
 8845TIP3    H247951   6.213   6.110  15.431 -0.5571 -1.2035  1.1419
 8846TIP3   OH247952   4.501   5.570   1.443 -0.3700 -0.3703 -0.2082
 8846TIP3    H147953   4.412   5.539   1.457  0.3500 -1.3227  2.4861
 8846TIP3    H247954   4.503   5.657   1.483  0.1855 -0.7855  0.6809
 8847TIP3   OH247955   4.652   5.070  14.788 -0.0781 -0.3749  0.5127
 8847TIP3    H147956   4.580   5.034  14.737 -0.5225 -0.2598  1.0424
 8847TIP3    H247957   4.697   4.994  14.825 -1.4364 -0.3803  2.1978
 8848TIP3   OH247958   1.947   3.262  11.863  0.2232  0.0179  0.6290
 8848TIP3    H147959   2.006   3.192  11.888  0.4515 -0.1033 -0.2253
 8848TIP3    H247960   1.904   3.231  11.783  1.7988  1.6395 -0.9089
 8849TIP3   OH247961   2.113   5.281   4.089 -0.4414  0.4617  0.0409
 8849TIP3    H147962   2.169   5.253   4.016 -0.9068 -0.2052 -0.0612
 8849TIP3    H247963   2.166   5.264   4.167  0.2707  1.6797 -0.1579
 8850TIP3   OH247964   3.328   3.267  12.504  0.1350 -0.2278 -0.8685
 8850TIP3    H147965   3.305   3.341  12.560  3.0947  0.8963 -1.0811
 8850TIP3    H247966   3.257   3.264  12.439 -1.0398  1.1551  0.3056
 8851TIP3   OH247967   3.005   2.671  13.045 -0.1461  0.5226  0.3245
 8851TIP3    H147968   3.055   2.732  13.100  1.6656 -0.4769 -0.1733
 8851TIP3    H247969   3.071   2.632  12.987 -1.5388 -0.7272 -0.4386
 8852TIP3   OH247970   1.094   0.651   0.260  0.4229  0.1831 -0.1149
 8852TIP3    H147971   1.028   0.653   0.191  1.6785  0.4030 -1.3258
 8852TIP3    H247972   1.112   0.558   0.273  0.5737  0.1627 -0.4649
 8853TIP3   OH247973   0.361   0.212   1.843 -0.4063 -0.2882 -0.4210
 8853TIP3    H147974   0.435   0.272   1.836 -0.0308 -0.4207  2.1467
 8853TIP3    H247975   0.286   0.268   1.862 -0.6068 -0.3667 -0.9550
 8854TIP3   OH247976   5.149   3.262   6.014 -0.0764 -0.1920  0.4114
 8854TIP3    H147977   5.120   3.331   5.954  0.7413 -2.3017 -2.5158
 8854TIP3    H247978   5.241   3.282   6.030  0.4717 -1.1582 -1.3437
 8855TIP3   OH247979   2.485   6.592   3.251  0.0389 -0.5318 -0.5456
 8855TIP3    H147980   2.529   6.540   3.184  0.3415 -1.0185  0.0233
 8855TIP3    H247981   2.433   6.528   3.300  1.0617 -0.4233  0.6860
 8856TIP3   OH247982   1.276   1.976   4.616 -0.1356  0.0119 -0.0389
 8856TIP3    H147983   1.255   2.069   4.612 -1.1622 -0.1898  0.4353
 8856TIP3    H247984   1.204   1.933   4.569  0.0037 -0.5835  0.2793
 8857TIP3   OH247985   4.719   3.801  11.735  0.4088  0.5107  0.3066
 8857TIP3    H147986   4.721   3.705  11.741  1.5051  0.3832 -1.5950
 8857TIP3    H247987   4.700   3.830  11.824 -0.1747 -1.4821  0.8614
 8858TIP3   OH247988   1.482   1.430   1.934  0.1686 -0.0497  0.8870
 8858TIP3    H147989   1.449   1.480   2.009 -1.9778 -1.2098  0.7575
 8858TIP3    H247990   1.427   1.352   1.931  1.7274 -1.1344 -0.5344
 8859TIP3   OH247991   1.240   3.486  14.654 -0.1631  0.1799  0.3946
 8859TIP3    H147992   1.288   3.436  14.721  2.5189  0.9523 -0.8901
 8859TIP3    H247993   1.277   3.457  14.571 -1.5465  1.2445 -0.6176
 8860TIP3   OH247994   5.537   4.033   0.665 -0.3006 -0.3953 -0.3272
 8860TIP3    H147995   5.442   4.040   0.680 -0.2666  0.5825 -0.4950
 8860TIP3    H247996   5.551   3.942   0.641 -1.1519 -0.6372  0.0659
 8861TIP3   OH247997   6.721   1.419  12.472  0.4746 -0.4892  0.1490
 8861TIP3    H147998   6.735   1.364  12.395 -0.1491  1.5203 -1.4610
 8861TIP3    H247999   6.655   1.373  12.523  0.7661 -1.7630 -0.5999
 8862TIP3   OH248000   3.134   6.702  15.272  0.0940 -0.1279  0.3880
 8862TIP3    H148001   3.222   6.666  15.266  0.3634  0.0756  2.6933
 8862TIP3    H248002   3.078   6.626  15.288  0.1528 -0.0072  1.1997
 8863TIP3   OH248003   5.469   0.965   0.647  0.2131 -0.4356  0.2356
 8863TIP3    H148004   5.382   1.000   0.629  0.5395  1.2860  1.8424
 8863TIP3    H248005   5.528   1.019   0.593  0.3174 -1.5380 -0.7821
 8864TIP3   OH248006   2.184   2.441   4.834 -0.4147  0.2035  0.5926
 8864TIP3    H148007   2.160   2.375   4.898 -0.3703 -0.8357 -0.4469
 8864TIP3    H248008   2.147   2.523   4.868 -1.6141 -0.5924  1.2170
 8865TIP3   OH248009   4.121   5.466  12.341  0.0734  0.0842  0.4341
 8865TIP3    H148010   4.120   5.433  12.431  1.4633 -1.9557 -0.2735
 8865TIP3    H248011   4.087   5.394  12.288  3.3146 -0.3629 -1.1666
 8866TIP3   OH248012   3.445   2.201  16.411 -0.1409 -0.4315  0.6143
 8866TIP3    H148013   3.504   2.183  16.338 -1.2161 -2.2023  0.1466
 8866TIP3    H248014   3.363   2.229  16.369 -0.1389  0.5158  1.2118
 8867TIP3   OH248015   6.690   4.623  12.743  0.2162 -0.0081 -0.3676
 8867TIP3    H148016   6.644   4.541  12.760  1.0726 -0.4294 -0.0530
 8867TIP3    H248017   6.662   4.648  12.655  0.8125 -1.2271 -0.9156
 8868TIP3   OH248018   5.419   3.411  16.172  0.4837  0.0105 -0.4235
 8868TIP3    H148019   5.339   3.433  16.219  0.4703  0.0484 -0.4640
 8868TIP3    H248020   5.409   3.455  16.087  1.2088  1.2446  0.1202
 8869TIP3   OH248021   5.917   3.740  15.735  0.4620  0.2561  0.3494
 8869TIP3    H148022   5.948   3.816  15.687  0.7693 -0.9717 -1.4382
 8869TIP3    H248023   5.822   3.739  15.721  0.6914 -0.7724 -1.2764
 8870TIP3   OH248024   4.034   2.652  12.633 -0.4505 -0.0240  0.3873
 8870TIP3    H148025   4.091   2.726  12.610 -1.7033  0.0922 -2.5144
 8870TIP3    H248026   3.965   2.691  12.686  0.6018  0.3047  1.5609
 8871TIP3   OH248027   3.130   5.052   0.884  0.2065  0.1157 -0.0276
 8871TIP3    H148028   3.123   5.146   0.903 -0.0160 -0.0893  0.9345
 8871TIP3    H248029   3.129   5.046   0.789  0.7889  1.1368 -0.1053
 8872TIP3   OH248030   1.674   2.472  12.584 -0.2172  0.3206 -0.3737
 8872TIP3    H148031   1.767   2.451  12.597 -0.3833 -0.2917 -0.1717
 8872TIP3    H248032   1.635   2.390  12.556 -1.2112 -0.0775  2.0759
 8873TIP3   OH248033   3.411   3.696  14.931 -0.0116 -0.2349  0.0924
 8873TIP3    H148034   3.370   3.771  14.974 -1.5565  0.9022 -3.2030
 8873TIP3    H248035   3.483   3.735  14.881 -0.1984 -1.0675 -0.8308
 8874TIP3   OH248036   1.395   3.318  17.210  0.0780 -0.6316  0.0934
 8874TIP3    H148037   1.424   3.305  17.120 -1.9337  0.1885 -0.7062
 8874TIP3    H248038   1.345   3.240  17.231 -0.5280 -0.2547  0.0571
 8875TIP3   OH248039   1.547   6.350  15.415 -0.7857  0.2590  0.0139
 8875TIP3    H148040   1.474   6.412  15.408 -2.1560 -1.5184 -2.2356
 8875TIP3    H248041   1.515   6.281  15.472  0.1645  0.8034  1.2268
 8876TIP3   OH248042   2.209   1.588   0.801  0.0649 -0.1841  0.8424
 8876TIP3    H148043   2.264   1.512   0.820  0.4655 -0.5138 -1.5578
 8876TIP3    H248044   2.268   1.652   0.761 -0.8718  0.2350  0.1009
 8877TIP3   OH248045   1.706   4.138  14.270  0.0539  0.4542  0.2515
 8877TIP3    H148046   1.634   4.146  14.332  0.1144  2.2539  0.1148
 8877TIP3    H248047   1.767   4.207  14.295  2.5998 -2.1532  1.4566
 8878TIP3   OH248048   2.154   4.063   0.935  0.3123  0.8259 -0.1700
 8878TIP3    H148049   2.201   4.145   0.921  2.4858 -0.1506  1.0116
 8878TIP3    H248050   2.162   4.015   0.852 -1.4117  1.9891 -1.0333
 8879TIP3   OH248051   6.051   1.953  11.459 -0.1842 -0.4573  0.2461
 8879TIP3    H148052   5.997   1.984  11.531  1.4310 -0.6907  1.6022
 8879TIP3    H248053   6.041   2.020  11.391 -1.7958 -0.2808  0.6485
 8880TIP3   OH248054   0.193   4.359  14.068  0.2450 -0.5762  0.2389
 8880TIP3    H148055   0.236   4.428  14.118  1.4606 -0.8337 -0.4410
 8880TIP3    H248056   0.164   4.403  13.988 -2.3939  0.0197  1.4786
 8881TIP3   OH248057   1.116   0.638  15.181 -0.0546 -0.3318  0.4182
 8881TIP3    H148058   1.164   0.584  15.118 -0.1178  0.1258 -0.0337
 8881TIP3    H248059   1.165   0.720  15.185 -1.1236  0.3903 -0.5441
 8882TIP3   OH248060   5.757   3.917   4.151  0.3038  0.5920  0.1573
 8882TIP3    H148061   5.680   3.958   4.190 -0.6946 -0.1885 -0.9712
 8882TIP3    H248062   5.778   3.972   4.076 -0.6716 -0.5884 -1.0033
 8883TIP3   OH248063   4.001   5.289   2.847  0.0413 -0.1670  0.5723
 8883TIP3    H148064   3.914   5.257   2.821  0.1687  0.0269 -0.0938
 8883TIP3    H248065   3.984   5.343   2.924 -0.4654  0.0930  0.2854
 8884TIP3   OH248066   1.000   0.372   4.285 -0.2965  0.0383 -0.0860
 8884TIP3    H148067   0.905   0.383   4.282 -0.2671  0.3091 -0.0358
 8884TIP3    H248068   1.018   0.298   4.227 -0.7125 -1.0881  1.1633
 8885TIP3   OH248069   0.673   2.765   2.409  0.3680  0.6594  0.1706
 8885TIP3    H148070   0.631   2.851   2.400  1.6449  1.4769  1.7027
 8885TIP3    H248071   0.748   2.781   2.467  1.6401 -1.1484 -0.9085
 8886TIP3   OH248072   0.347   2.769   3.703  0.2622 -0.0349  0.8211
 8886TIP3    H148073   0.340   2.684   3.747 -0.9320 -0.4390 -0.1316
 8886TIP3    H248074   0.314   2.753   3.615 -1.4391  1.7699  1.1087
 8887TIP3   OH248075   1.295   3.185  11.595  0.1158 -0.4853  0.0186
 8887TIP3    H148076   1.376   3.139  11.614 -0.1496 -0.3314  1.5584
 8887TIP3    H248077   1.264   3.217  11.680 -0.5059  1.2044 -0.8196
 8888TIP3   OH248078   1.695   4.315  15.875 -0.1042  0.4229  0.0206
 8888TIP3    H148079   1.785   4.346  15.863 -0.2533  0.0884 -2.2471
 8888TIP3    H248080   1.701   4.248  15.943  1.3961  0.2326 -0.2926
 8889TIP3   OH248081   1.929   5.397  14.862 -0.2735 -0.0470  0.0810
 8889TIP3    H148082   1.924   5.426  14.953 -0.3594 -0.3367  0.1709
 8889TIP3    H248083   2.011   5.347  14.858  0.8354  1.7528 -0.5227
 8890TIP3   OH248084   3.804   5.486  17.044  0.4871 -0.2308  0.1768
 8890TIP3    H148085   3.898   5.480  17.034  0.5576  0.4320  0.3864
 8890TIP3    H248086   3.775   5.396  17.057  1.2897 -0.2863  1.8008
 8891TIP3   OH248087   5.366   4.326  13.511  0.7534  0.0315 -0.2081
 8891TIP3    H148088   5.434   4.392  13.505  1.6820 -0.8596  0.4285
 8891TIP3    H248089   5.295   4.368  13.560  1.7106  0.2454  1.0024
 8892TIP3   OH248090   1.265   2.977  16.836  0.0297 -0.2628 -0.1337
 8892TIP3    H148091   1.344   3.019  16.871  0.3575  0.1004 -1.2619
 8892TIP3    H248092   1.262   3.006  16.744 -1.0061 -0.8787 -0.2972
 8893TIP3   OH248093   3.703   2.409   5.062 -0.3293 -0.4680  0.0803
 8893TIP3    H148094   3.702   2.461   4.982  0.6444  0.3142  0.5661
 8893TIP3    H248095   3.791   2.373   5.067 -0.0866  0.2497  1.2717
 8894TIP3   OH248096   5.889   4.080  15.000  0.2136  0.0241 -0.1070
 8894TIP3    H148097   5.896   4.175  15.011  1.4445 -0.0471 -0.2414
 8894TIP3    H248098   5.914   4.065  14.909 -0.5437 -0.3739 -0.2534
 8895TIP3   OH248099   4.498   6.296   0.447 -0.3078  0.9359  0.3523
 8895TIP3    H148100   4.498   6.210   0.404  0.8920  1.4095 -0.6292
 8895TIP3    H248101   4.527   6.277   0.536 -0.2255  0.2932  0.1975
 8896TIP3   OH248102   2.951   4.297   4.590  0.6018 -0.5394 -0.1620
 8896TIP3    H148103   2.954   4.367   4.525  1.6599 -0.0188  0.4196
 8896TIP3    H248104   3.041   4.267   4.597  0.2486 -1.5682  0.0190
 8897TIP3   OH248105   1.635   0.014   6.092 -0.4434  0.1965 -0.0221
 8897TIP3    H148106   1.564  -0.044   6.065  0.9850 -1.0667 -1.1988
 8897TIP3    H248107   1.595   0.101   6.096 -2.7760 -0.9101  2.3909
 8898TIP3   OH248108   2.773   2.994   5.401 -0.4607  0.0308  0.0866
 8898TIP3    H148109   2.782   2.939   5.323 -0.3408  1.1574 -0.7160
 8898TIP3    H248110   2.852   2.977   5.453  0.0399  0.1622 -0.6230
 8899TIP3   OH248111   0.651   5.326   1.769 -0.2531  0.0613 -0.5359
 8899TIP3    H148112   0.587   5.390   1.802  0.9922  1.6855 -1.1869
 8899TIP3    H248113   0.689   5.288   1.848  0.1266  1.2861 -0.1125
 8900TIP3   OH248114   4.018   0.223   6.674  0.6218 -0.0632 -0.1416
 8900TIP3    H148115   4.062   0.295   6.720 -0.0997  0.2309  0.0886
 8900TIP3    H248116   4.082   0.152   6.674  2.0506  1.1906 -2.0078
 8901TIP3   OH248117   4.428   6.043  14.313 -0.1655  0.3516  0.8715
 8901TIP3    H148118   4.354   6.099  14.290  1.3832  1.7255 -0.8490
 8901TIP3    H248119   4.471   6.088  14.386 -0.2104  0.2289  0.9759
 8902TIP3   OH248120   5.750   0.647   3.874 -0.7653  0.0339  0.9038
 8902TIP3    H148121   5.729   0.573   3.932 -1.0118 -1.9876 -1.6358
 8902TIP3    H248122   5.722   0.617   3.788  0.2142  2.6880 -0.3678
 8903TIP3   OH248123   5.404   0.179   3.463  0.0248 -0.1824  0.3423
 8903TIP3    H148124   5.403   0.122   3.386  0.3078 -0.6009  0.6475
 8903TIP3    H248125   5.497   0.191   3.482  0.1529  3.6707 -2.1596
 8904TIP3   OH248126   5.166   1.936  15.267 -0.1577 -0.1369 -0.5815
 8904TIP3    H148127   5.077   1.907  15.288 -0.5649 -0.3034 -2.4433
 8904TIP3    H248128   5.212   1.935  15.351 -1.6700 -0.8883  0.2621
 8905TIP3   OH248129   5.544   4.940   2.004  0.1180  0.3630 -0.0596
 8905TIP3    H148130   5.564   4.865   2.061 -0.4043  1.9235  2.2382
 8905TIP3    H248131   5.574   4.912   1.917  2.1614 -1.5805  1.1954
 8906TIP3   OH248132   0.573   0.893   5.755 -0.4980 -0.1679  0.0237
 8906TIP3    H148133   0.506   0.829   5.778 -1.4119  0.5926 -0.5208
 8906TIP3    H248134   0.625   0.851   5.686 -0.9274 -0.4291 -0.1372
 8907TIP3   OH248135   3.937   6.640  15.935 -0.5041 -0.3578 -0.1064
 8907TIP3    H148136   3.924   6.563  15.990 -1.0052  0.1238  0.4574
 8907TIP3    H248137   4.022   6.675  15.962 -2.4713  2.1619  3.2174
 8908TIP3   OH248138   1.388   1.882  11.545 -0.4751  0.1812  0.4361
 8908TIP3    H148139   1.383   1.918  11.634 -1.6978 -0.2584  0.5560
 8908TIP3    H248140   1.432   1.798  11.556 -1.9725 -0.5507  0.8390
 8909TIP3   OH248141   3.277   2.839  15.117  0.0102  0.1880 -0.8877
 8909TIP3    H148142   3.353   2.788  15.090  1.4870  0.1635  2.9319
 8909TIP3    H248143   3.302   2.930  15.105  1.0270  0.2044  1.1517
 8910TIP3   OH248144   4.087   6.438   1.016  0.2103  0.0743 -0.1307
 8910TIP3    H148145   4.137   6.493   0.956  0.6384  0.5493  0.6564
 8910TIP3    H248146   4.144   6.362   1.032  0.7580  0.7070  0.9160
 8911TIP3   OH248147   2.661   2.310  11.866 -0.2046  0.4955 -0.3432
 8911TIP3    H148148   2.724   2.345  11.804  1.6508 -1.4286  0.4154
 8911TIP3    H248149   2.641   2.383  11.925 -0.0915  1.6110 -1.6833
 8912TIP3   OH248150   6.632   4.229  11.934 -0.3059  0.3238  0.5431
 8912TIP3    H148151   6.720   4.212  11.966  0.1283  0.8849 -0.3423
 8912TIP3    H248152   6.611   4.316  11.967  0.1962  0.9598 -0.7947
 8913TIP3   OH248153   5.156   5.072   0.871  0.0253 -0.1179 -0.1905
 8913TIP3    H148154   5.187   5.154   0.908  1.6222 -1.3313  1.2365
 8913TIP3    H248155   5.222   5.049   0.806  0.1460 -0.7795  0.1587
 8914TIP3   OH248156   0.760   3.647  10.769 -0.3117 -0.0298 -0.1617
 8914TIP3    H148157   0.776   3.734  10.804  0.7831 -0.4546  0.4107
 8914TIP3    H248158   0.825   3.636  10.699 -0.5830 -0.3112 -0.3750
 8915TIP3   OH248159   4.687   2.568   6.219 -0.5435 -0.0666  0.0685
 8915TIP3    H148160   4.730   2.626   6.281  0.0792 -0.6668  0.2027
 8915TIP3    H248161   4.720   2.595   6.133  0.3382 -0.7255  0.1971
 8916TIP3   OH248162   2.949   0.736   6.199 -0.3020 -0.5022 -0.4054
 8916TIP3    H148163   2.965   0.731   6.293 -3.2114 -0.4782  0.1530
 8916TIP3    H248164   2.857   0.712   6.189  0.0099 -0.7143 -3.2823
 8917TIP3   OH248165   5.014   2.115   5.040  0.2287  0.0528 -0.0535
 8917TIP3    H148166   4.996   2.087   5.130  0.2371  0.4852  0.0811
 8917TIP3    H248167   5.030   2.033   4.993  0.7830 -0.1421  0.4657
 8918TIP3   OH248168   2.799   2.523   0.240  0.2789  0.1496 -0.0352
 8918TIP3    H148169   2.834   2.436   0.259  0.0434  0.0605 -0.0045
 8918TIP3    H248170   2.814   2.534   0.146  1.2475  0.5016  0.1612
 8919TIP3   OH248171   3.984   1.349  11.657 -0.2716  0.3854  0.1001
 8919TIP3    H148172   3.906   1.312  11.698 -2.2200 -0.0280 -3.7471
 8919TIP3    H248173   3.955   1.431  11.617  1.2697  0.3044 -1.2656
 8920TIP3   OH248174   1.241   0.305  15.810 -0.0095 -0.2727 -0.1482
 8920TIP3    H148175   1.314   0.359  15.837  0.2525 -0.5572 -0.2854
 8920TIP3    H248176   1.180   0.366  15.769 -0.4308  0.1684  1.1013
 8921TIP3   OH248177   4.183   2.984  10.634  0.2041  0.5326 -0.3273
 8921TIP3    H148178   4.089   2.993  10.619  0.3093  0.1382 -1.2400
 8921TIP3    H248179   4.219   2.960  10.549  0.7516 -2.2585  0.6538
 8922TIP3   OH248180   1.778   0.712   3.388  0.2237 -0.3097  0.0377
 8922TIP3    H148181   1.684   0.692   3.394 -0.4528  2.6234  0.0580
 8922TIP3    H248182   1.801   0.696   3.297 -1.0301  1.7362 -0.6799
 8923TIP3   OH248183   6.692   1.810   2.055  0.3163  0.1839  0.3176
 8923TIP3    H148184   6.701   1.905   2.053 -1.1377  0.3948  2.3551
 8923TIP3    H248185   6.605   1.793   2.019  0.1422 -0.2987  0.9529
 8924TIP3   OH248186   1.681   1.619  15.341  0.3198  0.6550  0.0027
 8924TIP3    H148187   1.705   1.555  15.407  0.2352  0.8091  0.1849
 8924TIP3    H248188   1.587   1.631  15.352  0.2822  0.5804 -0.2350
 8925TIP3   OH248189   1.067   2.396   4.871 -0.0902 -0.2263 -0.7548
 8925TIP3    H148190   1.127   2.468   4.892 -1.8340  0.5807  1.8142
 8925TIP3    H248191   1.029   2.420   4.786  1.8593  0.1579 -1.5312
 8926TIP3   OH248192   1.428   6.167  15.581 -0.4969 -0.5260 -0.3092
 8926TIP3    H148193   1.340   6.194  15.553 -0.4582 -0.2788 -0.1985
 8926TIP3    H248194   1.426   6.177  15.676 -0.1781 -0.0135 -0.3585
 8927TIP3   OH248195   5.123   4.717  11.214  0.3310  0.1040 -0.2235
 8927TIP3    H148196   5.070   4.710  11.293  0.6840 -1.0963 -0.0728
 8927TIP3    H248197   5.130   4.627  11.183 -1.0855  0.7322 -2.4849
 8928TIP3   OH248198   1.692   1.116  13.741 -0.1329  0.2347 -0.0348
 8928TIP3    H148199   1.684   1.067  13.659 -0.7540  4.1335 -2.4360
 8928TIP3    H248200   1.785   1.137  13.747 -0.5073  2.4516 -1.3606
 8929TIP3   OH248201   4.526   6.343   1.266 -0.2757  0.1047  0.0304
 8929TIP3    H148202   4.480   6.334   1.350 -1.2815  0.0588 -0.5189
 8929TIP3    H248203   4.554   6.254   1.245  1.3452  0.3400  1.0647
 8930TIP3   OH248204   4.508   4.820   5.762 -0.2272 -0.4020  0.3341
 8930TIP3    H148205   4.549   4.888   5.816 -0.5264 -0.8451  1.1281
 8930TIP3    H248206   4.581   4.767   5.731 -0.0199  0.0839 -0.0210
 8931TIP3   OH248207   3.137   1.654   3.362  0.0575 -0.3266  0.0702
 8931TIP3    H148208   3.084   1.579   3.334  1.0054 -1.0694  0.2709
 8931TIP3    H248209   3.224   1.636   3.327  0.3117  0.6456  0.1929
 8932TIP3   OH248210   5.315   3.485   4.846 -0.1446 -0.7499 -0.2765
 8932TIP3    H148211   5.346   3.470   4.756  0.7394  1.8411 -0.4392
 8932TIP3    H248212   5.375   3.433   4.900  1.4325  0.2919 -0.9644
 8933TIP3   OH248213   1.634   5.252   4.966  0.0015 -0.0887 -0.2890
 8933TIP3    H148214   1.683   5.329   4.995 -0.0009  0.7371 -2.4675
 8933TIP3    H248215   1.701   5.193   4.931 -0.2159 -0.2521 -0.4316
 8934TIP3   OH248216   4.429   0.008  13.798 -0.0451 -0.2412 -0.4865
 8934TIP3    H148217   4.400   0.099  13.803  0.2813 -0.2016  1.3816
 8934TIP3    H248218   4.520   0.011  13.828 -0.6448 -1.4227  1.5896
 8935TIP3   OH248219   3.590   1.436  10.998 -0.0241  0.2797 -0.2357
 8935TIP3    H148220   3.589   1.440  10.902  2.3476 -2.0501 -0.4259
 8935TIP3    H248221   3.533   1.363  11.019 -0.2197  0.5333  0.1133
 8936TIP3   OH248222   1.732   3.607  14.013  0.2855  0.1834 -0.1373
 8936TIP3    H148223   1.708   3.695  14.043  0.2418  0.4024 -0.8112
 8936TIP3    H248224   1.722   3.552  14.091 -0.1225  0.6921  0.1770
 8937TIP3   OH248225   4.657   3.188   1.751 -0.6123  0.2389  0.5187
 8937TIP3    H148226   4.610   3.239   1.685  0.7601  1.5449  0.5246
 8937TIP3    H248227   4.646   3.097   1.725 -0.4045  0.7223 -1.2901
 8938TIP3   OH248228   3.668   2.381  13.144  0.1176 -0.3016 -0.4004
 8938TIP3    H148229   3.579   2.354  13.121  0.0782 -0.6883  0.1693
 8938TIP3    H248230   3.718   2.371  13.063  0.1444 -2.3034 -0.1712
 8939TIP3   OH248231   1.338   5.361   2.037 -0.3914  0.1185  0.3120
 8939TIP3    H148232   1.300   5.375   2.124  0.1159  0.0449  0.5465
 8939TIP3    H248233   1.430   5.384   2.047 -0.4683  0.7462 -0.3709
 8940TIP3   OH248234   6.236   5.008  16.120 -0.8546  0.7005  0.7474
 8940TIP3    H148235   6.305   4.965  16.070 -1.7566 -1.7380  1.5156
 8940TIP3    H248236   6.251   5.102  16.106  2.2424  0.2244  0.4320
 8941TIP3   OH248237   3.301   6.045   2.036  0.0660 -1.0538  0.1128
 8941TIP3    H148238   3.376   5.986   2.043  0.2058 -0.8215  0.6453
 8941TIP3    H248239   3.337   6.133   2.051 -0.7396 -1.1962  3.2843
 8942TIP3   OH248240   6.578   0.952   4.297  0.7473  0.6753  0.1404
 8942TIP3    H148241   6.581   0.857   4.307  0.5244  0.7707  1.1718
 8942TIP3    H248242   6.627   0.986   4.373  1.6214  1.3557 -0.7211
 8943TIP3   OH248243   4.677   2.933   2.452  0.0487 -0.3762  0.0989
 8943TIP3    H148244   4.652   3.018   2.417  3.7694  0.6173 -0.3819
 8943TIP3    H248245   4.658   2.871   2.382  0.0820  0.5051 -0.6938
 8944TIP3   OH248246   5.603   3.878   3.213  0.3374  0.0831 -0.7488
 8944TIP3    H148247   5.688   3.834   3.217 -0.0276 -0.4723  2.0781
 8944TIP3    H248248   5.545   3.822   3.264 -1.2206  1.5649 -0.8548
 8945TIP3   OH248249   0.038   5.919  14.303  0.0261 -0.3726 -0.6881
 8945TIP3    H148250   0.090   5.839  14.305 -2.3211 -1.9340  1.8767
 8945TIP3    H248251   0.072   5.968  14.228  0.2983 -4.6270 -3.5826
 8946TIP3   OH248252   1.964   2.824   1.234  0.7370  0.4466 -0.3372
 8946TIP3    H148253   1.972   2.891   1.166 -1.6345  0.3256 -0.8009
 8946TIP3    H248254   1.934   2.872   1.311 -1.7604 -0.1490 -0.8968
 8947TIP3   OH248255   3.970   5.080   1.417  0.2030 -0.1861  0.7204
 8947TIP3    H148256   3.998   5.150   1.476  1.9870 -0.9344  0.7675
 8947TIP3    H248257   3.882   5.058   1.447  0.2694  0.8895  1.7492
 8948TIP3   OH248258   0.202   6.347   0.390  0.3466  0.1561 -0.1579
 8948TIP3    H148259   0.221   6.255   0.408 -0.3697  0.0334 -0.0343
 8948TIP3    H248260   0.282   6.380   0.348  0.6951 -0.4554  0.0204
 8949TIP3   OH248261   5.889   4.240   4.909 -0.5843 -0.3114 -0.7713
 8949TIP3    H148262   5.928   4.153   4.915  0.0465 -0.1014 -1.6910
 8949TIP3    H248263   5.875   4.267   5.000  0.9929 -0.5728 -0.4467
 8950TIP3   OH248264   5.234   5.485  15.981 -0.3090  0.5354 -0.1888
 8950TIP3    H148265   5.245   5.579  15.968  0.9328  0.1186 -2.2687
 8950TIP3    H248266   5.320   5.453  16.007 -1.3110  0.3337  3.1717
 8951TIP3   OH248267   4.867   2.067  13.554  0.0748  0.2214  0.0985
 8951TIP3    H148268   4.859   2.125  13.629  2.2220 -1.0830  1.4072
 8951TIP3    H248269   4.786   2.015  13.555  0.2384 -0.0221  1.7207
 8952TIP3   OH248270   5.935   1.389  16.867  0.2979 -0.1370 -0.0409
 8952TIP3    H148271   5.895   1.425  16.946 -0.1000 -0.6365 -0.0131
 8952TIP3    H248272   5.970   1.465  16.821  0.9395  0.1088  0.8413
 8953TIP3   OH248273   1.590   1.692  12.679  0.3609 -0.2424  0.0243
 8953TIP3    H148274   1.669   1.640  12.663  0.0585 -0.3963 -1.0259
 8953TIP3    H248275   1.554   1.657  12.760  1.3227 -0.2284  0.4618
 8954TIP3   OH248276   5.979   4.357  11.565 -0.0664 -0.7514 -0.4128
 8954TIP3    H148277   5.974   4.426  11.499  0.0044  0.1945  0.5723
 8954TIP3    H248278   6.011   4.281  11.516 -0.1711 -0.1146 -1.5074
 8955TIP3   OH248279   6.415   5.692  13.887  0.3585  0.4717 -0.1785
 8955TIP3    H148280   6.354   5.765  13.875  1.6764  1.9662  1.7129
 8955TIP3    H248281   6.500   5.727  13.859  1.0665 -0.1856  1.0991
 8956TIP3   OH248282   4.531   1.674   1.638  0.0486  0.1058  0.6690
 8956TIP3    H148283   4.595   1.678   1.709  0.7671 -3.1495  0.2476
 8956TIP3    H248284   4.454   1.633   1.677 -0.6270  0.9924  0.2976
 8957TIP3   OH248285   3.397   3.662   2.245 -0.7224  0.1400  0.5353
 8957TIP3    H148286   3.322   3.653   2.188 -0.2973 -0.8878  0.1355
 8957TIP3    H248287   3.411   3.757   2.252  0.1444  0.2638 -2.2657
 8958TIP3   OH248288   3.675   0.914  15.255  0.1852 -0.0089 -0.1092
 8958TIP3    H148289   3.593   0.918  15.304  0.2189  0.3247 -0.0843
 8958TIP3    H248290   3.714   1.000  15.265  1.0429 -0.4902  0.7428
 8959TIP3   OH248291   3.574   4.489   3.852 -1.0633 -0.1287 -0.2738
 8959TIP3    H148292   3.528   4.415   3.812 -0.7660 -1.2007  1.3367
 8959TIP3    H248293   3.523   4.510   3.930  0.3827 -0.3817  0.7414
 8960TIP3   OH248294   1.057   1.376  14.998 -0.0941  0.1200 -0.2792
 8960TIP3    H148295   1.023   1.465  14.988 -0.6895  0.1370  1.6166
 8960TIP3    H248296   0.983   1.320  14.974 -0.3377  0.1449  0.4110
 8961TIP3   OH248297   6.722   1.288  16.756  0.3956 -0.1472  0.1343
 8961TIP3    H148298   6.767   1.346  16.817  1.5708 -2.2817  1.3463
 8961TIP3    H248299   6.787   1.271  16.688  0.1090 -0.1809 -0.1300
 8962TIP3   OH248300   1.667   5.410   3.055 -0.6791 -0.7783 -0.2159
 8962TIP3    H148301   1.738   5.400   2.992  1.4224  0.2704  1.9417
 8962TIP3    H248302   1.658   5.324   3.095 -1.1967 -1.1202 -1.0401
 8963TIP3   OH248303   2.125   4.645   0.738 -0.4774  0.5173  0.0178
 8963TIP3    H148304   2.144   4.570   0.681  0.6371 -1.0555  2.3746
 8963TIP3    H248305   2.206   4.696   0.738 -0.2594  0.1802  0.6570
 8964TIP3   OH248306   5.607   3.913  14.857 -0.7553  0.2175 -0.0862
 8964TIP3    H148307   5.561   3.903  14.940 -0.6722 -1.2924 -0.2061
 8964TIP3    H248308   5.582   3.836  14.806 -1.2743  1.4295 -1.6878
 8965TIP3   OH248309   2.922   5.218   0.297 -0.3519 -0.5429  0.4822
 8965TIP3    H148310   2.984   5.240   0.368  0.8598 -2.1778 -0.0521
 8965TIP3    H248311   2.860   5.158   0.337 -3.0484  2.8788  1.6567
 8966TIP3   OH248312   4.076   2.227  16.492  0.1901 -0.3452 -0.0961
 8966TIP3    H148313   4.068   2.310  16.539  1.1886 -1.2814  1.8029
 8966TIP3    H248314   4.067   2.251  16.400 -0.7542  1.6952  0.4791
 8967TIP3   OH248315   2.287   0.734  16.496 -0.6962 -0.2499  0.6627
 8967TIP3    H148316   2.305   0.662  16.435 -1.1151  0.2310 -0.0301
 8967TIP3    H248317   2.321   0.703  16.580  0.0334 -0.8472  0.1516
 8968TIP3   OH248318   2.524   4.781  14.314 -0.8356 -0.0020  0.3862
 8968TIP3    H148319   2.594   4.836  14.350 -1.7362  2.6400 -1.7460
 8968TIP3    H248320   2.476   4.750  14.391  1.1695  0.1600  1.7492
 8969TIP3   OH248321   3.503   2.360   0.299  0.1355  0.4418 -0.2077
 8969TIP3    H148322   3.538   2.420   0.365 -0.7684 -0.8456  1.4984
 8969TIP3    H248323   3.572   2.353   0.234  1.1137  1.6452  0.6747
 8970TIP3   OH248324   0.884   5.782  13.868  0.2096  0.3303 -0.3208
 8970TIP3    H148325   0.973   5.787  13.834  0.7707 -0.2886  1.0081
 8970TIP3    H248326   0.832   5.744  13.796  1.4809 -1.5542 -0.2850
 8971TIP3   OH248327   2.884   6.694  13.893  0.0519  0.0094 -0.0761
 8971TIP3    H148328   2.901   6.788  13.894  0.7666 -0.0760 -1.8127
 8971TIP3    H248329   2.789   6.687  13.888 -0.0152  0.6461  0.3094
 8972TIP3   OH248330   2.898   0.782  15.687  0.0331 -0.1159  0.2676
 8972TIP3    H148331   2.896   0.712  15.622 -0.4779  0.8384 -0.7723
 8972TIP3    H248332   2.879   0.862  15.637 -1.3399  0.5137  1.7474
 8973TIP3   OH248333   1.394   5.336   1.073  0.6809  0.4447 -0.3556
 8973TIP3    H148334   1.323   5.368   1.130  0.8522  2.2472 -1.1075
 8973TIP3    H248335   1.419   5.252   1.110 -1.6310 -0.0579  0.1304
 8974TIP3   OH248336   5.274   0.089   4.396  0.1657 -0.0808  0.4038
 8974TIP3    H148337   5.311   0.028   4.333 -0.5727 -1.3884  1.2093
 8974TIP3    H248338   5.332   0.085   4.472 -0.0339  0.0068  0.5646
 8975TIP3   OH248339   1.692   6.302  12.033 -0.4749  0.7201 -0.0929
 8975TIP3    H148340   1.660   6.391  12.019 -0.5522  1.0144  1.8356
 8975TIP3    H248341   1.786   6.312  12.049 -0.6250  0.5739  0.9641
 8976TIP3   OH248342   4.951   5.747   0.778 -0.3516 -0.4764 -0.5038
 8976TIP3    H148343   5.031   5.742   0.830 -0.3545 -1.9551 -0.6086
 8976TIP3    H248344   4.972   5.700   0.697 -1.2630 -0.7451 -0.5922
 8977TIP3   OH248345   0.850   1.571  14.486  1.0826  0.4942 -0.2794
 8977TIP3    H148346   0.896   1.540  14.408  0.5279 -0.2980 -0.2891
 8977TIP3    H248347   0.854   1.667  14.479  0.1032  0.4444 -1.8442
 8978TIP3   OH248348   3.555   3.078  16.780  0.0752  0.4681 -0.1718
 8978TIP3    H148349   3.537   3.139  16.852  3.2722  2.3513 -0.8796
 8978TIP3    H248350   3.648   3.088  16.763  0.0299 -2.3796 -2.4278
 8979TIP3   OH248351   6.612   2.682   3.585 -0.2834  0.2540 -0.0086
 8979TIP3    H148352   6.702   2.713   3.580 -0.3199  0.6838  1.6239
 8979TIP3    H248353   6.562   2.742   3.530  0.6568 -0.9867 -2.2780
 8980TIP3   OH248354   3.770   4.038  13.635  0.2215  0.1348 -0.0904
 8980TIP3    H148355   3.863   4.034  13.659  0.3349  0.5007 -0.4607
 8980TIP3    H248356   3.769   4.028  13.540 -0.0714  0.7116 -0.1484
 8981TIP3   OH248357   2.062   4.760  14.768 -0.7410  0.1113  0.3096
 8981TIP3    H148358   2.046   4.822  14.840 -2.3190 -1.3777  1.2733
 8981TIP3    H248359   2.053   4.813  14.689 -1.3511  1.2936  1.1466
 8982TIP3   OH248360   3.796   6.163  12.739  0.5428 -0.4152  0.1193
 8982TIP3    H148361   3.863   6.096  12.730 -0.1177 -1.2166  0.9715
 8982TIP3    H248362   3.742   6.133  12.812  0.2026  1.0253  0.4786
 8983TIP3   OH248363   2.596   2.670  15.015 -0.0359  0.0223 -0.0180
 8983TIP3    H148364   2.599   2.670  14.920  0.4652  0.0288 -0.0049
 8983TIP3    H248365   2.524   2.610  15.037  0.4587 -0.7126 -0.3830
 8984TIP3   OH248366   1.146   1.778   0.683 -0.2953  0.0781 -0.0884
 8984TIP3    H148367   1.221   1.820   0.643 -0.1602 -1.2805 -1.3106
 8984TIP3    H248368   1.146   1.689   0.647 -0.8165 -0.8314  2.0975
 8985TIP3   OH248369   0.770   0.213   3.214 -0.0214  0.4109 -0.2924
 8985TIP3    H148370   0.778   0.295   3.164 -0.7863 -0.3550 -1.7192
 8985TIP3    H248371   0.700   0.230   3.277  0.6643  1.2625  0.2364
 8986TIP3   OH248372   4.058   2.377  11.800 -0.0266 -0.5167 -0.7072
 8986TIP3    H148373   4.008   2.419  11.729 -0.3343 -1.2323 -0.9148
 8986TIP3    H248374   4.149   2.397  11.780 -0.1810  0.2560 -0.6768
 8987TIP3   OH248375   1.633   5.196   3.758 -1.0105 -0.1414 -0.0081
 8987TIP3    H148376   1.576   5.201   3.834 -0.9571  2.1175 -0.0670
 8987TIP3    H248377   1.637   5.286   3.725  0.5099 -0.7246 -1.5277
 8988TIP3   OH248378   4.800   0.993   0.444 -0.2411 -0.3324  0.5799
 8988TIP3    H148379   4.879   1.014   0.395  0.0753  0.5764  1.4592
 8988TIP3    H248380   4.728   1.016   0.386  0.1231 -2.1041 -0.6191
 8989TIP3   OH248381   3.446   5.466  14.660  0.7884 -0.1226  0.4330
 8989TIP3    H148382   3.526   5.465  14.712  1.8057  1.6170 -1.0407
 8989TIP3    H248383   3.431   5.559  14.641 -1.6824 -0.4051  0.8188
 8990TIP3   OH248384   0.067   0.503  13.329 -0.0580 -0.5138 -0.4209
 8990TIP3    H148385   0.094   0.456  13.250  5.0250  2.0988 -0.5000
 8990TIP3    H248386   0.061   0.435  13.396  1.5837 -2.0443 -1.7487
 8991TIP3   OH248387   0.535   4.754  16.593 -0.2512  0.6313 -0.6146
 8991TIP3    H148388   0.498   4.725  16.676  0.5146  0.4006 -0.3518
 8991TIP3    H248389   0.629   4.759  16.609 -0.3317  2.9156 -0.7721
 8992TIP3   OH248390   4.369   2.107   6.103  0.1399 -0.0568  0.0592
 8992TIP3    H148391   4.314   2.178   6.069  0.6723  0.4089  0.1590
 8992TIP3    H248392   4.365   2.117   6.198 -0.4044 -0.6387  0.0977
 8993TIP3   OH248393   4.868   1.107   0.677 -0.3513 -0.1134  0.0922
 8993TIP3    H148394   4.848   1.077   0.589  1.4271  0.6095 -0.5735
 8993TIP3    H248395   4.844   1.033   0.734  0.6642 -1.4555 -1.1987
 8994TIP3   OH248396   5.592   0.024   0.699 -0.2284  0.1262  0.3485
 8994TIP3    H148397   5.540   0.010   0.620  0.3981  2.8819 -0.6079
 8994TIP3    H248398   5.528   0.026   0.771 -1.0258 -0.2186 -0.3453
 8995TIP3   OH248399   2.350   1.052   5.680 -0.1357 -0.8620  0.1405
 8995TIP3    H148400   2.370   0.973   5.629  0.8583 -1.9298  2.1262
 8995TIP3    H248401   2.316   1.018   5.763  1.6389  0.7793  1.5583
 8996TIP3   OH248402   5.332   0.104  17.093 -0.1762  0.3802 -0.0878
 8996TIP3    H148403   5.411   0.078  17.046 -0.2473 -0.8783  0.4633
 8996TIP3    H248404   5.313   0.029  17.150 -1.7201  0.7114 -0.1647
 8997TIP3   OH248405   2.328   3.077  13.789 -0.0501  0.0960  0.8251
 8997TIP3    H148406   2.247   3.068  13.839 -0.7396  0.9502 -0.1074
 8997TIP3    H248407   2.367   3.158  13.820 -1.5809  1.7960 -1.4962
 8998TIP3   OH248408   1.270   4.001  14.572 -0.4185  0.6166  0.1759
 8998TIP3    H148409   1.301   4.079  14.525  0.1542  0.7547  0.7697
 8998TIP3    H248410   1.349   3.950  14.588 -0.7282  0.1545  0.2401
 8999TIP3   OH248411   3.219   0.552  12.125  0.3639  0.5139 -0.5753
 8999TIP3    H148412   3.169   0.633  12.112 -0.0851  0.2250 -0.6776
 8999TIP3    H248413   3.163   0.498  12.181 -0.6729 -0.9012 -2.8666
 9000TIP3   OH248414   1.235   3.731   3.079 -0.2759 -0.0699  0.1425
 9000TIP3    H148415   1.231   3.824   3.099 -0.6219  0.4191 -2.1284
 9000TIP3    H248416   1.241   3.726   2.984  0.1894 -2.3586  0.2461
 9001TIP3   OH248417   4.141   1.048   4.849 -0.2707 -0.4961 -0.1608
 9001TIP3    H148418   4.052   1.034   4.880 -0.5094 -1.9807 -1.4384
 9001TIP3    H248419   4.183   0.962   4.857  1.0920  0.2248  0.5771
 9002TIP3   OH248420   1.242   2.044   2.939  0.4806  0.4566  0.5520
 9002TIP3    H148421   1.257   1.967   2.884  1.1651  0.1227  1.1946
 9002TIP3    H248422   1.224   2.115   2.877 -0.7210 -0.3359 -0.0261
 9003TIP3   OH248423   4.293   2.797   2.397 -0.2315 -0.0680  0.0754
 9003TIP3    H148424   4.218   2.755   2.439 -0.5229  1.8389  1.5670
 9003TIP3    H248425   4.369   2.751   2.432 -0.5629  0.2972  1.3228
 9004TIP3   OH248426   4.329   2.468  15.749 -0.4069 -0.7098  1.1388
 9004TIP3    H148427   4.366   2.413  15.680 -1.2765 -0.4314  0.4410
 9004TIP3    H248428   4.375   2.551  15.743 -0.7500 -0.5560  0.6406
 9005TIP3   OH248429   2.473   4.432  14.311 -0.0039 -0.8863 -0.6935
 9005TIP3    H148430   2.523   4.454  14.390 -0.8043  0.1506 -0.4635
 9005TIP3    H248431   2.535   4.385  14.256  1.0429 -0.1660 -0.1523
 9006TIP3   OH248432   1.451   3.268   3.118 -0.3059  0.6772 -0.4013
 9006TIP3    H148433   1.532   3.249   3.165 -0.6600 -0.9777 -0.4084
 9006TIP3    H248434   1.464   3.355   3.081  0.6702  1.2542  1.2720
 9007TIP3   OH248435   4.811   1.073  16.792  0.7404 -0.4305  0.3892
 9007TIP3    H148436   4.763   1.022  16.856 -0.7196  1.4645  0.8728
 9007TIP3    H248437   4.773   1.161  16.799  1.7496  0.2182 -1.8358
 9008TIP3   OH248438   6.347   4.282   5.328  0.1235  0.2552  0.7082
 9008TIP3    H148439   6.375   4.214   5.390  0.2374 -0.8858 -0.5765
 9008TIP3    H248440   6.262   4.252   5.297  0.1285  0.7584  0.2107
 9009TIP3   OH248441   0.219   2.228   1.982  0.8153 -0.4037 -0.1647
 9009TIP3    H148442   0.283   2.298   1.993 -0.0143  0.3020  0.2101
 9009TIP3    H248443   0.137   2.273   1.963  0.5965 -1.3198 -1.5186
 9010TIP3   OH248444   0.122   5.334   4.277 -0.5759  0.1789  0.4967
 9010TIP3    H148445   0.064   5.340   4.201 -1.3055  0.4736  1.0663
 9010TIP3    H248446   0.070   5.370   4.350  0.7978  1.7370  0.7540
 9011TIP3   OH248447   3.395   2.698   2.104 -0.1404 -0.2918 -0.0528
 9011TIP3    H148448   3.430   2.685   2.016  0.9467 -0.0465  0.3270
 9011TIP3    H248449   3.338   2.774   2.096 -0.9487 -0.9723 -0.7865
 9012TIP3   OH248450   3.507   1.291   4.782 -0.2307  0.4889 -0.3575
 9012TIP3    H148451   3.591   1.256   4.754  0.8162  0.0773  3.0586
 9012TIP3    H248452   3.444   1.223   4.759  0.7330 -0.3205 -0.6585
 9013TIP3   OH248453   4.833   3.784   2.321 -0.1727  0.2928 -0.3284
 9013TIP3    H148454   4.881   3.863   2.344  0.9154 -0.1924 -0.9182
 9013TIP3    H248455   4.885   3.743   2.252 -0.2848 -1.3923  0.5791
 9014TIP3   OH248456   3.373   5.974  11.701  0.1690  0.1990  0.3313
 9014TIP3    H148457   3.427   5.972  11.779 -0.9233 -0.7594  1.0745
 9014TIP3    H248458   3.287   6.005  11.731  0.6304  2.9925 -1.0562
 9015TIP3   OH248459   4.014   4.719  15.050  0.0788  0.2978  0.1549
 9015TIP3    H148460   3.941   4.727  14.989  0.2628 -1.5770 -0.3168
 9015TIP3    H248461   4.092   4.742  14.999 -0.2294  3.4932  0.9597
 9016TIP3   OH248462   4.118   5.774   5.986  0.1685  0.5692 -0.7069
 9016TIP3    H148463   4.137   5.849   5.929  0.2464  3.2688  2.6741
 9016TIP3    H248464   4.024   5.759   5.976  0.4577  0.0015 -2.6867
 9017TIP3   OH248465   6.173   1.504   1.177 -0.7507  0.0595  0.3469
 9017TIP3    H148466   6.215   1.418   1.185 -1.6547 -0.3582  0.6994
 9017TIP3    H248467   6.130   1.518   1.261 -0.7886  0.7690  0.2146
 9018TIP3   OH248468   4.189   1.506   4.552 -0.0339 -0.3082  0.6213
 9018TIP3    H148469   4.212   1.594   4.582 -0.0229 -0.5416  1.3121
 9018TIP3    H248470   4.171   1.457   4.633  0.8890 -1.1960  0.2975
 9019TIP3   OH248471   0.346   4.085  14.863 -0.6711  0.0745 -0.3278
 9019TIP3    H148472   0.412   4.038  14.915  0.4939  2.3572  0.3180
 9019TIP3    H248473   0.279   4.110  14.927 -0.4961  0.6841 -0.3848
 9020TIP3   OH248474   4.602   0.820   3.839 -0.8502 -0.0697 -0.2831
 9020TIP3    H148475   4.694   0.824   3.813 -0.5816 -0.7918  0.5217
 9020TIP3    H248476   4.560   0.889   3.789  0.1483  0.3243 -0.5944
 9021TIP3   OH248477   0.790   0.272  16.715  0.0796 -0.2763 -0.3663
 9021TIP3    H148478   0.805   0.188  16.757  2.8830 -0.2756 -1.2761
 9021TIP3    H248479   0.851   0.332  16.759 -1.2629  1.0950 -0.3216
 9022TIP3   OH248480   3.236   6.538   2.085 -0.7075  0.0460 -1.0579
 9022TIP3    H148481   3.307   6.577   2.033 -0.4552  0.2915 -0.5316
 9022TIP3    H248482   3.277   6.465   2.131  0.5381  3.3113  3.3619
 9023TIP3   OH248483   5.661   5.239  13.396  0.0213 -0.4330 -0.1086
 9023TIP3    H148484   5.752   5.266  13.408 -0.5643  1.7464 -0.2609
 9023TIP3    H248485   5.631   5.291  13.321 -1.1804 -1.5853 -0.4484
 9024TIP3   OH248486   2.893   3.783   2.233 -0.8326 -0.0875 -0.0903
 9024TIP3    H148487   2.878   3.867   2.190 -0.6633  0.1693  0.3520
 9024TIP3    H248488   2.813   3.733   2.216 -1.2477  0.4449  0.3079
 9025TIP3   OH248489   4.840   3.821   3.567 -0.2045  0.2888  0.6476
 9025TIP3    H148490   4.906   3.889   3.576 -0.6685  0.9459 -0.8008
 9025TIP3    H248491   4.772   3.845   3.629 -0.3498  1.1242  0.1630
 9026TIP3   OH248492   6.047   6.225  16.214 -0.2645  0.0328 -0.0634
 9026TIP3    H148493   6.064   6.161  16.282  0.0113 -0.7886 -0.8985
 9026TIP3    H248494   6.133   6.248  16.180 -0.5538 -1.7259 -2.0900
 9027TIP3   OH248495   4.713   2.572   1.969  0.3409 -0.0339 -0.5805
 9027TIP3    H148496   4.629   2.609   1.998  0.1640 -0.6032 -0.3444
 9027TIP3    H248497   4.774   2.645   1.972 -0.1913  0.4316 -0.9365
 9028TIP3   OH248498   6.081   0.894   2.288  0.5900  0.6416 -0.6864
 9028TIP3    H148499   6.145   0.830   2.318 -0.1137 -0.4606 -1.4647
 9028TIP3    H248500   6.011   0.890   2.353  0.6819  0.8376 -0.5757
 9029TIP3   OH248501   6.572   3.985  13.626  0.4213  0.4951 -0.1690
 9029TIP3    H148502   6.532   3.930  13.559  0.6202  0.5163 -0.3062
 9029TIP3    H248503   6.649   3.936  13.655 -0.2570 -0.0053  0.8088
 9030TIP3   OH248504   1.900   1.007  12.560  0.0835 -0.3718  0.3111
 9030TIP3    H148505   1.971   1.069  12.545  0.2987 -0.4859  0.8147
 9030TIP3    H248506   1.927   0.927  12.514  0.1456 -0.3181  0.2561
 9031TIP3   OH248507   6.517   6.104  16.944  0.1099 -0.4700  0.1275
 9031TIP3    H148508   6.525   6.030  16.884 -0.1888 -0.0607 -0.4201
 9031TIP3    H248509   6.493   6.178  16.888 -1.1892 -0.3068  0.8791
 9032TIP3   OH248510   0.412   5.715  16.218 -0.3146  0.3920 -0.1633
 9032TIP3    H148511   0.412   5.667  16.135  0.8194 -1.3714  0.8376
 9032TIP3    H248512   0.478   5.671  16.272 -2.4170  0.2978  2.4109
 9033TIP3   OH248513   4.696   6.072   6.410 -0.2166  0.3519 -0.4869
 9033TIP3    H148514   4.771   6.016   6.432 -0.8316 -0.4552 -0.3910
 9033TIP3    H248515   4.698   6.142   6.474 -0.7544 -0.8149  0.8256
 9034TIP3   OH248516   4.211   3.924  14.306  0.4188  0.1776 -0.1101
 9034TIP3    H148517   4.209   3.966  14.392 -2.0076 -1.1708  0.5326
 9034TIP3    H248518   4.122   3.931  14.273  1.2992  0.6273 -2.5325
 9035TIP3   OH248519   3.936   6.511  11.344 -0.5513  0.0742  0.6451
 9035TIP3    H148520   3.949   6.507  11.439  0.6569  0.4238  0.4948
 9035TIP3    H248521   3.940   6.604  11.323 -1.2647  0.0357  0.3006
 9036TIP3   OH248522   6.151   4.066  13.310  0.2605 -0.3056 -0.1157
 9036TIP3    H148523   6.126   4.151  13.274 -0.1430 -0.2818  0.2123
 9036TIP3    H248524   6.183   4.086  13.398  0.8182 -0.4148 -0.2907
 9037TIP3   OH248525   6.066   6.573   6.017 -0.2803  0.2326 -0.1576
 9037TIP3    H148526   6.104   6.655   5.984  0.0426 -0.2137 -0.9070
 9037TIP3    H248527   5.982   6.567   5.972  0.1301 -0.3411 -0.8653
 9038TIP3   OH248528   2.535   1.103  13.616 -0.0200  0.3039 -0.0494
 9038TIP3    H148529   2.524   1.041  13.688  0.6507  0.5658  0.2863
 9038TIP3    H248530   2.629   1.099  13.595  0.0324  1.2339  0.0020
 9039TIP3   OH248531   0.457   4.279  12.901 -0.1923 -0.5055  0.7207
 9039TIP3    H148532   0.542   4.235  12.905  0.1556  0.1446  0.5934
 9039TIP3    H248533   0.461   4.331  12.820  0.1383  1.2316  1.8377
 9040TIP3   OH248534   0.178   6.274  12.166  0.5509  0.1292  0.0445
 9040TIP3    H148535   0.091   6.267  12.127  0.8502 -0.4863 -0.5081
 9040TIP3    H248536   0.167   6.237  12.254 -0.0358  1.1947  0.4216
 9041TIP3   OH248537   1.364   0.581   2.491 -0.2302  0.1891  0.2409
 9041TIP3    H148538   1.298   0.641   2.456 -1.3292 -0.6649  0.8326
 9041TIP3    H248539   1.381   0.519   2.420  0.1203  0.5395  0.0111
 9042TIP3   OH248540   4.639   5.656   6.051 -0.6043  0.1238 -0.4380
 9042TIP3    H148541   4.544   5.644   6.041 -0.8522  0.5125  1.3409
 9042TIP3    H248542   4.668   5.578   6.097 -0.2539  0.5492  0.0694
 9043TIP3   OH248543   0.450   1.835  13.598 -0.3058 -0.2082 -0.2899
 9043TIP3    H148544   0.361   1.836  13.632  0.8005 -1.7709  2.8557
 9043TIP3    H248545   0.444   1.784  13.517 -2.6412  1.8198 -1.4673
 9044TIP3   OH248546   0.652   2.395   5.885  0.1233  0.3680  0.0903
 9044TIP3    H148547   0.584   2.420   5.822  0.1598 -0.1063 -0.1391
 9044TIP3    H248548   0.610   2.330   5.941  1.1675 -1.9963 -1.7392
 9045TIP3   OH248549   0.923   2.509  11.318  0.1218 -0.0670  0.3206
 9045TIP3    H148550   0.958   2.465  11.241  1.6528  0.9374  0.4035
 9045TIP3    H248551   0.948   2.601  11.306  0.4440  0.0893  2.0174
 9046TIP3   OH248552   3.735   2.874  17.150  0.5107 -0.2996 -0.3373
 9046TIP3    H148553   3.677   2.897  17.223 -0.8492 -0.8573 -1.2167
 9046TIP3    H248554   3.821   2.861  17.191 -0.3436 -1.1860  1.2591
 9047TIP3   OH248555   2.942   0.748  16.617  0.1903 -0.3963  0.0745
 9047TIP3    H148556   2.907   0.779  16.533 -1.8727 -0.4721  0.8836
 9047TIP3    H248557   2.940   0.653  16.610  0.2657 -0.4019  0.1250
 9048TIP3   OH248558   5.530   0.494  12.613 -0.2663 -0.3399  0.1395
 9048TIP3    H148559   5.617   0.530  12.595 -0.6089  0.1678 -0.4956
 9048TIP3    H248560   5.546   0.400  12.625  0.5941 -0.0285  1.5591
 9049TIP3   OH248561   4.512   0.655  11.145 -0.4439 -0.0002 -0.1065
 9049TIP3    H148562   4.572   0.661  11.071  0.9434  1.0666  1.0879
 9049TIP3    H248563   4.482   0.745  11.160  1.0764  0.2092  2.0449
 9050TIP3   OH248564   3.085   1.173  14.424  0.0091  0.4504 -0.4881
 9050TIP3    H148565   3.176   1.174  14.455  0.1777  1.5878 -1.0258
 9050TIP3    H248566   3.047   1.096  14.467  0.3132  1.8257  2.3230
 9051TIP3   OH248567   1.809   1.063   3.865 -0.0300  0.1162 -0.4426
 9051TIP3    H148568   1.802   1.121   3.942 -0.8377  0.6168 -0.8901
 9051TIP3    H248569   1.770   1.113   3.794  2.7880  0.5813 -1.7139
 9052TIP3   OH248570   1.500   6.358  13.287 -0.4413 -0.5304 -0.0067
 9052TIP3    H148571   1.428   6.420  13.277  1.2103  1.3825 -0.3442
 9052TIP3    H248572   1.475   6.303  13.360 -1.6934  0.9159  0.6707
 9053TIP3   OH248573   4.597   5.080  15.316 -0.2063 -0.3012  0.4083
 9053TIP3    H148574   4.518   5.026  15.330 -0.3698 -0.2930 -0.4735
 9053TIP3    H248575   4.649   5.066  15.396 -0.3342 -1.6204  0.2811
 9054TIP3   OH248576   4.167   3.014   1.193  0.1990 -0.0769 -0.1673
 9054TIP3    H148577   4.087   3.028   1.143  0.3316 -1.0691 -0.6619
 9054TIP3    H248578   4.238   3.037   1.134  0.2933  0.5302  0.1776
 9055TIP3   OH248579   3.693   2.080  14.506 -0.1234 -0.8831 -0.2798
 9055TIP3    H148580   3.783   2.064  14.533 -0.3809 -0.6322  0.7531
 9055TIP3    H248581   3.694   2.071  14.411  1.1048 -0.2839 -0.3197
 9056TIP3   OH248582   5.023   0.718  13.607  0.4734 -0.5515 -0.9158
 9056TIP3    H148583   5.072   0.733  13.526 -1.1391 -1.0460 -2.0030
 9056TIP3    H248584   5.002   0.806  13.639  1.1499 -0.3538 -0.9935
 9057TIP3   OH248585   0.738   1.328  16.327 -0.5069 -0.0580  0.0035
 9057TIP3    H148586   0.709   1.340  16.237  0.1296  2.5337  0.1114
 9057TIP3    H248587   0.665   1.358  16.381 -0.0661  0.4380  0.3294
 9058TIP3   OH248588   6.068   0.518  15.205  0.3625  0.4528  0.3022
 9058TIP3    H148589   6.028   0.568  15.133  0.1917  1.8860  1.3662
 9058TIP3    H248590   6.076   0.581  15.276  1.4042 -0.7080  1.2393
 9059TIP3   OH248591   1.095   3.670   3.448 -0.2340 -0.1286 -0.5077
 9059TIP3    H148592   1.035   3.665   3.374 -0.2779  0.6679 -0.5319
 9059TIP3    H248593   1.040   3.655   3.525 -1.0351  3.3329 -0.2975
 9060TIP3   OH248594   5.017   4.471   5.457 -0.3666  0.9367 -0.2425
 9060TIP3    H148595   5.092   4.456   5.514 -0.8076  0.6482  0.2743
 9060TIP3    H248596   4.991   4.383   5.429 -1.8156  0.8395  1.2886
 9061TIP3   OH248597   4.385   4.658  13.375 -0.2986  0.0333 -0.6721
 9061TIP3    H148598   4.380   4.573  13.330  0.2289  0.2763 -1.1980
 9061TIP3    H248599   4.322   4.713  13.329 -1.6018 -0.4448  0.5106
 9062TIP3   OH248600   5.234   0.576   2.067 -0.1126  0.5028 -0.4588
 9062TIP3    H148601   5.165   0.510   2.071 -0.0375  0.4285 -0.3832
 9062TIP3    H248602   5.291   0.546   1.996  0.9460 -0.5109  0.8035
 9063TIP3   OH248603   5.295   1.035   5.630 -0.4203 -0.0917 -0.0423
 9063TIP3    H148604   5.368   1.072   5.680 -0.2541  0.5058 -0.7023
 9063TIP3    H248605   5.227   1.017   5.695  0.2226 -0.4078  0.5428
 9064TIP3   OH248606   2.411   0.805  17.184  0.3674 -0.4948 -0.1138
 9064TIP3    H148607   2.478   0.835  17.124 -0.9619  1.6825 -0.5801
 9064TIP3    H248608   2.330   0.845  17.152 -0.3374  0.9423  3.2051
 9065TIP3   OH248609   4.685   6.548   2.498  0.0509 -0.1178 -0.4491
 9065TIP3    H148610   4.656   6.474   2.445  0.5046 -0.1093 -0.7041
 9065TIP3    H248611   4.698   6.511   2.585 -1.7529  0.0881 -0.0678
 9066TIP3   OH248612   4.242   0.084   6.631  0.1293 -0.0372  0.0084
 9066TIP3    H148613   4.320   0.085   6.686  0.0317  0.3911  0.1463
 9066TIP3    H248614   4.271   0.044   6.549  0.5047  0.1547  0.0460
 9067TIP3   OH248615   1.730   2.704  13.055 -0.0850  0.1201  0.1566
 9067TIP3    H148616   1.661   2.639  13.043 -0.2270  0.0703  1.1448
 9067TIP3    H248617   1.738   2.747  12.970 -1.5673  0.3569  0.1123
 9068TIP3   OH248618   3.948   4.289  16.360 -0.2818  0.1685  0.1081
 9068TIP3    H148619   3.868   4.335  16.336  0.6499  1.3623 -0.7665
 9068TIP3    H248620   3.995   4.277  16.277  0.6906 -0.0465  0.6832
 9069TIP3   OH248621   6.475   5.863  16.825 -0.0101 -0.5456 -0.3972
 9069TIP3    H148622   6.527   5.789  16.795 -0.0073  0.0676 -1.9914
 9069TIP3    H248623   6.384   5.832  16.824  0.0281 -0.6503 -0.7082
 9070TIP3   OH248624   2.555   0.986   2.900 -0.7567 -0.0222 -0.3198
 9070TIP3    H148625   2.480   1.043   2.917  0.1720  0.5688  2.0979
 9070TIP3    H248626   2.602   1.028   2.829 -1.2043  1.1258  0.0519
 9071TIP3   OH248627   1.787   2.566  11.794  0.7209  0.1592  0.4160
 9071TIP3    H148628   1.736   2.647  11.799  0.9117  0.1989  1.7207
 9071TIP3    H248629   1.875   2.592  11.822  1.6022  0.1802 -2.1751
 9072TIP3   OH248630   1.772   0.026  14.801 -0.3559 -0.1582  0.3962
 9072TIP3    H148631   1.730   0.035  14.715 -0.4810 -2.1687  0.2286
 9072TIP3    H248632   1.760  -0.066  14.824  0.3202  0.2010  2.2493
 9073TIP3   OH248633   3.722   4.168   3.184 -0.0147  0.8284 -0.0927
 9073TIP3    H148634   3.686   4.146   3.098  0.6222 -2.4778  0.4218
 9073TIP3    H248635   3.816   4.172   3.169  0.1174 -0.0557  0.5065
 9074TIP3   OH248636   5.440   2.820  15.829  0.1370  0.5930 -0.4271
 9074TIP3    H148637   5.511   2.882  15.817 -0.3710  1.2600 -0.0035
 9074TIP3    H248638   5.387   2.856  15.900  0.5955 -1.0120  0.7761
 9075TIP3   OH248639   4.187   5.940   5.763  0.4142 -0.5676 -0.5279
 9075TIP3    H148640   4.272   5.899   5.778 -0.1973 -2.2207 -1.5077
 9075TIP3    H248641   4.202   6.000   5.689  0.8346 -0.5040 -0.3916
 9076TIP3   OH248642   2.075   1.131  12.102 -0.0611  0.5554  0.2289
 9076TIP3    H148643   1.981   1.119  12.091 -0.4916  2.5302  1.4678
 9076TIP3    H248644   2.088   1.225  12.091  1.6659  0.3956  0.8267
 9077TIP3   OH248645   1.481   0.396   0.717  0.2629 -0.4009 -0.1216
 9077TIP3    H148646   1.536   0.472   0.734  1.3099 -0.8503 -1.4129
 9077TIP3    H248647   1.526   0.323   0.759  0.9942 -0.8804 -1.7115
 9078TIP3   OH248648   6.374   2.846  11.231  0.5412  0.1508  0.4521
 9078TIP3    H148649   6.357   2.914  11.296  0.7644  0.9822 -0.3587
 9078TIP3    H248650   6.462   2.865  11.199 -0.2283  0.7426 -1.3221
 9079TIP3   OH248651   1.455   2.183  15.165 -0.1078 -0.1545 -0.5761
 9079TIP3    H148652   1.486   2.200  15.254 -1.5318 -0.3917 -0.0248
 9079TIP3    H248653   1.522   2.222  15.108  1.2583 -0.7929  0.5755
 9080TIP3   OH248654   5.411   1.781  16.877 -0.4427  0.1240 -0.7380
 9080TIP3    H148655   5.471   1.712  16.906 -1.1331  0.0253  0.4563
 9080TIP3    H248656   5.325   1.740  16.880 -0.7975  0.8973 -0.5025
 9081TIP3   OH248657   5.338   1.533   3.857 -0.1385 -0.3469 -0.3784
 9081TIP3    H148658   5.394   1.572   3.924 -1.9766  0.7063  0.5671
 9081TIP3    H248659   5.304   1.454   3.898 -0.0003 -0.5650 -0.6759
 9082TIP3   OH248660   2.066   5.594   3.224 -0.0760 -0.5066 -0.8528
 9082TIP3    H148661   2.026   5.642   3.152 -0.4081  0.0176 -0.3150
 9082TIP3    H248662   2.159   5.618   3.221 -0.6253  2.0285  0.8690
 9083TIP3   OH248663   5.726   2.464  16.240  0.1757  0.6806 -0.2464
 9083TIP3    H148664   5.801   2.451  16.182  0.0925  0.5022 -0.3155
 9083TIP3    H248665   5.732   2.555  16.267  0.2818  0.7323 -0.4413
 9084TIP3   OH248666   1.034   3.578   4.259  0.0407  0.1921 -0.0293
 9084TIP3    H148667   1.077   3.502   4.220 -1.2165 -0.9465  0.7444
 9084TIP3    H248668   1.102   3.622   4.309  1.0123  0.1439 -1.2877
 9085TIP3   OH248669   0.007   1.892   6.294  0.2308 -0.5690 -0.5801
 9085TIP3    H148670  -0.057   1.883   6.365  1.4644 -0.6358  0.5481
 9085TIP3    H248671  -0.043   1.931   6.222 -0.4565  1.8983  1.1539
 9086TIP3   OH248672   1.418   6.041   5.956  0.3474 -0.2606  0.8410
 9086TIP3    H148673   1.348   6.068   6.016 -0.5988  0.8878 -0.7463
 9086TIP3    H248674   1.442   6.121   5.910  1.6631 -0.9584  0.2923
 9087TIP3   OH248675   4.712   0.825  16.604  0.1775 -0.5135  0.1328
 9087TIP3    H148676   4.720   0.794  16.694 -1.7359  0.8880  0.8215
 9087TIP3    H248677   4.797   0.804  16.564  1.0171 -1.2547  2.2088
 9088TIP3   OH248678   4.663   1.157   4.534 -0.0412 -0.1656 -0.4460
 9088TIP3    H148679   4.693   1.161   4.443  1.5718 -0.0705  0.0692
 9088TIP3    H248680   4.644   1.065   4.550 -1.5416 -0.0086 -1.2434
 9089TIP3   OH248681   6.019   5.639  13.778  0.4230  0.1245 -0.5537
 9089TIP3    H148682   6.056   5.583  13.710  0.5639 -1.5709  0.9081
 9089TIP3    H248683   5.931   5.606  13.792  0.2117  0.7983 -0.2479
 9090TIP3   OH248684   3.578   1.951  12.145  0.2635 -0.2873  0.5427
 9090TIP3    H148685   3.495   1.966  12.192 -0.2252 -0.5456 -0.2252
 9090TIP3    H248686   3.615   2.039  12.134  1.2959 -0.3685  3.0292
 9091TIP3   OH248687   1.353   0.402   3.373  0.1109  0.4841 -0.3018
 9091TIP3    H148688   1.347   0.356   3.456 -0.5427 -0.5445 -0.9048
 9091TIP3    H248689   1.274   0.455   3.369 -0.3070 -0.1584 -0.6655
 9092TIP3   OH248690   1.978   5.503   4.881  0.6035 -0.1374 -0.2220
 9092TIP3    H148691   1.918   5.508   4.807 -1.1802  3.4868  1.3208
 9092TIP3    H248692   1.920   5.502   4.958  2.4617 -1.4682  1.1980
 9093TIP3   OH248693   0.051   3.681   0.522  0.1892 -0.1127  0.1140
 9093TIP3    H148694   0.089   3.594   0.524  0.6155  0.0592 -0.3259
 9093TIP3    H248695   0.124   3.740   0.537  0.1653  0.2343 -1.0724
 9094TIP3   OH248696   1.907   5.593  11.679  0.6872  0.7498 -0.5300
 9094TIP3    H148697   1.835   5.650  11.652  0.8382  1.0570 -0.2831
 9094TIP3    H248698   1.883   5.507  11.645  0.9395  1.1595 -1.7615
 9095TIP3   OH248699   5.243   5.172  15.529 -0.0152 -0.7519 -0.3059
 9095TIP3    H148700   5.235   5.088  15.573 -0.7895 -0.2475  0.5431
 9095TIP3    H248701   5.275   5.232  15.597  1.8275 -0.6369 -1.2341
 9096TIP3   OH248702   0.077   1.745   5.557  0.3760 -0.5002  0.7689
 9096TIP3    H148703  -0.009   1.721   5.592 -0.8130 -0.8023 -2.2173
 9096TIP3    H248704   0.124   1.661   5.553 -0.0762 -0.7241  0.0814
 9097TIP3   OH248705   2.728   1.636   1.978 -0.0231  0.4739 -0.2658
 9097TIP3    H148706   2.704   1.686   2.056 -0.2571  1.0301 -0.6948
 9097TIP3    H248707   2.815   1.669   1.954  1.4130 -1.8057  1.5145
 9098TIP3   OH248708   3.669   2.224  12.170  0.1437 -0.0798  0.2093
 9098TIP3    H148709   3.602   2.292  12.164  0.3708  0.0032 -2.2027
 9098TIP3    H248710   3.731   2.246  12.099  1.4593 -1.4756  0.8893
 9099TIP3   OH248711   5.957   2.883  11.900 -0.2121 -0.3080  0.0355
 9099TIP3    H148712   5.893   2.888  11.829 -0.2900  1.6187  0.2133
 9099TIP3    H248713   6.040   2.865  11.855 -0.3849  0.1453 -0.4780
 9100TIP3   OH248714   1.234   3.586   6.456 -0.5772  0.6123  0.4853
 9100TIP3    H148715   1.289   3.543   6.522  1.9218 -0.1951 -2.0216
 9100TIP3    H248716   1.154   3.535   6.454  0.0269 -0.4114  1.6219
 9101TIP3   OH248717   1.636   5.427   4.222 -0.0605  0.0965  0.2450
 9101TIP3    H148718   1.689   5.361   4.269  1.6250  1.8543  0.8940
 9101TIP3    H248719   1.679   5.436   4.137 -0.0751  0.6180  0.2935
 9102TIP3   OH248720   0.087   1.051  13.854 -0.0116  0.4670  0.3338
 9102TIP3    H148721   0.081   1.124  13.793  0.5969  0.2234 -0.0302
 9102TIP3    H248722   0.057   1.085  13.937 -2.2629  0.4201 -0.4264
 9103TIP3   OH248723   6.521   4.705   1.339 -0.3415 -0.3896  0.4030
 9103TIP3    H148724   6.557   4.723   1.426 -0.6763 -0.7267  0.6153
 9103TIP3    H248725   6.497   4.612   1.342  0.8858 -0.7408 -0.4968
 9104TIP3   OH248726   4.286   4.678  10.413 -0.5442 -0.4929 -0.7307
 9104TIP3    H148727   4.269   4.763  10.373  1.0153  0.5950  0.8955
 9104TIP3    H248728   4.381   4.672  10.419 -0.7155 -0.7497  2.5321
 9105TIP3   OH248729   3.461   2.277  12.955  0.1951 -1.0089  0.0389
 9105TIP3    H148730   3.495   2.188  12.950  1.7081 -0.5339  1.4209
 9105TIP3    H248731   3.532   2.332  12.921 -0.0913 -0.1943  0.7327
 9106TIP3   OH248732   1.597   2.943   5.628  0.4242 -0.2425 -0.1229
 9106TIP3    H148733   1.553   2.985   5.701 -0.2263  0.4111 -0.8718
 9106TIP3    H248734   1.662   2.886   5.668  1.0003  1.1246  0.9325
 9107TIP3   OH248735   1.071   5.905  11.278  0.1093  0.2205  0.0790
 9107TIP3    H148736   1.070   5.997  11.254  3.6474  0.2448 -0.3041
 9107TIP3    H248737   1.027   5.860  11.206  0.5284  1.3924 -0.9256
 9108TIP3   OH248738   1.802   0.566   4.731  0.6191  0.1692  0.2272
 9108TIP3    H148739   1.813   0.567   4.826 -0.2520  0.3898  0.3322
 9108TIP3    H248740   1.710   0.591   4.718  1.3158  2.3405 -0.7556
 9109TIP3   OH248741   3.597   6.472  12.443 -0.3974 -0.0783 -0.1313
 9109TIP3    H148742   3.645   6.400  12.402 -0.1585  0.5188 -0.9238
 9109TIP3    H248743   3.651   6.498  12.517  0.5794  0.6791 -1.0987
 9110TIP3   OH248744   4.079   1.163  15.858  0.0895  0.1948  0.2430
 9110TIP3    H148745   4.080   1.100  15.930 -4.0833  0.0879  0.3307
 9110TIP3    H248746   4.124   1.118  15.786 -0.5123 -1.8368  1.1079
 9111TIP3   OH248747   2.052   2.603  13.498 -0.3630  0.0100 -0.3656
 9111TIP3    H148748   2.010   2.604  13.412  0.8711  0.4904 -0.9793
 9111TIP3    H248749   2.042   2.693  13.530 -0.6319 -0.1135 -0.1091
 9112TIP3   OH248750   5.749   3.693   3.715 -0.5939  0.1025 -0.1863
 9112TIP3    H148751   5.674   3.647   3.754 -0.8168  0.3000 -0.3773
 9112TIP3    H248752   5.764   3.648   3.632  0.3914 -0.8329  0.4955
 9113TIP3   OH248753   3.908   1.281  13.931 -0.2505 -0.0507  0.0505
 9113TIP3    H148754   3.930   1.188  13.923 -0.1558  0.0842 -1.4977
 9113TIP3    H248755   3.985   1.326  13.899 -0.9611  0.5244 -0.8720
 9114TIP3   OH248756   4.823   5.705   1.574 -0.2165 -0.4492 -0.5348
 9114TIP3    H148757   4.738   5.744   1.596 -0.5841 -1.0529 -0.8790
 9114TIP3    H248758   4.877   5.780   1.549  0.2523  0.3053  2.4813
 9115TIP3   OH248759   2.292   2.201  15.539 -0.2860  0.2277 -0.2888
 9115TIP3    H148760   2.375   2.231  15.577  0.1435 -0.3327 -0.7869
 9115TIP3    H248761   2.226   2.235  15.599  0.3848 -0.6566  0.9761
 9116TIP3   OH248762   2.655   4.718  16.715  0.4925 -0.0351  0.5224
 9116TIP3    H148763   2.745   4.746  16.697  0.9827 -0.9507  1.5178
 9116TIP3    H248764   2.631   4.666  16.638  0.8983  0.0109  0.3623
 9117TIP3   OH248765   3.060   3.411   1.734  0.5784 -0.3550 -0.1410
 9117TIP3    H148766   3.075   3.438   1.825 -0.4438 -1.1925  0.2924
 9117TIP3    H248767   3.116   3.470   1.682  1.4494 -0.1020  1.0435
 9118TIP3   OH248768   2.331   4.057  13.633 -0.1272 -0.0733  0.5922
 9118TIP3    H148769   2.294   4.145  13.645  0.1829  0.0628  0.5637
 9118TIP3    H248770   2.292   4.026  13.552  1.0106  0.7000 -0.2802
 9119TIP3   OH248771   5.092   0.313   2.430  0.0154  0.8600 -0.5694
 9119TIP3    H148772   5.162   0.341   2.489  0.7927  0.1506 -1.1355
 9119TIP3    H248773   5.045   0.246   2.479  0.8466  0.0563 -0.8556
 9120TIP3   OH248774   0.072   6.603  13.849  0.0863  0.6961 -0.4707
 9120TIP3    H148775   0.141   6.668  13.860  0.3519  0.8524 -2.7451
 9120TIP3    H248776   0.064   6.593  13.754 -2.5590  0.1806 -0.2253
 9121TIP3   OH248777   2.581   2.669  16.866  0.4485 -0.2239  0.1733
 9121TIP3    H148778   2.558   2.708  16.950  0.5300 -0.2843  0.2232
 9121TIP3    H248779   2.558   2.577  16.875 -0.0437 -0.1228 -0.0570
 9122TIP3   OH248780   2.897   1.211  15.801 -0.3183 -0.1197 -0.2441
 9122TIP3    H148781   2.813   1.168  15.813 -0.8609  1.0125  0.0727
 9122TIP3    H248782   2.888   1.259  15.719  0.3649 -0.7772 -0.7176
 9123TIP3   OH248783   6.572   1.557   3.920  0.3647 -0.5018 -0.8928
 9123TIP3    H148784   6.519   1.491   3.963  1.4007 -0.6815  0.1214
 9123TIP3    H248785   6.660   1.546   3.957  0.5912  1.3240 -0.8249
 9124TIP3   OH248786   2.254   2.090   3.009  0.1443  0.0768 -0.0753
 9124TIP3    H148787   2.249   2.169   3.064  0.3009  0.9966 -1.3634
 9124TIP3    H248788   2.346   2.063   3.015 -0.1091 -0.5830  1.1293
 9125TIP3   OH248789   3.003   4.065  13.393  0.0051  0.5250  0.4241
 9125TIP3    H148790   2.995   4.159  13.379  0.0718  0.4741  0.0347
 9125TIP3    H248791   3.089   4.054  13.435  0.0642  0.6202  0.3273
 9126TIP3   OH248792   5.194   5.563   1.853  0.0701 -0.6605 -0.0908
 9126TIP3    H148793   5.122   5.567   1.790  0.0798 -0.0186 -0.0578
 9126TIP3    H248794   5.273   5.556   1.798 -0.0012 -1.2736 -0.1277
 9127TIP3   OH248795   2.862   3.488  10.880  0.1147 -0.3418 -0.1010
 9127TIP3    H148796   2.955   3.503  10.860  0.3996  2.6757  3.0256
 9127TIP3    H248797   2.862   3.406  10.928  1.3366  0.1423  0.7707
 9128TIP3   OH248798   4.569   1.186   0.750 -0.6367 -0.3674 -0.6850
 9128TIP3    H148799   4.653   1.175   0.795  0.3038 -0.0302 -2.3108
 9128TIP3    H248800   4.566   1.279   0.727 -2.4182  0.0804  1.1694
 9129TIP3   OH248801   0.296   0.631  13.242 -0.7471 -0.0836 -0.3053
 9129TIP3    H148802   0.232   0.635  13.313 -1.0439 -0.1744 -0.5656
 9129TIP3    H248803   0.250   0.588  13.170 -0.7069  0.7175 -0.8231
 9130TIP3   OH248804   5.433   4.223  15.390  0.8177  0.1009 -0.4514
 9130TIP3    H148805   5.450   4.276  15.312  0.0788  0.3876 -0.4210
 9130TIP3    H248806   5.505   4.160  15.392  1.2364  0.5537 -0.9616
 9131TIP3   OH248807   6.420   6.613   1.870  0.1007  0.1038 -0.6101
 9131TIP3    H148808   6.463   6.613   1.784  2.2837  3.9345  0.3312
 9131TIP3    H248809   6.487   6.581   1.930  0.6890  3.0084  0.4077
 9132TIP3   OH248810   4.482   0.402  12.603 -0.5843  0.0328  0.4857
 9132TIP3    H148811   4.552   0.369  12.659 -0.3609 -0.7058 -0.2178
 9132TIP3    H248812   4.506   0.493  12.586  0.0105 -0.1104  0.5465
 9133TIP3   OH248813   6.496   2.857   6.016 -0.1949  0.1139  0.0501
 9133TIP3    H148814   6.575   2.807   6.038  0.1729  1.2469  1.3747
 9133TIP3    H248815   6.461   2.885   6.101 -0.3794  2.1019 -0.6605
 9134TIP3   OH248816   6.671   2.443   4.137  0.3587  0.3277  0.5069
 9134TIP3    H148817   6.687   2.383   4.065 -0.7211  1.6428 -0.8623
 9134TIP3    H248818   6.582   2.476   4.122  1.0251  2.4622  1.0537
 9135TIP3   OH248819   4.880   4.591   2.374 -0.4273 -0.4654  0.5627
 9135TIP3    H148820   4.917   4.672   2.338 -0.7736  0.4831  2.2624
 9135TIP3    H248821   4.951   4.528   2.370  0.5456  0.5689  1.2592
 9136TIP3   OH248822   3.060   2.386   5.832 -0.2087  0.6144 -0.5907
 9136TIP3    H148823   3.069   2.380   5.927 -0.0694 -1.7466 -0.7344
 9136TIP3    H248824   3.127   2.449   5.806  1.2643 -0.3830  0.6610
 9137TIP3   OH248825   0.766   3.946   4.091  0.0196  0.1715  0.5423
 9137TIP3    H148826   0.856   3.913   4.095  0.1407  0.5709  1.2065
 9137TIP3    H248827   0.712   3.869   4.113  0.0980 -0.4828 -1.4800
 9138TIP3   OH248828   2.396   6.584  13.736 -0.7028  0.0367  0.4656
 9138TIP3    H148829   2.434   6.498  13.753 -1.6697 -0.0831  2.0791
 9138TIP3    H248830   2.349   6.606  13.817 -0.4090  2.0999  0.0904
 9139TIP3   OH248831   6.716   2.361   0.760 -0.3737 -0.4167  0.1822
 9139TIP3    H148832   6.718   2.286   0.701 -0.8916 -0.9612  0.8423
 9139TIP3    H248833   6.799   2.356   0.808  0.6677  0.8234 -1.4593
 9140TIP3   OH248834   6.008   2.728   6.389  0.7553 -0.5917 -0.7782
 9140TIP3    H148835   5.953   2.674   6.446  2.8429 -1.9002  0.0333
 9140TIP3    H248836   5.963   2.813   6.386 -2.0547 -2.0395 -1.2946
 9141TIP3   OH248837   6.403   2.998   0.740  0.5363 -0.1062  0.2100
 9141TIP3    H148838   6.487   2.996   0.694 -0.2455  1.0220 -1.3358
 9141TIP3    H248839   6.361   2.915   0.719  0.9433 -0.3402  0.3381
 9142TIP3   OH248840   0.527   6.263   1.284  0.0184  0.3528 -0.3277
 9142TIP3    H148841   0.585   6.279   1.210 -0.4150 -0.2995 -0.8113
 9142TIP3    H248842   0.439   6.282   1.251  0.0044  2.1166  0.6285
 9143TIP3   OH248843   0.949   2.721   4.714 -0.1368 -0.5866 -0.0998
 9143TIP3    H148844   1.027   2.722   4.769 -0.2089  0.0147 -0.0060
 9143TIP3    H248845   0.947   2.633   4.678  0.5369 -0.6370 -0.0292
 9144TIP3   OH248846   1.141   3.981   5.738 -0.4075  0.6440  0.0050
 9144TIP3    H148847   1.079   4.043   5.698 -0.6209  1.2137  1.2072
 9144TIP3    H248848   1.186   3.942   5.663 -1.1453  1.3452 -0.8247
 9145TIP3   OH248849   6.453   3.021   0.332 -0.1406  0.2422 -1.0078
 9145TIP3    H148850   6.422   2.934   0.309 -0.5005 -0.3901  1.7657
 9145TIP3    H248851   6.375   3.076   0.331 -0.2634  0.0745 -0.6355
 9146TIP3   OH248852   1.470   3.807  12.487 -0.3886  0.2085  0.6472
 9146TIP3    H148853   1.562   3.788  12.507 -0.4974  0.4857  1.4459
 9146TIP3    H248854   1.453   3.891  12.530 -0.9330  0.3080  0.2464
 9147TIP3   OH248855   2.397   3.883  11.898  0.1506  0.6646 -0.0056
 9147TIP3    H148856   2.367   3.956  11.952 -2.4932 -0.2355 -0.2117
 9147TIP3    H248857   2.399   3.919  11.809 -0.2064  0.7481  0.0197
 9148TIP3   OH248858   0.551   2.994   5.188  0.0515 -0.3471  0.9030
 9148TIP3    H148859   0.488   3.061   5.162 -0.9035 -1.1946  1.0315
 9148TIP3    H248860   0.527   2.917   5.137  0.3110 -0.9886  1.7490
 9149TIP3   OH248861   3.935   1.854   5.494  0.4722  0.0065 -0.0517
 9149TIP3    H148862   3.982   1.936   5.508 -1.4869  0.9371  1.1748
 9149TIP3    H248863   3.843   1.875   5.508 -0.2515 -2.0060 -1.4729
 9150TIP3   OH248864   2.024   5.187   4.567  0.2623  0.1061  0.7989
 9150TIP3    H148865   2.054   5.144   4.647 -0.2357  0.5975  1.2417
 9150TIP3    H248866   2.008   5.278   4.592  0.5733  0.3745  0.0327
 9151TIP3   OH248867   5.022   1.419  16.982 -0.2687 -0.2354 -0.3478
 9151TIP3    H148868   4.959   1.483  17.014 -0.6514 -0.2221 -1.1136
 9151TIP3    H248869   4.983   1.385  16.902 -0.7717 -2.5450  0.8449
 9152TIP3   OH248870   2.581   0.602   1.625 -0.0438  0.4209  0.1205
 9152TIP3    H148871   2.648   0.534   1.638  0.4946  1.2390  1.7023
 9152TIP3    H248872   2.625   0.669   1.573 -0.1506  0.2026 -0.2549
 9153TIP3   OH248873   2.563   5.753   3.442 -0.3067 -0.4734 -0.1257
 9153TIP3    H148874   2.510   5.827   3.414  0.3456 -0.2774 -0.8956
 9153TIP3    H248875   2.596   5.715   3.360 -0.0310 -1.1574  0.2928
 9154TIP3   OH248876   2.339   3.977  11.645  0.2103  0.4444 -0.2929
 9154TIP3    H148877   2.295   3.919  11.582  0.8393 -1.6283  1.1224
 9154TIP3    H248878   2.368   4.051  11.592 -0.7752 -0.4240 -2.1301
 9155TIP3   OH248879   5.452   4.636  15.217 -0.2931 -0.4402  0.2200
 9155TIP3    H148880   5.542   4.617  15.244  0.0263 -1.0728 -1.2780
 9155TIP3    H248881   5.426   4.712  15.271  0.4058 -1.5243  2.1352
 9156TIP3   OH248882   4.918   5.976   5.795 -0.1344 -0.3560  0.3617
 9156TIP3    H148883   4.953   5.954   5.708  1.8947 -0.0473  1.0833
 9156TIP3    H248884   4.870   5.897   5.822 -0.9173 -0.3994 -1.0876
 9157TIP3   OH248885   5.762   6.141  13.284 -0.1837  0.0178 -0.5251
 9157TIP3    H148886   5.684   6.186  13.316  0.4126  0.7408 -0.0488
 9157TIP3    H248887   5.740   6.048  13.285 -0.7335  0.1584  0.4340
 9158TIP3   OH248888   4.833   1.130   2.561  0.3139  0.2199  0.0049
 9158TIP3    H148889   4.826   1.086   2.477 -1.1073 -1.4208  0.9541
 9158TIP3    H248890   4.920   1.106   2.593 -0.5034 -2.0572  0.5756
 9159TIP3   OH248891   5.518   4.442  16.506  0.3125 -0.3569  0.1459
 9159TIP3    H148892   5.451   4.393  16.554  0.1282  1.0840  1.3911
 9159TIP3    H248893   5.484   4.531  16.501  1.6912  0.1736 -0.0726
 9160TIP3   OH248894   0.288   5.622   4.473  0.2152  0.0564  0.1627
 9160TIP3    H148895   0.214   5.681   4.463  1.2002  1.2902  0.0540
 9160TIP3    H248896   0.324   5.643   4.559  0.4384 -0.5475  0.2210
 9161TIP3   OH248897   0.738   0.945   1.960  0.2750  0.0715  0.1984
 9161TIP3    H148898   0.820   0.895   1.960 -0.2948 -0.8674  0.3540
 9161TIP3    H248899   0.707   0.941   2.050 -0.2534 -0.0909  0.0120
 9162TIP3   OH248900   4.068   1.996   0.928 -0.2938 -0.4798  0.1415
 9162TIP3    H148901   4.039   1.962   1.013  0.6053 -2.2058 -0.2198
 9162TIP3    H248902   4.009   1.955   0.865  1.4609 -2.2626 -0.3977
 9163TIP3   OH248903   6.128   0.615  13.377  0.3126  0.2383 -0.1533
 9163TIP3    H148904   6.166   0.557  13.311 -0.1899 -0.5089  0.2084
 9163TIP3    H248905   6.200   0.635  13.437 -0.0679 -1.9503  1.0802
 9164TIP3   OH248906   6.677   2.469  17.075  0.2956 -0.3324  0.0729
 9164TIP3    H148907   6.584   2.467  17.099  0.2339 -1.5006 -0.2070
 9164TIP3    H248908   6.711   2.550  17.113 -1.4251  1.4601 -2.0690
 9165TIP3   OH248909   3.948   6.543   5.008 -0.2763  0.1984  0.0782
 9165TIP3    H148910   3.854   6.555   5.025 -0.2248 -0.0789  0.5598
 9165TIP3    H248911   3.961   6.582   4.922 -0.7968  0.4234  0.0955
 9166TIP3   OH248912   1.677   0.474  16.246  0.3359  0.1800  0.1023
 9166TIP3    H148913   1.757   0.464  16.194  0.0360 -0.1733 -0.2930
 9166TIP3    H248914   1.628   0.393  16.231  0.0423  0.2690  0.5805
 9167TIP3   OH248915   3.492   6.485   2.579  0.2359  0.8795  0.1524
 9167TIP3    H148916   3.450   6.516   2.499  0.3118 -1.1793 -0.7065
 9167TIP3    H248917   3.580   6.458   2.552  0.4028  0.5570  1.0026
 9168TIP3   OH248918   0.935   1.744   3.324 -0.7364 -0.4524  0.2424
 9168TIP3    H148919   1.024   1.759   3.358 -0.9492  0.7808  0.2514
 9168TIP3    H248920   0.929   1.649   3.316  1.1895 -0.4697 -1.3256
 9169TIP3   OH248921   3.539   0.181  16.719 -1.0870 -0.3704 -0.1025
 9169TIP3    H148922   3.468   0.117  16.728 -1.8347  0.4192 -0.2254
 9169TIP3    H248923   3.493   0.264  16.705 -0.1629  0.3577  1.0741
 9170TIP3   OH248924   3.883   4.600  16.171 -0.4364  0.3333  0.2243
 9170TIP3    H148925   3.877   4.695  16.173 -1.7246  0.2761 -0.8436
 9170TIP3    H248926   3.817   4.570  16.233  0.8049  0.1475  1.4935
 9171TIP3   OH248927   6.779   4.189  14.155 -0.3354 -0.5666  0.2880
 9171TIP3    H148928   6.834   4.261  14.123 -1.2534 -0.0251 -0.0912
 9171TIP3    H248929   6.811   4.173  14.244 -1.8538  2.1403  1.3964
 9172TIP3   OH248930   1.441   6.125   2.790  0.1188 -0.1847 -0.5793
 9172TIP3    H148931   1.521   6.148   2.836  0.2302 -0.5785 -0.5751
 9172TIP3    H248932   1.469   6.067   2.719 -0.0325  0.5402 -1.2395
 9173TIP3   OH248933   0.392   4.824   5.505 -0.3332 -0.2122  0.3954
 9173TIP3    H148934   0.343   4.767   5.565 -0.7138  0.0112  0.2921
 9173TIP3    H248935   0.339   4.827   5.426  0.5215 -1.0942 -0.2264
 9174TIP3   OH248936   4.126   1.837  16.513 -0.0996  0.8537 -0.1016
 9174TIP3    H148937   4.037   1.874  16.522 -0.0720  0.4824  2.0881
 9174TIP3    H248938   4.119   1.773  16.443 -1.2986  1.6698 -0.7383
 9175TIP3   OH248939   6.727   5.954   3.860 -0.3521  0.2430 -0.2296
 9175TIP3    H148940   6.692   5.973   3.774 -0.1359 -1.6161 -0.7556
 9175TIP3    H248941   6.726   6.038   3.906  0.4900  1.4728 -2.3751
 9176TIP3   OH248942   4.094   0.015   0.173  0.4706  0.9042 -0.6614
 9176TIP3    H148943   4.070  -0.077   0.182  0.6383  0.7679 -1.5765
 9176TIP3    H248944   4.186   0.019   0.198  0.7041  0.6740 -1.4891
 9177TIP3   OH248945   3.254   6.039  12.412  0.1894  0.2807  0.7394
 9177TIP3    H148946   3.214   6.120  12.381  0.1871  0.9141  2.3800
 9177TIP3    H248947   3.186   5.973  12.400  0.0518  0.5857 -0.2192
 9178TIP3   OH248948   6.254   1.794   5.840 -0.5818 -0.1879  0.1021
 9178TIP3    H148949   6.203   1.754   5.770  0.8485 -0.4379 -0.8234
 9178TIP3    H248950   6.245   1.888   5.826 -0.6293 -0.2347 -0.1828
 9179TIP3   OH248951   0.309   4.408   2.625  0.6294  0.2391 -0.0873
 9179TIP3    H148952   0.300   4.468   2.699 -1.3241  0.7997 -0.7616
 9179TIP3    H248953   0.317   4.321   2.665  0.2559  0.6046  0.7888
 9180TIP3   OH248954   2.119   2.353   4.577 -0.5339 -0.1550 -0.5202
 9180TIP3    H148955   2.126   2.381   4.668 -1.0874 -1.0531 -0.1977
 9180TIP3    H248956   2.188   2.401   4.532 -1.5299  1.8132 -0.0062
 9181TIP3   OH248957   4.872   6.609  15.463 -0.4231  0.5489  0.4643
 9181TIP3    H148958   4.789   6.614  15.416 -0.6965 -0.6759  0.7873
 9181TIP3    H248959   4.927   6.676  15.423 -0.9877  0.1966 -0.9329
 9182TIP3   OH248960   0.766   1.454   2.771 -0.3758 -0.5048 -0.4689
 9182TIP3    H148961   0.804   1.518   2.832  0.1596 -0.3482 -0.9643
 9182TIP3    H248962   0.745   1.379   2.827 -1.0310  0.1095  0.1173
 9183TIP3   OH248963   3.966   2.113  11.680  0.0809  0.3491 -0.0647
 9183TIP3    H148964   4.053   2.148  11.697 -0.1347  1.3193 -0.8883
 9183TIP3    H248965   3.980   2.019  11.665  0.8332  0.2999  0.8735
 9184TIP3   OH248966   0.754   0.852   0.719  0.2176  0.0018 -0.1197
 9184TIP3    H148967   0.769   0.794   0.793  0.4118  1.0471  0.6661
 9184TIP3    H248968   0.666   0.830   0.689 -0.4400  0.5863  1.3445
 9185TIP3   OH248969   6.689   1.494  16.969 -0.0460 -0.4168 -0.2247
 9185TIP3    H148970   6.632   1.433  16.922 -1.2419  0.0183  0.6433
 9185TIP3    H248971   6.629   1.552  17.015  1.0419  2.3857 -2.2183
 9186TIP3   OH248972   2.845   0.955  15.150  0.3894  0.3244  0.2154
 9186TIP3    H148973   2.893   0.959  15.067  0.5867 -0.5155  0.2841
 9186TIP3    H248974   2.907   0.913  15.211 -0.2963 -0.4116  0.4051
 9187TIP3   OH248975   3.057   5.209  16.227  0.2210 -0.4316 -0.2572
 9187TIP3    H148976   2.980   5.221  16.172 -0.1088 -1.3300 -0.0128
 9187TIP3    H248977   3.075   5.295  16.264 -0.3307 -0.1042 -0.7554
 9188TIP3   OH248978   5.953   0.990   0.840  0.2154  0.9154 -0.0051
 9188TIP3    H148979   5.908   0.995   0.756  2.9286  1.0102 -1.5156
 9188TIP3    H248980   5.990   0.902   0.842  1.1153  1.3018  0.5667
 9189TIP3   OH248981   2.120   2.733  12.412 -0.5654 -0.0236 -0.3336
 9189TIP3    H148982   2.186   2.717  12.479 -0.5934  1.9337  0.2110
 9189TIP3    H248983   2.095   2.646  12.381  0.6323 -0.8802  1.0417
 9190TIP3   OH248984   3.722   6.598   5.585 -0.0509  0.0129 -0.1382
 9190TIP3    H148985   3.657   6.548   5.635  0.1972 -0.6962 -0.5272
 9190TIP3    H248986   3.757   6.661   5.648 -0.4331 -0.2354  0.3249
 9191TIP3   OH248987   1.251   6.475  17.023 -0.3943 -0.7486  0.1939
 9191TIP3    H148988   1.288   6.464  17.110  0.1547 -1.2046 -0.1009
 9191TIP3    H248989   1.202   6.394  17.006  0.3696 -1.0981 -0.3529
 9192TIP3   OH248990   1.052   5.178   4.205  0.0149 -0.2544  0.1155
 9192TIP3    H148991   1.037   5.182   4.110 -0.7857 -1.0959  0.1992
 9192TIP3    H248992   0.993   5.244   4.241  1.5533  1.2540 -0.0996
 9193TIP3   OH248993   2.498   5.125   0.413 -0.1587 -0.1190 -0.2014
 9193TIP3    H148994   2.504   5.172   0.329  1.8594  0.5867  0.3212
 9193TIP3    H248995   2.518   5.192   0.479 -1.3007 -0.7791  0.8239
 9194TIP3   OH248996   5.999   3.373  14.803  0.5939 -0.3285 -0.0378
 9194TIP3    H148997   5.961   3.324  14.876  0.7239  0.2665  0.4304
 9194TIP3    H248998   6.048   3.444  14.844  0.1976  0.3526 -0.7089
 9195TIP3   OH248999   4.772   3.776  13.845  0.5523 -0.2821  0.5226
 9195TIP3    H149000   4.730   3.722  13.912 -1.8413  1.1206  0.2067
 9195TIP3    H249001   4.835   3.829  13.894  1.8207 -2.2206  1.0437
 9196TIP3   OH249002   2.738   5.424   0.323 -0.4840 -0.8012  0.0884
 9196TIP3    H149003   2.810   5.364   0.303 -0.5551 -1.5194  1.8713
 9196TIP3    H249004   2.776   5.488   0.384 -1.6704 -1.9600  2.0867
 9197TIP3   OH249005   6.437   3.050  16.370 -0.1978  0.2172 -0.2019
 9197TIP3    H149006   6.533   3.053  16.374 -0.2352 -0.4112  1.5390
 9197TIP3    H249007   6.412   3.134  16.331  1.1856 -1.0274 -3.9745
 9198TIP3   OH249008   4.559   1.182  12.243  0.0594  0.2463  0.6170
 9198TIP3    H149009   4.478   1.230  12.224 -0.5919 -0.8786  0.5221
 9198TIP3    H249010   4.545   1.145  12.330  0.7670  0.6627  0.9053
 9199TIP3   OH249011   4.945   3.579   0.515  0.3275 -0.7718 -0.2149
 9199TIP3    H149012   5.033   3.549   0.537  0.9272  0.0529 -1.4375
 9199TIP3    H249013   4.939   3.667   0.552  0.1897 -0.6474 -0.5285
 9200TIP3   OH249014   0.295   2.748   3.332 -0.2675  0.0524 -0.3880
 9200TIP3    H149015   0.263   2.712   3.249 -0.3523 -0.2172 -0.2361
 9200TIP3    H249016   0.236   2.821   3.351 -0.7995 -0.4494 -0.1025
 9201TIP3   OH249017   6.066   0.296   3.674  0.2023  0.6215  0.1583
 9201TIP3    H149018   5.995   0.347   3.712 -0.7435 -0.2662 -0.4097
 9201TIP3    H249019   6.062   0.315   3.580  0.1361 -0.1157  0.0044
 9202TIP3   OH249020   3.405   3.899  15.443  0.2521  0.7628 -0.3510
 9202TIP3    H149021   3.376   3.821  15.397  0.1527  0.9116 -0.5426
 9202TIP3    H249022   3.325   3.936  15.481  0.3048  0.7461 -0.2217
 9203TIP3   OH249023   6.124   3.590   0.459 -0.6230  0.0484 -0.4729
 9203TIP3    H149024   6.091   3.674   0.490  1.3567  0.3404  0.9636
 9203TIP3    H249025   6.158   3.547   0.538 -3.3672 -2.9596 -0.8436
 9204TIP3   OH249026   5.813   6.219   5.587 -0.2933  0.5717  0.2444
 9204TIP3    H149027   5.828   6.267   5.506  1.0647  0.7961  0.6059
 9204TIP3    H249028   5.806   6.288   5.654  1.7703  0.3070  0.7829
 9205TIP3   OH249029   4.728   0.196   2.506 -0.3754 -0.6313  0.2043
 9205TIP3    H149030   4.723   0.223   2.414  2.1363  0.7422  0.4533
 9205TIP3    H249031   4.641   0.159   2.524 -1.7192  1.2764 -2.0180
 9206TIP3   OH249032   4.697   4.173   5.423  0.4259 -0.1466 -0.5182
 9206TIP3    H149033   4.694   4.249   5.364 -0.2170 -1.1508 -1.7937
 9206TIP3    H249034   4.616   4.125   5.405 -0.8476  0.6730  2.7655
 9207TIP3   OH249035   3.786   4.786  10.316  0.6256  0.0742  0.9035
 9207TIP3    H149036   3.708   4.760  10.266 -0.7907  3.7982  1.0673
 9207TIP3    H249037   3.768   4.758  10.405  0.7606 -1.6522  0.4059
 9208TIP3   OH249038   1.609   5.286  13.074  0.0113 -0.2525  0.0158
 9208TIP3    H149039   1.688   5.329  13.042  0.6562 -0.8488  0.7866
 9208TIP3    H249040   1.549   5.358  13.094  0.6759  0.2432  0.2359
 9209TIP3   OH249041   2.305   3.066   0.757  0.7191 -0.1239 -0.3876
 9209TIP3    H149042   2.386   3.031   0.794  1.2592  1.5928  0.1022
 9209TIP3    H249043   2.299   3.155   0.792 -0.9908  0.0306 -1.0265
 9210TIP3   OH249044   6.776   1.298   2.483 -0.1979 -0.4286  0.2245
 9210TIP3    H149045   6.784   1.346   2.401  0.1757 -0.1509  0.4180
 9210TIP3    H249046   6.821   1.215   2.466  1.5488  0.3871  0.7276
 9211TIP3   OH249047   6.785   4.440  16.604 -0.7376  0.3616  0.5886
 9211TIP3    H149048   6.736   4.359  16.619 -0.2168  0.1498  1.1721
 9211TIP3    H249049   6.776   4.456  16.510 -1.2536 -0.1110  0.5553
 9212TIP3   OH249050   0.080   3.956  12.880  0.0699  0.3865  0.2919
 9212TIP3    H149051   0.077   3.910  12.964 -0.5302 -0.8044 -0.3592
 9212TIP3    H249052   0.043   4.043  12.898 -1.0413 -0.2282  1.0511
 9213TIP3   OH249053   2.507   0.656   5.310  0.4343  0.0165 -0.4791
 9213TIP3    H149054   2.588   0.636   5.262  1.2287  0.8815  0.4855
 9213TIP3    H249055   2.438   0.619   5.255  1.4442 -0.3497 -1.5421
 9214TIP3   OH249056   3.690   3.877   2.220  0.4889  0.2167  0.5464
 9214TIP3    H149057   3.694   3.803   2.281  0.4438 -0.4184 -0.2201
 9214TIP3    H249058   3.760   3.859   2.157 -0.6094 -0.0225 -0.6099
 9215TIP3   OH249059   1.776   4.490  14.013  0.0789  0.0277 -0.0951
 9215TIP3    H149060   1.757   4.401  14.041  0.1480 -0.1265 -0.5388
 9215TIP3    H249061   1.839   4.523  14.078 -0.8212  0.1531  0.7219
 9216TIP3   OH249062   3.397   1.595  12.712  0.6917  0.8893 -0.6577
 9216TIP3    H149063   3.393   1.579  12.618 -0.4189  2.7752 -0.9421
 9216TIP3    H249064   3.306   1.601  12.740  1.0076 -0.1122  0.6267
 9217TIP3   OH249065   4.450   6.405  11.619 -0.0843  0.1883 -0.1167
 9217TIP3    H149066   4.465   6.460  11.541  0.8961  1.1148  0.7045
 9217TIP3    H249067   4.363   6.430  11.649 -0.8109 -0.7762 -1.3919
 9218TIP3   OH249068   6.177   3.801  15.069 -0.5381  0.1057 -0.4191
 9218TIP3    H149069   6.190   3.796  14.975 -1.0546  0.3863 -0.5094
 9218TIP3    H249070   6.258   3.839  15.103 -0.3139 -0.0900 -0.7371
 9219TIP3   OH249071   2.388   5.839   1.169 -0.2242  0.0653  0.3939
 9219TIP3    H149072   2.370   5.932   1.157 -0.0891  0.3414  2.2255
 9219TIP3    H249073   2.304   5.796   1.152 -1.0515  0.7920  2.3985
 9220TIP3   OH249074   2.897   2.585  13.477 -0.4180  0.4018 -0.0605
 9220TIP3    H149075   2.840   2.583  13.554 -1.4457  1.4797 -0.7750
 9220TIP3    H249076   2.845   2.629  13.410  1.2078  1.3350 -0.7461
 9221TIP3   OH249077   5.634   6.712   5.168 -0.4236  0.1044 -0.5753
 9221TIP3    H149078   5.620   6.711   5.263  0.3979  0.5248 -0.4429
 9221TIP3    H249079   5.612   6.623   5.140 -1.2714  0.1551 -0.0796
 9222TIP3   OH249080   4.047   3.542   1.562 -0.3887 -0.2987  0.2275
 9222TIP3    H149081   4.109   3.499   1.503  0.2252  1.1356 -0.2033
 9222TIP3    H249082   4.088   3.539   1.648 -0.7429 -1.3341  0.3654
 9223TIP3   OH249083   2.728   4.760   5.574 -0.1362  0.1450  0.4800
 9223TIP3    H149084   2.768   4.673   5.568  0.4120  0.4391 -0.1926
 9223TIP3    H249085   2.739   4.798   5.487 -1.3543  0.4647  0.4548
 9224TIP3   OH249086   4.602   4.447  12.578 -0.2096  0.6232 -0.3988
 9224TIP3    H149087   4.638   4.524  12.534 -0.5218  0.5993 -0.6953
 9224TIP3    H249088   4.677   4.410  12.625  0.4811 -0.1682 -2.0549
 9225TIP3   OH249089   0.489   1.414   4.105 -0.0424  0.2829 -0.2443
 9225TIP3    H149090   0.395   1.417   4.093  0.0868 -0.9381 -1.8028
 9225TIP3    H249091   0.501   1.399   4.199 -1.4662 -1.8423 -0.3605
 9226TIP3   OH249092   4.599   3.629   0.110 -0.4696  0.1440  0.3380
 9226TIP3    H149093   4.678   3.577   0.091  0.4993  1.6028  0.3058
 9226TIP3    H249094   4.628   3.720   0.104 -1.7117  0.6876  2.2812
 9227TIP3   OH249095   1.974   1.223  12.786  0.0917  0.4634  0.3312
 9227TIP3    H149096   1.993   1.293  12.849  0.6312  0.0838  0.5962
 9227TIP3    H249097   1.884   1.240  12.758  0.2519  1.3268  0.3094
 9228TIP3   OH249098   4.335   3.582   1.501 -0.0100  0.1170  0.3187
 9228TIP3    H149099   4.401   3.564   1.568  0.2759  0.7330  0.2165
 9228TIP3    H249100   4.346   3.513   1.436  0.5610  0.2316  0.2899
 9229TIP3   OH249101   3.422   0.559   5.682 -0.5480 -0.0718  0.2870
 9229TIP3    H149102   3.360   0.618   5.726  0.5937  0.3907  1.2973
 9229TIP3    H249103   3.501   0.613   5.669  0.7542 -1.5909  1.8415
 9230TIP3   OH249104   3.610   4.973   3.718  0.1196  0.3382 -0.0125
 9230TIP3    H149105   3.577   4.884   3.703 -0.7712  0.4739  1.1630
 9230TIP3    H249106   3.540   5.018   3.764  1.5690  0.8918  1.7122
 9231TIP3   OH249107   5.222   4.037  14.635  0.1339 -0.4162 -0.0350
 9231TIP3    H149108   5.272   4.113  14.666 -3.9024  2.1664  0.6122
 9231TIP3    H249109   5.196   3.992  14.716 -1.7588  0.4437 -0.1524
 9232TIP3   OH249110   4.344   1.301  15.216  0.8258  0.4999  0.3295
 9232TIP3    H149111   4.372   1.258  15.297  1.8804  1.4434  0.4785
 9232TIP3    H249112   4.402   1.266  15.149 -1.1874 -1.5974 -0.3566
 9233TIP3   OH249113   3.873   5.377  13.163 -0.3234  0.0083 -0.5481
 9233TIP3    H149114   3.790   5.355  13.120 -1.0491  2.9365 -0.7059
 9233TIP3    H249115   3.849   5.441  13.230  1.4832 -1.0468  1.1716
 9234TIP3   OH249116   1.846   0.745   4.953 -0.3065  0.1832  0.2033
 9234TIP3    H149117   1.906   0.690   5.003 -2.3599 -1.2140  1.1751
 9234TIP3    H249118   1.872   0.835   4.975 -0.4634 -0.4016  2.9495
 9235TIP3   OH249119   6.043   4.422  11.827 -0.5490  0.2681  0.6831
 9235TIP3    H149120   6.022   4.415  11.734  0.0678 -0.6628  0.6089
 9235TIP3    H249121   6.040   4.332  11.860  2.0316  0.2316  0.9294
 9236TIP3   OH249122   0.257   3.780   1.954 -0.7341  0.4391 -0.1061
 9236TIP3    H149123   0.229   3.718   1.886  0.6870  1.0136 -1.2493
 9236TIP3    H249124   0.180   3.835   1.970 -1.7589 -1.1119  0.3559
 9237TIP3   OH249125   3.156   0.548  11.611 -0.5962  0.1066 -0.0887
 9237TIP3    H149126   3.125   0.541  11.521  0.6898 -0.1962 -0.5253
 9237TIP3    H249127   3.227   0.613  11.606  0.0307 -0.5252  0.5502
 9238TIP3   OH249128   4.139   5.597  16.744  0.4836 -0.0957 -0.1991
 9238TIP3    H149129   4.091   5.541  16.684  0.6562 -2.5279  1.8620
 9238TIP3    H249130   4.144   5.547  16.825  3.2424  1.6419  0.7894
 9239TIP3   OH249131   0.469   2.284  13.800  0.5475 -1.1174 -0.2872
 9239TIP3    H149132   0.491   2.192  13.784  0.6989 -1.2553  0.6723
 9239TIP3    H249133   0.376   2.283  13.822  0.1675 -0.8426 -1.8268
 9240TIP3   OH249134   4.892   5.667  13.884  0.2357 -0.0816  0.0998
 9240TIP3    H149135   4.977   5.705  13.906 -0.8717  2.2408  0.4966
 9240TIP3    H249136   4.912   5.577  13.857  2.7089  0.1852  0.9607
 9241TIP3   OH249137   5.745   2.037  13.869  0.0347 -0.2261  0.1396
 9241TIP3    H149138   5.743   2.107  13.933 -1.8601 -0.1140 -0.0133
 9241TIP3    H249139   5.836   2.035  13.838  0.2991  1.6002  0.7399
 9242TIP3   OH249140   5.048   1.967  12.938 -0.0541  0.3182 -0.0380
 9242TIP3    H149141   4.990   2.025  12.889 -1.0259 -0.9482 -0.4000
 9242TIP3    H249142   5.011   1.966  13.027 -1.1221 -1.2017 -0.4940
 9243TIP3   OH249143   5.645   2.130  12.348 -0.2542 -0.2756  0.2512
 9243TIP3    H149144   5.617   2.124  12.256 -2.2763 -0.3684  0.8408
 9243TIP3    H249145   5.740   2.136  12.344 -0.4424  1.9051 -1.9768
 9244TIP3   OH249146   5.829   4.686  11.708  0.4121  0.3564 -0.0404
 9244TIP3    H149147   5.864   4.767  11.746 -0.0217  0.6613 -0.2785
 9244TIP3    H249148   5.762   4.716  11.647 -1.2799 -0.2778  1.4711
 9245TIP3   OH249149   1.380   3.715   4.570 -0.0982 -0.2223 -0.7532
 9245TIP3    H149150   1.426   3.799   4.574 -0.3068 -0.0966 -0.9634
 9245TIP3    H249151   1.327   3.713   4.650  0.0349 -0.2292 -0.6649
 9246TIP3   OH249152   4.225   4.313  14.039 -0.0773  0.0315 -0.3739
 9246TIP3    H149153   4.251   4.257  13.966  3.1205  0.5117  0.3094
 9246TIP3    H249154   4.224   4.255  14.115  2.0100  0.5813  0.1135
 9247TIP3   OH249155   2.708   2.603  13.673  0.0925 -0.5439  0.5392
 9247TIP3    H149156   2.743   2.654  13.746 -0.9499  0.4044  0.4049
 9247TIP3    H249157   2.613   2.600  13.689 -0.1131 -0.5714 -0.6042
 9248TIP3   OH249158   0.110   2.537   4.294 -0.2291  0.3191 -0.2102
 9248TIP3    H149159   0.100   2.496   4.380  1.4117 -1.1621 -0.6869
 9248TIP3    H249160   0.037   2.504   4.243 -0.0231 -0.4716  0.0010
 9249TIP3   OH249161   1.463   5.777   5.940  0.2869 -0.6793  0.5289
 9249TIP3    H149162   1.490   5.864   5.971  0.3992 -0.8022  0.7816
 9249TIP3    H249163   1.371   5.787   5.916  0.9480  0.1708 -1.8626
 9250TIP3   OH249164   1.992   4.370  16.874 -0.1133  0.3697  0.7436
 9250TIP3    H149165   2.067   4.370  16.815  1.3781  1.1530  2.5989
 9250TIP3    H249166   1.964   4.462  16.878 -1.3512  0.0517 -0.1293
 9251TIP3   OH249167   0.924   5.987   1.668  0.1749 -0.3552  0.2934
 9251TIP3    H149168   0.869   6.016   1.741  0.4305  1.8086 -0.3308
 9251TIP3    H249169   0.991   5.933   1.710  0.1567  0.6300  1.6524
 9252TIP3   OH249170   4.387   4.841   0.325  0.1352 -0.0602  0.3609
 9252TIP3    H149171   4.336   4.857   0.246  2.6617 -0.7483 -1.5008
 9252TIP3    H249172   4.402   4.746   0.326 -0.9941 -0.2503  2.4137
 9253TIP3   OH249173   4.418   0.965   6.764  0.4594  0.2429 -0.4542
 9253TIP3    H149174   4.488   1.016   6.723 -0.8528  1.0726 -1.7165
 9253TIP3    H249175   4.375   1.026   6.823  0.1869  0.0108 -0.4133
 9254TIP3   OH249176   3.337   2.076  11.918  0.3778 -0.2289  0.3566
 9254TIP3    H149177   3.368   1.989  11.941 -1.7736 -1.3265 -0.7465
 9254TIP3    H249178   3.348   2.081  11.823  0.3868  0.6599  0.4017
 9255TIP3   OH249179   4.445   3.010   0.374 -0.7113  0.2139  0.7585
 9255TIP3    H149180   4.516   2.982   0.433  0.3091 -1.5091 -1.1818
 9255TIP3    H249181   4.390   2.932   0.366 -0.6746  0.3338 -0.7529
 9256TIP3   OH249182   5.603   0.701  16.320 -0.1022 -0.2577  0.4310
 9256TIP3    H149183   5.637   0.727  16.234 -1.7255 -0.3787 -0.2687
 9256TIP3    H249184   5.585   0.783  16.365 -0.2346 -0.1829  0.2454
 9257TIP3   OH249185   4.775   4.642   1.626 -0.4176 -0.5429 -0.7777
 9257TIP3    H149186   4.744   4.612   1.540 -0.4076  0.4474 -1.1281
 9257TIP3    H249187   4.707   4.701   1.657  1.7365  2.7736 -2.1860
 9258TIP3   OH249188   4.977   0.809   4.267  0.0114  0.7794  0.4963
 9258TIP3    H149189   4.904   0.749   4.250 -1.1271  2.5103 -0.8772
 9258TIP3    H249190   4.968   0.833   4.359 -1.3843  1.2884  0.2357
 9259TIP3   OH249191   5.846   4.869  16.838  0.2954  0.1288  0.3038
 9259TIP3    H149192   5.851   4.909  16.751  1.8979  0.1505  0.3959
 9259TIP3    H249193   5.773   4.808  16.831 -0.4335  1.0862 -0.6595
 9260TIP3   OH249194   0.314   3.476  12.240  0.2267 -0.5368 -0.1258
 9260TIP3    H149195   0.310   3.499  12.333  0.8453  1.3058 -0.5347
 9260TIP3    H249196   0.407   3.475  12.220  0.0339  0.8361 -1.1374
 9261TIP3   OH249197   2.568   6.456  12.375  0.6045 -0.0645 -0.4928
 9261TIP3    H149198   2.561   6.542  12.416 -0.7733 -0.2547 -0.2869
 9261TIP3    H249199   2.600   6.473  12.287  0.5802  0.6333 -0.3647
 9262TIP3   OH249200   6.227   1.269  12.239 -0.4475 -0.2458 -0.2937
 9262TIP3    H149201   6.194   1.311  12.318  0.4720 -0.5861  0.2804
 9262TIP3    H249202   6.282   1.197  12.271  0.0923 -0.2676 -1.2411
 9263TIP3   OH249203   0.418   0.490   4.684 -0.0600 -0.4772  0.5707
 9263TIP3    H149204   0.507   0.526   4.686  0.1429 -1.0054  1.1553
 9263TIP3    H249205   0.416   0.436   4.605 -0.1174  0.1582  0.1247
 9264TIP3   OH249206   4.678   0.970  12.692  0.3048 -0.2317  0.1295
 9264TIP3    H149207   4.726   0.899  12.735  1.4892  0.0872 -0.6293
 9264TIP3    H249208   4.608   0.992  12.753  2.5293  0.8962  2.3959
 9265TIP3   OH249209   3.185   5.047  11.210  0.1204 -0.0309  0.1423
 9265TIP3    H149210   3.120   5.012  11.149  0.2956 -0.0962 -0.0094
 9265TIP3    H249211   3.168   5.141  11.212  0.4842  0.0468 -0.4467
 9266TIP3   OH249212   1.238   0.372   1.784 -0.2384 -0.4316  0.1614
 9266TIP3    H149213   1.287   0.360   1.865  1.4138 -1.1827 -0.9411
 9266TIP3    H249214   1.203   0.285   1.764  0.3086 -0.4904 -0.5380
 9267TIP3   OH249215   3.589   2.159  16.185  0.5523 -0.1537 -0.1570
 9267TIP3    H149216   3.606   2.245  16.147 -2.0229  1.0412  1.2326
 9267TIP3    H249217   3.592   2.099  16.111  1.5433  1.2565 -1.2828
 9268TIP3   OH249218   4.700   6.581  11.614  0.1513  0.1319 -0.2639
 9268TIP3    H149219   4.690   6.498  11.568 -0.9126 -0.3349  0.7675
 9268TIP3    H249220   4.657   6.646  11.558  1.7373  0.1489 -1.4837
 9269TIP3   OH249221   4.258   4.895  11.362 -0.0905  0.1178  0.2729
 9269TIP3    H149222   4.169   4.929  11.370  0.2776  2.0301 -2.8517
 9269TIP3    H249223   4.249   4.801  11.373 -2.6174  0.2064 -0.6515
 9270TIP3   OH249224   3.044   3.217  16.659 -0.0703 -0.2816  0.9847
 9270TIP3    H149225   3.119   3.164  16.686 -1.5999 -2.1538  1.6239
 9270TIP3    H249226   3.070   3.252  16.574  1.6026 -0.7406  1.2759
 9271TIP3   OH249227   1.032   1.190  13.251  0.4490  0.2572  0.1673
 9271TIP3    H149228   1.016   1.256  13.318 -1.1260  1.6739 -1.5294
 9271TIP3    H249229   0.946   1.153  13.233  0.7698  0.2086 -1.3469
 9272TIP3   OH249230   4.782   1.676   2.984  0.1050  0.0520  0.2669
 9272TIP3    H149231   4.750   1.623   3.057  0.5794 -0.4724  0.1000
 9272TIP3    H249232   4.840   1.617   2.935 -1.0810  0.0498 -1.1594
 9273TIP3   OH249233   3.159   2.389  15.580 -0.0279 -0.2172  0.0363
 9273TIP3    H149234   3.202   2.317  15.625  0.8584 -0.5347 -1.2941
 9273TIP3    H249235   3.067   2.382  15.606 -0.1503 -2.4693 -0.9000
 9274TIP3   OH249236   2.150   1.126   1.919 -0.4531 -0.0892  0.0668
 9274TIP3    H149237   2.122   1.130   2.011  1.2122 -0.2410  0.6147
 9274TIP3    H249238   2.136   1.035   1.894  0.1364 -0.3186  0.5386
 9275TIP3   OH249239   1.848   5.398  17.153  0.0371 -0.1714  0.7694
 9275TIP3    H149240   1.821   5.447  17.075  1.3324  2.1172  1.7201
 9275TIP3    H249241   1.772   5.343  17.174 -0.6589 -0.1685 -1.5575
 9276TIP3   OH249242   5.993   0.907  16.328  0.6342 -0.0307  0.6970
 9276TIP3    H149243   6.061   0.973  16.313  1.7419 -1.5112 -1.1819
 9276TIP3    H249244   5.956   0.892  16.241  1.0579 -2.5134  0.9014
 9277TIP3   OH249245   3.797   5.264  14.468 -0.6733 -0.1762  0.1556
 9277TIP3    H149246   3.871   5.207  14.484  0.2577  0.5857 -1.3416
 9277TIP3    H249247   3.720   5.210  14.487  0.2161 -1.5006  0.0078
 9278TIP3   OH249248   3.323   2.215  15.702  0.7419 -0.2968 -0.2892
 9278TIP3    H149249   3.309   2.126  15.735 -1.1301 -0.3572 -1.1981
 9278TIP3    H249250   3.393   2.206  15.638 -0.7571 -1.4923 -1.8157
 9279TIP3   OH249251   3.324   4.780  14.679  0.3276  0.2263  0.6151
 9279TIP3    H149252   3.352   4.689  14.673  3.0050  1.0851 -0.4154
 9279TIP3    H249253   3.363   4.822  14.603 -4.2046  1.4454 -1.2411
 9280TIP3   OH249254   0.133   1.952  16.158  0.3999 -0.0033 -0.0643
 9280TIP3    H149255   0.082   1.976  16.236  0.7065  0.4930 -0.0154
 9280TIP3    H249256   0.072   1.967  16.085  1.1172  2.6539 -0.1959
 9281TIP3   OH249257   3.160   3.651   0.137  0.2790 -0.2616 -0.2278
 9281TIP3    H149258   3.114   3.734   0.137  0.1086 -0.3459  0.4622
 9281TIP3    H249259   3.105   3.593   0.191  0.1549 -0.9521 -1.0857
 9282TIP3   OH249260   4.231   4.419  11.318  0.1480  0.1994  0.3619
 9282TIP3    H149261   4.307   4.385  11.271  1.3669  0.6002  1.9835
 9282TIP3    H249262   4.192   4.483  11.259  1.8239  0.9256  0.0305
 9283TIP3   OH249263   5.164   0.741  11.007 -0.0758  0.1958 -0.0032
 9283TIP3    H149264   5.139   0.746  10.915 -0.9542 -0.0784  0.2121
 9283TIP3    H249265   5.255   0.769  11.009 -0.2627  0.8938 -0.8660
 9284TIP3   OH249266   1.796   5.698   3.105 -0.6856 -0.1754 -0.2813
 9284TIP3    H149267   1.736   5.728   3.037  0.7564 -1.0160 -1.9638
 9284TIP3    H249268   1.767   5.609   3.125  0.3923 -0.8444 -1.6026
 9285TIP3   OH249269   5.276   3.477  16.943  0.9644 -0.4113  0.1833
 9285TIP3    H149270   5.304   3.564  16.971  2.1999 -0.7881  0.1445
 9285TIP3    H249271   5.339   3.453  16.875 -2.1290  0.6253 -3.2378
 9286TIP3   OH249272   0.015   2.645  12.049 -0.4433  0.4182 -0.2008
 9286TIP3    H149273   0.017   2.694  12.131  0.8256  1.0033 -0.5737
 9286TIP3    H249274  -0.029   2.704  11.987  0.3542  0.7799 -0.4361
 9287TIP3   OH249275   4.219   3.950   5.688  0.6971 -0.5857  0.3862
 9287TIP3    H149276   4.138   3.931   5.641  0.9854 -0.8324 -0.0108
 9287TIP3    H249277   4.287   3.900   5.642  1.4271  1.1583 -0.4960
 9288TIP3   OH249278   0.608   3.740   2.273  0.3692  0.2483 -0.0063
 9288TIP3    H149279   0.534   3.799   2.291 -0.2419 -0.6541  0.5005
 9288TIP3    H249280   0.570   3.653   2.280  1.4406 -0.2177 -0.0135
 9289TIP3   OH249281   5.447   1.888   1.064  0.0306 -0.1768 -0.3304
 9289TIP3    H149282   5.520   1.948   1.049 -0.5618  0.3034 -1.3324
 9289TIP3    H249283   5.482   1.823   1.125  1.9087 -1.0645 -2.2752
 9290TIP3   OH249284   0.851   0.817   6.085 -0.0193  0.3005 -0.6318
 9290TIP3    H149285   0.810   0.878   6.024 -0.6725 -1.0887 -1.5923
 9290TIP3    H249286   0.939   0.804   6.051 -0.3111 -0.3053 -1.1505
 9291TIP3   OH249287   0.455   2.512  15.793 -0.5239 -0.1376 -0.2068
 9291TIP3    H149288   0.415   2.575  15.853  0.1369  0.6031 -0.5407
 9291TIP3    H249289   0.542   2.548  15.774  1.6528 -3.2975  3.0231
 9292TIP3   OH249290   2.003   2.054  17.012 -0.1742  0.1173 -0.3504
 9292TIP3    H149291   1.914   2.081  16.991  1.0176  2.6687 -2.3397
 9292TIP3    H249292   2.032   2.116  17.080  0.1339 -0.6342  0.2142
 9293TIP3   OH249293   3.285   5.454   4.791  0.1643 -0.4463  0.5698
 9293TIP3    H149294   3.345   5.453   4.717  0.6411  0.5321  0.9382
 9293TIP3    H249295   3.198   5.442   4.751  0.3508  0.7571 -0.2104
 9294TIP3   OH249296   4.127   3.131  15.436  0.3241 -0.0796 -0.5086
 9294TIP3    H149297   4.197   3.071  15.411 -0.0722  0.2073 -2.3362
 9294TIP3    H249298   4.051   3.104  15.384 -0.1699  1.2811 -0.5287
 9295TIP3   OH249299   0.337   0.567   5.425  0.2390  0.0067  0.1875
 9295TIP3    H149300   0.420   0.525   5.449  0.0550 -0.6845 -0.3518
 9295TIP3    H249301   0.336   0.564   5.329 -0.4883 -0.1377  0.1972
 9296TIP3   OH249302   4.582   4.747   0.051 -0.3581 -0.1265 -0.3363
 9296TIP3    H149303   4.614   4.739   0.141 -0.7342  2.4232  0.0656
 9296TIP3    H249304   4.632   4.682   0.002  2.9882  1.3378  0.9316
 9297TIP3   OH249305   2.860   0.033  16.640  0.2528 -0.1590  0.0747
 9297TIP3    H149306   2.837  -0.045  16.691  0.9168 -0.2395  0.2514
 9297TIP3    H249307   2.838   0.106  16.697 -2.6870 -0.1246 -1.0221
 9298TIP3   OH249308   2.354   1.086   2.134 -0.0731 -0.3818 -0.0792
 9298TIP3    H149309   2.396   1.002   2.116 -1.3911 -1.1322  0.2051
 9298TIP3    H249310   2.366   1.137   2.054  1.1873 -0.6495 -0.0646
 9299TIP3   OH249311   0.561   4.537  15.234  0.2342  0.8143  0.4292
 9299TIP3    H149312   0.491   4.589  15.275 -0.5384 -0.1317  0.3451
 9299TIP3    H249313   0.630   4.534  15.300 -0.6217  0.0966  1.3137
 9300TIP3   OH249314   6.566   3.653   4.614  0.4378  0.5218 -0.2140
 9300TIP3    H149315   6.618   3.618   4.686  0.1765 -0.6281 -0.5720
 9300TIP3    H249316   6.541   3.741   4.642 -0.3148 -0.1983  1.4296
 9301TIP3   OH249317   4.721   4.956  10.748  0.0942 -0.8457 -0.1567
 9301TIP3    H149318   4.641   5.003  10.769  0.1733 -1.2326  1.0447
 9301TIP3    H249319   4.792   5.018  10.769  0.0941  0.0693 -2.6761
 9302TIP3   OH249320   6.012   0.495  12.648 -0.1199  0.4936 -0.4332
 9302TIP3    H149321   5.933   0.544  12.624  0.0157  0.9955  0.1272
 9302TIP3    H249322   6.016   0.424  12.585 -3.1666 -1.8218  1.8027
 9303TIP3   OH249323   5.360   3.072   3.488 -0.2781 -0.1103  0.2439
 9303TIP3    H149324   5.310   3.148   3.518 -0.8854  0.0491 -1.1406
 9303TIP3    H249325   5.332   3.001   3.546 -1.6527  0.1207 -0.1051
 9304TIP3   OH249326   4.714   0.010   3.951  0.4807  0.4232  0.7780
 9304TIP3    H149327   4.669   0.068   3.890 -0.4799 -0.5470  0.5308
 9304TIP3    H249328   4.762  -0.051   3.895  0.3995  0.1478  1.0066
 9305TIP3   OH249329   6.241   6.183  14.140  0.2333 -0.9956 -0.1222
 9305TIP3    H149330   6.213   6.260  14.189 -1.2448 -2.2266  1.0360
 9305TIP3    H249331   6.330   6.167  14.169  0.1557 -0.3767  0.4663
 9306TIP3   OH249332   4.304   2.459  15.105 -0.0713 -0.0160 -0.5151
 9306TIP3    H149333   4.335   2.447  15.195 -0.2743 -1.6010 -0.6406
 9306TIP3    H249334   4.382   2.442  15.051 -0.1053  0.3010 -0.6618
 9307TIP3   OH249335   0.095   0.771   2.467  0.3977 -0.1116  0.7518
 9307TIP3    H149336   0.144   0.693   2.439  0.4344 -0.1707  0.9737
 9307TIP3    H249337   0.014   0.736   2.504 -0.7536  0.1041 -1.5207
 9308TIP3   OH249338   3.682   5.108  10.786  0.6810 -0.0732 -0.3364
 9308TIP3    H149339   3.724   5.167  10.849 -0.3260 -0.5406  0.8024
 9308TIP3    H249340   3.677   5.158  10.705  1.0931  0.9007  0.2322
 9309TIP3   OH249341   6.580   2.354  16.446  0.1444 -0.4399 -0.4275
 9309TIP3    H149342   6.551   2.369  16.537 -1.1171 -0.3615 -0.8281
 9309TIP3    H249343   6.664   2.309  16.455  0.3897  0.2214  0.7800
 9310TIP3   OH249344   1.417   0.586   2.762  0.3438  0.0594  0.0387
 9310TIP3    H149345   1.346   0.536   2.801 -0.0610  1.0108  0.5420
 9310TIP3    H249346   1.395   0.591   2.669 -0.3326  0.4770  0.2214
 9311TIP3   OH249347   4.789   5.778   5.442 -0.0396  0.0025  0.2001
 9311TIP3    H149348   4.709   5.742   5.481  0.8852 -2.2991  0.0337
 9311TIP3    H249349   4.780   5.760   5.348  0.5737 -0.0983  0.1594
 9312TIP3   OH249350   3.204   0.294  14.027  0.1065  0.2838 -0.6381
 9312TIP3    H149351   3.257   0.351  14.082 -1.8252 -0.4019  2.0245
 9312TIP3    H249352   3.122   0.341  14.014 -0.7408 -1.0083 -0.0819
 9313TIP3   OH249353   6.012   2.082   4.476  0.2650 -1.0868  0.4953
 9313TIP3    H149354   6.091   2.058   4.428  0.9153 -0.6859  1.3505
 9313TIP3    H249355   5.981   2.161   4.432  1.4058 -0.1585  1.3325
 9314TIP3   OH249356   6.118   6.017   5.637  0.2193 -0.7682  0.2244
 9314TIP3    H149357   6.145   6.025   5.728 -0.8370  1.0876  0.4080
 9314TIP3    H249358   6.127   6.106   5.602 -1.0976 -1.0993 -0.9916
 9315TIP3   OH249359   4.457   2.092  16.599 -0.1656  0.1027 -0.0843
 9315TIP3    H149360   4.489   2.141  16.524  0.7378 -0.6646 -0.2080
 9315TIP3    H249361   4.421   2.159  16.658 -1.0444  0.6844 -1.2750
 9316TIP3   OH249362   2.085   2.130   1.985  0.0185  0.7762 -0.5334
 9316TIP3    H149363   2.026   2.055   1.980 -0.4888  1.1352 -0.0431
 9316TIP3    H249364   2.047   2.195   1.926  0.9105  0.3507 -1.5987
 9317TIP3   OH249365   3.591   5.673   1.900 -0.0985 -0.8490  0.4034
 9317TIP3    H149366   3.661   5.652   1.962  0.5885  0.6410  0.1609
 9317TIP3    H249367   3.594   5.602   1.836  1.5427 -0.5464  0.1190
 9318TIP3   OH249368   2.400   3.627  13.166 -0.2921 -0.3782 -0.0054
 9318TIP3    H149369   2.444   3.621  13.250  1.4240  0.5547 -0.8149
 9318TIP3    H249370   2.387   3.535  13.139 -0.4473 -0.6720  1.0498
 9319TIP3   OH249371   0.641   4.339  15.602  0.1827 -0.7766 -0.2338
 9319TIP3    H149372   0.662   4.372  15.689  0.1708 -1.1640 -0.0827
 9319TIP3    H249373   0.550   4.364  15.588  0.0263 -1.1709  0.0788
 9320TIP3   OH249374   4.806   5.658  14.930 -0.0932 -0.0849  0.1288
 9320TIP3    H149375   4.899   5.672  14.916  0.1612 -0.6301  1.2048
 9320TIP3    H249376   4.789   5.570  14.897 -0.1278 -0.1670  0.3611
 9321TIP3   OH249377   0.909   0.493   0.100 -0.1041 -0.2793 -0.6330
 9321TIP3    H149378   0.953   0.412   0.125  1.3742  0.5783 -0.3306
 9321TIP3    H249379   0.962   0.527   0.027 -0.3030  0.7321 -0.3171
 9322TIP3   OH249380   0.856   5.596  15.033 -0.3500 -0.0353 -0.0210
 9322TIP3    H149381   0.817   5.510  15.022  0.9799 -0.5730 -0.6498
 9322TIP3    H249382   0.832   5.644  14.954  1.9547 -1.0502 -1.3855
 9323TIP3   OH249383   2.190   3.837   1.621 -0.2046  0.0938  0.3929
 9323TIP3    H149384   2.142   3.775   1.566  1.2931 -0.0196 -0.8260
 9323TIP3    H249385   2.238   3.783   1.683 -0.5860  0.1460  0.7372
 9324TIP3   OH249386   5.449   1.795   3.886  0.1381  0.2527  0.1029
 9324TIP3    H149387   5.530   1.833   3.920  0.2974  1.0276 -1.1122
 9324TIP3    H249388   5.477   1.713   3.845 -0.0653 -0.7192  1.8585
 9325TIP3   OH249389   5.281   5.277   2.573 -0.1569  0.0910 -0.4495
 9325TIP3    H149390   5.330   5.337   2.518 -0.5784  2.7425  1.9303
 9325TIP3    H249391   5.330   5.272   2.655  0.1030 -3.2152 -0.7184
 9326TIP3   OH249392   1.405   2.656  15.117 -0.1161  0.2473 -0.3782
 9326TIP3    H149393   1.334   2.622  15.171 -0.7050 -0.3893 -1.5328
 9326TIP3    H249394   1.482   2.606  15.143  0.1447  1.5634  1.5310
 9327TIP3   OH249395   4.799   0.452   0.856 -0.1427  0.1846 -0.5231
 9327TIP3    H149396   4.745   0.530   0.842  0.1443  0.5257  0.2072
 9327TIP3    H249397   4.884   0.474   0.816 -0.2774 -0.0239 -0.9274
 9328TIP3   OH249398   4.308   3.289   2.892 -0.3368  0.4624 -0.4475
 9328TIP3    H149399   4.304   3.273   2.986  0.7969  0.6751 -0.3644
 9328TIP3    H249400   4.218   3.314   2.868 -1.5708 -3.3408 -0.1019
 9329TIP3   OH249401   0.193   0.351  15.437  0.3360 -0.3152 -0.2378
 9329TIP3    H149402   0.283   0.340  15.469  0.3643 -0.6092 -0.4168
 9329TIP3    H249403   0.196   0.432  15.385  0.7562 -0.9059 -1.1517
 9330TIP3   OH249404   6.059   5.481  17.092 -0.3069  0.4481  0.3302
 9330TIP3    H149405   6.029   5.568  17.118  0.2881  0.3434  1.4317
 9330TIP3    H249406   6.131   5.462  17.153  0.0348 -0.5127 -0.3595
 9331TIP3   OH249407   6.780   5.717  13.708 -0.3359  0.0543  0.0680
 9331TIP3    H149408   6.717   5.788  13.711  0.6781  0.9196  1.7420
 9331TIP3    H249409   6.860   5.757  13.673  0.1612 -0.3012  0.7722
 9332TIP3   OH249410   5.000   5.198  16.387  0.5634  0.2441  0.0376
 9332TIP3    H149411   5.066   5.213  16.320  1.3691 -0.9311  0.5633
 9332TIP3    H249412   4.920   5.176  16.337  0.4536  2.0187 -0.5986
 9333TIP3   OH249413   5.619   6.222  12.312 -0.1935  0.2008  0.4685
 9333TIP3    H149414   5.665   6.304  12.331  0.4611  0.1869 -0.9484
 9333TIP3    H249415   5.545   6.248  12.258 -0.8024  0.0166  1.2167
 9334TIP3   OH249416   4.975   3.077   3.848  0.2302  0.0769 -1.0321
 9334TIP3    H149417   5.067   3.096   3.863  0.5001 -1.0399 -1.2186
 9334TIP3    H249418   4.967   3.070   3.753 -0.2168  0.9968 -1.0643
 9335TIP3   OH249419   3.529   1.120  11.482  0.2278  0.2343  0.1888
 9335TIP3    H149420   3.558   1.149  11.568 -0.7690  3.2473 -0.4108
 9335TIP3    H249421   3.552   1.192  11.424 -1.8673 -0.4354 -1.5374
 9336TIP3   OH249422   4.735   1.333   0.390 -0.6771  0.2103  0.4368
 9336TIP3    H149423   4.798   1.272   0.352  1.3472  2.8196 -0.5584
 9336TIP3    H249424   4.653   1.315   0.343  0.2092 -0.8981 -0.7153
 9337TIP3   OH249425   2.538   3.359  16.098  0.1511 -0.5895  0.6144
 9337TIP3    H149426   2.604   3.428  16.095  1.2919 -1.6922 -0.9019
 9337TIP3    H249427   2.585   3.284  16.135 -0.4856 -1.1353  0.3189
 9338TIP3   OH249428   0.734   1.076  13.944  0.1510 -0.3873  0.8264
 9338TIP3    H149429   0.657   1.085  13.999 -0.9937 -0.5360 -0.7044
 9338TIP3    H249430   0.707   1.017  13.874  1.3575  0.2798 -0.2317
 9339TIP3   OH249431   6.303   2.469  15.907 -0.0433 -0.2463  0.2265
 9339TIP3    H149432   6.255   2.539  15.861  0.4510  0.1658  0.3286
 9339TIP3    H249433   6.290   2.489  16.000  2.8008  1.6142  0.2762
 9340TIP3   OH249434   2.207   0.688   0.289 -0.9892 -0.1443 -0.4017
 9340TIP3    H149435   2.183   0.684   0.197 -1.2853 -2.3031 -0.2392
 9340TIP3    H249436   2.285   0.632   0.296 -1.0755 -0.1338  0.6957
 9341TIP3   OH249437   2.760   4.844   5.973  0.0577  0.4070 -0.0852
 9341TIP3    H149438   2.837   4.855   6.030  0.7770 -0.4747 -0.8572
 9341TIP3    H249439   2.727   4.757   5.995  0.5794 -0.1049 -1.2809
 9342TIP3   OH249440   0.767   1.194  11.576 -0.4738 -0.4697 -0.0654
 9342TIP3    H149441   0.804   1.204  11.488  0.9511  0.1090  0.5730
 9342TIP3    H249442   0.687   1.247  11.575  0.3982  0.8658 -0.5362
 9343TIP3   OH249443   1.559   1.172  12.338  0.0552 -0.1394  0.0536
 9343TIP3    H149444   1.552   1.124  12.255  2.4837 -1.5194  0.5796
 9343TIP3    H249445   1.469   1.195  12.360 -0.6404  0.2341 -2.9384
 9344TIP3   OH249446   6.258   0.460   3.506 -0.5072 -0.2573  0.0698
 9344TIP3    H149447   6.228   0.548   3.525  0.9827  0.5479 -1.2150
 9344TIP3    H249448   6.323   0.441   3.574  0.3027  0.2240 -0.5780
 9345TIP3   OH249449   0.924   4.796  15.148 -0.1924  0.3266  0.0605
 9345TIP3    H149450   0.954   4.714  15.109 -0.9674  0.1416 -0.1477
 9345TIP3    H249451   0.991   4.860  15.125  0.3012 -0.1980  0.0322
 9346TIP3   OH249452   3.516   0.445   1.081 -0.5485 -0.4592 -0.7281
 9346TIP3    H149453   3.609   0.430   1.098 -0.5753 -1.4899 -1.4280
 9346TIP3    H249454   3.513   0.526   1.031  0.0283 -0.7541 -1.2512
 9347TIP3   OH249455   6.185   0.430   2.923  0.4667 -0.2674  0.4286
 9347TIP3    H149456   6.240   0.353   2.939  2.3091  1.1492  1.0160
 9347TIP3    H249457   6.151   0.453   3.009 -0.7588 -0.9126  0.1222
 9348TIP3   OH249458   3.533   2.111   2.599 -0.3185 -0.1293 -0.2250
 9348TIP3    H149459   3.580   2.114   2.683  2.2543 -0.3976 -1.6201
 9348TIP3    H249460   3.523   2.203   2.574 -0.2798 -0.0853 -0.0810
 9349TIP3   OH249461   2.685   3.326  15.006  0.2840  0.2665  0.1719
 9349TIP3    H149462   2.761   3.270  14.987 -1.1655 -1.6262 -0.1649
 9349TIP3    H249463   2.641   3.283  15.079 -0.2535  1.5867  0.6501
 9350TIP3   OH249464   6.216   3.439   0.669 -0.1188 -0.5195 -0.2008
 9350TIP3    H149465   6.174   3.396   0.743  0.4150 -1.0494 -0.1998
 9350TIP3    H249466   6.298   3.475   0.704  0.1857 -0.8644 -0.5515
 9351TIP3   OH249467   4.594   1.335  15.984 -0.1861  0.1667  0.5048
 9351TIP3    H149468   4.622   1.291  15.904  1.6765  1.3583  0.4910
 9351TIP3    H249469   4.599   1.429  15.964 -1.1323  0.4625  1.5509
 9352TIP3   OH249470   6.200   2.009  13.408  0.2750  0.4737  0.2007
 9352TIP3    H149471   6.246   2.015  13.492 -0.0546  2.6712  0.2523
 9352TIP3    H249472   6.269   2.008  13.342  0.5355 -1.3020  0.4656
 9353TIP3   OH249473   6.400   6.359   1.310 -0.2447  0.2912  0.1080
 9353TIP3    H149474   6.364   6.444   1.285 -0.1878 -0.2577 -1.9321
 9353TIP3    H249475   6.451   6.377   1.389  0.5945  2.3450 -0.8614
 9354TIP3   OH249476   3.179   5.688   4.883 -0.2245 -0.6442  0.4558
 9354TIP3    H149477   3.229   5.734   4.816  0.7281 -0.7446  1.0980
 9354TIP3    H249478   3.202   5.596   4.872 -0.9701 -0.7993  0.1600
 9355TIP3   OH249479   1.927   1.031  14.000  0.2268  0.6605 -0.6763
 9355TIP3    H149480   1.902   1.060  13.912 -0.4208 -1.2455 -1.1418
 9355TIP3    H249481   1.948   0.938  13.989  0.5000  0.4993  1.1213
 9356TIP3   OH249482   4.157   1.172   0.994  0.1538 -0.1066 -1.0382
 9356TIP3    H149483   4.081   1.161   1.051  0.2930  0.3219 -0.7635
 9356TIP3    H249484   4.222   1.216   1.050  1.0519 -1.5949 -0.8977
 9357TIP3   OH249485   4.071   3.634  14.786 -0.2033 -0.1902 -0.3018
 9357TIP3    H149486   4.147   3.624  14.728  0.1310 -1.7326  0.3730
 9357TIP3    H249487   4.107   3.624  14.874 -1.3513 -2.2345 -0.0263
 9358TIP3   OH249488   3.034   2.943  12.342 -0.1835  0.4260  0.1875
 9358TIP3    H149489   3.083   3.009  12.393  0.5699  0.2578 -0.3137
 9358TIP3    H249490   3.050   2.861  12.389 -1.7264  0.7050  1.2377
 9359TIP3   OH249491   0.507   2.268   4.855 -0.5968  0.1021 -0.6389
 9359TIP3    H149492   0.492   2.354   4.815 -0.2861  0.4825  0.0578
 9359TIP3    H249493   0.544   2.287   4.941  0.9041 -0.7543 -1.0648
 9360TIP3   OH249494   3.665   2.299   1.179  0.1228 -0.1231  0.8612
 9360TIP3    H149495   3.726   2.299   1.253  1.1116  1.2241  0.0690
 9360TIP3    H249496   3.703   2.236   1.117 -0.3874 -0.8110  1.2507
 9361TIP3   OH249497   0.003   6.034   4.555  0.1919 -0.0282 -0.7917
 9361TIP3    H149498  -0.024   6.126   4.563 -0.5861 -0.2214 -1.1744
 9361TIP3    H249499  -0.053   5.986   4.616  0.0110 -0.3641 -1.2206
 9362TIP3   OH249500   1.514   2.048  17.009  0.6010 -0.2396 -0.1234
 9362TIP3    H149501   1.579   2.036  17.078 -0.7086 -1.6974  0.8950
 9362TIP3    H249502   1.525   1.972  16.952  0.3131 -0.0980 -0.3708
 9363TIP3   OH249503   4.527   4.050   4.028 -0.1967 -0.4013  0.5378
 9363TIP3    H149504   4.597   4.032   3.965 -0.9767 -1.3690 -0.0646
 9363TIP3    H249505   4.465   4.103   3.978 -0.4289 -0.4908  0.7353
 9364TIP3   OH249506   3.382   5.046  14.010 -0.8280  0.6899  0.2110
 9364TIP3    H149507   3.398   4.980  13.943 -0.2310  0.6652  0.3722
 9364TIP3    H249508   3.292   5.030  14.040 -0.7412  0.0606  0.1311
 9365TIP3   OH249509   4.818   1.469  13.555 -0.4512  0.6302  0.5909
 9365TIP3    H149510   4.775   1.478  13.470 -0.4678  0.5103  0.5867
 9365TIP3    H249511   4.764   1.520  13.615  0.4172  2.0174  0.2283
 9366TIP3   OH249512   0.543   0.955  12.742 -0.0359 -0.2633  0.2288
 9366TIP3    H149513   0.471   0.916  12.692  1.4096 -0.6598 -1.5987
 9366TIP3    H249514   0.569   0.886  12.803 -2.3840  0.5297  2.1698
 9367TIP3   OH249515   1.666   3.972   5.552 -0.2076  0.5385 -0.5698
 9367TIP3    H149516   1.664   3.916   5.475  2.3460 -0.1804 -0.1490
 9367TIP3    H249517   1.754   4.010   5.553  0.1980 -0.2843  2.5062
 9368TIP3   OH249518   6.576   4.823   1.572 -0.1281  0.5877 -0.5635
 9368TIP3    H149519   6.650   4.871   1.610 -0.6864 -0.5312  2.0990
 9368TIP3    H249520   6.524   4.889   1.528  0.9558  1.8585  0.0194
 9369TIP3   OH249521   4.185   3.513   0.764  0.4412 -0.4893 -0.0778
 9369TIP3    H149522   4.205   3.449   0.832 -0.5287 -1.2970 -0.5311
 9369TIP3    H249523   4.153   3.461   0.691 -0.6449  0.5302 -0.3496
 9370TIP3   OH249524   4.962   0.278  15.066  0.0751  0.4797  0.3567
 9370TIP3    H149525   5.019   0.276  15.143  1.2248  0.1535 -0.4847
 9370TIP3    H249526   4.993   0.205  15.012 -1.3416  0.1150  0.0221
 9371TIP3   OH249527   5.457   2.860  10.896  0.6603  0.0801  0.1790
 9371TIP3    H149528   5.400   2.787  10.873  2.1684 -1.2283  0.4731
 9371TIP3    H249529   5.452   2.918  10.820 -0.5525 -0.3231 -0.0650
 9372TIP3   OH249530   4.681   6.160  17.112  0.0407 -0.5652  0.5678
 9372TIP3    H149531   4.697   6.091  17.176  1.7782  0.2202  0.9901
 9372TIP3    H249532   4.694   6.117  17.027  1.8544 -0.6009  0.8434
 9373TIP3   OH249533   4.817   2.718   1.169  0.3266 -0.4493 -0.0558
 9373TIP3    H149534   4.853   2.793   1.121  2.5346 -2.1169 -1.1148
 9373TIP3    H249535   4.830   2.740   1.261  0.0406  0.8989 -0.3284
 9374TIP3   OH249536   2.884   1.464  16.375 -0.1232  0.0745  0.3750
 9374TIP3    H149537   2.912   1.387  16.326 -0.6676  1.8629 -2.9200
 9374TIP3    H249538   2.965   1.514  16.389 -0.1454  0.1958  0.0859
 9375TIP3   OH249539   2.830   6.099   6.111  0.2126 -0.2534  0.0259
 9375TIP3    H149540   2.852   6.192   6.117 -0.2275 -0.1100 -0.5418
 9375TIP3    H249541   2.885   6.057   6.177 -0.0636  0.4915  0.7340
 9376TIP3   OH249542   2.315   3.133   4.628  0.0348  0.5712  0.3437
 9376TIP3    H149543   2.324   3.067   4.697  1.4012  1.1525  0.7352
 9376TIP3    H249544   2.405   3.162   4.611 -0.1676 -0.3161 -2.4139
 9377TIP3   OH249545   5.937   6.568   3.954 -0.4424  0.0527  0.1476
 9377TIP3    H149546   5.899   6.656   3.961 -2.4935 -0.9132  1.7632
 9377TIP3    H249547   5.919   6.542   3.864 -1.2208  0.6831  0.1121
 9378TIP3   OH249548   5.950   1.421  12.953 -0.4437  0.0970  0.0528
 9378TIP3    H149549   5.879   1.356  12.957 -2.1924  1.8236 -1.3772
 9378TIP3    H249550   5.947   1.465  13.037 -2.3582  1.4201 -0.6774
 9379TIP3   OH249551   6.680   2.034  16.899 -0.1788  0.3332 -0.6326
 9379TIP3    H149552   6.714   1.953  16.938  0.4907  0.7195 -0.3894
 9379TIP3    H249553   6.613   2.063  16.961  0.0302  0.3035 -0.3898
 9380TIP3   OH249554   3.576   6.394   4.865  0.0437  0.3748 -0.0929
 9380TIP3    H149555   3.668   6.384   4.843 -0.1169 -0.2893 -0.5020
 9380TIP3    H249556   3.574   6.463   4.931  0.6844  1.3631 -1.0979
 9381TIP3   OH249557   0.416   6.710  14.316  0.4219 -0.2285 -0.3330
 9381TIP3    H149558   0.413   6.665  14.401  0.2456 -0.9886 -0.7377
 9381TIP3    H249559   0.436   6.641  14.253 -0.8801  0.0655 -1.0978
 9382TIP3   OH249560   5.337   4.744  16.714  0.0389  0.6966 -1.0565
 9382TIP3    H149561   5.251   4.783  16.705 -1.0512 -1.4484 -0.2920
 9382TIP3    H249562   5.354   4.743  16.809 -0.5651 -1.8691 -0.9334
 9383TIP3   OH249563   1.092   2.589   1.376  0.3971 -0.2150  0.2330
 9383TIP3    H149564   1.186   2.575   1.365  0.2592  0.0111 -1.3464
 9383TIP3    H249565   1.062   2.623   1.291 -0.8491  1.1154  1.1822
 9384TIP3   OH249566   0.407   3.862   1.698  0.0581  0.1113 -0.6180
 9384TIP3    H149567   0.469   3.789   1.703  0.1332  0.1986 -0.3016
 9384TIP3    H249568   0.427   3.916   1.774  0.3599  0.7516 -1.1509
 9385TIP3   OH249569   6.488   5.526   1.802  0.2719  0.5515 -0.0399
 9385TIP3    H149570   6.450   5.464   1.863 -0.9971 -0.4479 -1.7873
 9385TIP3    H249571   6.563   5.563   1.848 -0.2071 -0.7325  1.8069
 9386TIP3   OH249572   0.371   0.325  17.154  0.3550 -0.2395 -0.2680
 9386TIP3    H149573   0.400   0.252  17.208 -0.4146 -0.8084 -0.6132
 9386TIP3    H249574   0.440   0.337  17.088  1.4515  0.6607  1.0110
 9387TIP3   OH249575   4.536   5.809   3.732  0.1838  0.1614 -0.0165
 9387TIP3    H149576   4.582   5.864   3.795  1.3885  0.3816 -1.0583
 9387TIP3    H249577   4.443   5.820   3.753  0.5391  0.7039  1.3120
 9388TIP3   OH249578   1.492   5.237   4.500  0.4719 -0.1400 -0.5787
 9388TIP3    H149579   1.541   5.281   4.570  0.7868 -1.3530 -0.0139
 9388TIP3    H249580   1.559   5.212   4.436  0.3554 -0.2171 -0.6707
 9389TIP3   OH249581   1.653   4.488  13.027 -0.3728  0.0699  0.3314
 9389TIP3    H149582   1.632   4.504  13.118 -1.4500 -0.5707  0.1965
 9389TIP3    H249583   1.607   4.407  13.005 -0.3483  0.3682 -0.8508
 9390TIP3   OH249584   4.320   3.019   6.182 -0.3784 -0.0853 -0.4168
 9390TIP3    H149585   4.302   3.027   6.276  0.5004 -0.8309 -0.1757
 9390TIP3    H249586   4.396   2.961   6.177 -1.7527 -1.8292 -1.6957
 9391TIP3   OH249587   3.296   5.493  11.662  0.4552 -0.5368  0.5667
 9391TIP3    H149588   3.325   5.469  11.574  1.0118  1.3556  0.2153
 9391TIP3    H249589   3.218   5.547  11.648  0.7374  0.0453  1.2136
 9392TIP3   OH249590   5.419   4.536   3.872 -0.4503 -0.2453  0.1939
 9392TIP3    H149591   5.337   4.584   3.866 -0.9850 -0.9180  1.8246
 9392TIP3    H249592   5.487   4.602   3.858 -1.2472  0.2710 -1.4128
 9393TIP3   OH249593   1.116   1.001   6.327  0.2702  0.1712 -0.5246
 9393TIP3    H149594   1.134   0.943   6.253  1.5378  1.2559 -1.0801
 9393TIP3    H249595   1.185   0.982   6.390  0.6119  0.9781 -0.6518
 9394TIP3   OH249596   0.765   1.387  15.555  0.4143 -0.8061 -0.4543
 9394TIP3    H149597   0.717   1.369  15.636 -0.5099 -1.2054 -1.0743
 9394TIP3    H249598   0.808   1.304  15.534 -0.1824 -1.0085 -0.9088
 9395TIP3   OH249599   5.860   0.833  12.083  0.0986  0.1551  0.2775
 9395TIP3    H149600   5.936   0.891  12.087 -0.6465  1.1965 -0.3816
 9395TIP3    H249601   5.886   0.765  12.021  1.2636 -0.6640  1.6232
 9396TIP3   OH249602   0.540   4.209  14.654 -0.4573  0.0677 -0.4334
 9396TIP3    H149603   0.473   4.166  14.706 -0.2671  0.2304 -0.0468
 9396TIP3    H249604   0.498   4.228  14.570 -0.9389  0.3020 -0.1403
 9397TIP3   OH249605   5.530   5.146   3.129  0.0123 -0.3036 -0.5543
 9397TIP3    H149606   5.453   5.170   3.182 -0.8093 -0.5599 -1.6264
 9397TIP3    H249607   5.604   5.180   3.179 -0.5694 -2.6429  1.9897
 9398TIP3   OH249608   4.952   3.167  14.188 -0.4649  0.3038  0.3515
 9398TIP3    H149609   5.012   3.092  14.198 -1.5551 -0.6009  0.1668
 9398TIP3    H249610   4.996   3.224  14.125 -0.2953 -0.8768 -0.6137
 9399TIP3   OH249611   0.493   5.542  12.049  0.0148  0.5421  0.1430
 9399TIP3    H149612   0.532   5.531  12.136 -0.0494  1.0004  0.2291
 9399TIP3    H249613   0.561   5.587  11.998  0.5947 -0.9516 -0.4417
 9400TIP3   OH249614   4.130   5.644  13.279 -0.7840 -0.3959 -0.2853
 9400TIP3    H149615   4.152   5.664  13.188  1.8771  0.0142  0.4201
 9400TIP3    H249616   4.214   5.639  13.324 -2.1065  0.7589  2.4447
 9401TIP3   OH249617   4.799   6.119   0.529  0.2312  0.1924  0.4379
 9401TIP3    H149618   4.869   6.079   0.581 -0.0371 -1.3990 -0.4013
 9401TIP3    H249619   4.719   6.074   0.557 -0.1628  0.5157 -0.1409
 9402TIP3   OH249620   4.694   5.855  12.438  0.4178 -0.2710  0.8119
 9402TIP3    H149621   4.689   5.915  12.363  0.0077 -1.6145 -0.2424
 9402TIP3    H249622   4.603   5.835  12.459  0.6066 -2.5357 -0.4657
 9403TIP3   OH249623   0.719   2.484  14.134  0.8136 -0.3618 -0.3227
 9403TIP3    H149624   0.626   2.489  14.158  0.4213  1.8049 -2.2113
 9403TIP3    H249625   0.761   2.549  14.190  0.9045 -0.0339 -0.7696
 9404TIP3   OH249626   2.462   0.917   3.802 -0.3740  0.8385  0.0668
 9404TIP3    H149627   2.486   0.925   3.894 -0.7563 -0.5242  0.2880
 9404TIP3    H249628   2.414   0.835   3.796  0.1762  0.6144 -1.4628
 9405TIP3   OH249629   6.594   0.358  11.802  0.1311 -0.3305  0.4239
 9405TIP3    H149630   6.671   0.393  11.757  0.1098 -0.1180  0.5546
 9405TIP3    H249631   6.557   0.294  11.740 -1.0319  1.3751 -0.6710
 9406TIP3   OH249632   0.026   4.998   0.828 -0.2791 -0.1177 -0.3330
 9406TIP3    H149633  -0.067   4.978   0.833  0.0141 -1.0103  2.2377
 9406TIP3    H249634   0.030   5.083   0.785 -2.2892 -0.0242 -0.3636
 9407TIP3   OH249635   0.784   0.857  16.953 -0.2893 -0.0397 -0.9147
 9407TIP3    H149636   0.752   0.842  16.864 -0.4827 -0.4235 -0.7819
 9407TIP3    H249637   0.768   0.950  16.968  1.2395  0.3975 -1.8656
 9408TIP3   OH249638   3.661   5.336   3.090  0.3189  0.1164 -0.0059
 9408TIP3    H149639   3.606   5.263   3.119 -0.8686  0.0108 -2.4291
 9408TIP3    H249640   3.605   5.413   3.096  0.5473  0.3256 -0.4859
 9409TIP3   OH249641   3.635   1.505   4.590  0.0887 -0.0680 -0.4689
 9409TIP3    H149642   3.725   1.532   4.610  0.1480  0.1892 -1.0763
 9409TIP3    H249643   3.597   1.486   4.676  0.7439 -0.2514 -0.2131
 9410TIP3   OH249644   3.524   2.466   5.556  0.1753 -0.0614  0.1418
 9410TIP3    H149645   3.430   2.455   5.546  0.3913 -1.1791 -0.7850
 9410TIP3    H249646   3.561   2.379   5.539  1.2653  0.0067  2.0076
 9411TIP3   OH249647   6.565   6.777  16.551  0.3855  0.0767  0.4022
 9411TIP3    H149648   6.629   6.827  16.500 -0.7493  1.1629  0.0250
 9411TIP3    H249649   6.566   6.819  16.637  0.4396 -0.1489  0.5135
 9412TIP3   OH249650   5.329   2.065   4.006 -0.7775 -0.0833 -0.9678
 9412TIP3    H149651   5.363   1.984   3.967 -0.6919 -0.3666 -0.3092
 9412TIP3    H249652   5.238   2.069   3.979 -0.9243 -0.6706 -0.5708
 9413TIP3   OH249653   4.509   3.682  14.770 -0.7314 -0.5435 -0.1805
 9413TIP3    H149654   4.523   3.741  14.845  2.6007 -0.6376 -0.6664
 9413TIP3    H249655   4.467   3.737  14.704 -1.8052  0.0686  0.9729
 9414TIP3   OH249656   4.311   2.084  15.199 -0.1412  0.2857 -0.3457
 9414TIP3    H149657   4.281   1.997  15.174 -0.2447  0.2431 -0.0758
 9414TIP3    H249658   4.239   2.120  15.251  0.5363 -0.0745  0.8622
 9415TIP3   OH249659   4.747   3.960  12.488 -0.1098 -0.8843 -0.5186
 9415TIP3    H149660   4.765   3.867  12.498 -1.6727 -1.0706  0.7930
 9415TIP3    H249661   4.657   3.964  12.457  0.3697  0.1594 -1.7923
 9416TIP3   OH249662   4.374   0.722  15.977 -0.1842  0.0473  0.9004
 9416TIP3    H149663   4.392   0.784  16.048 -0.6624  0.5463  0.5876
 9416TIP3    H249664   4.389   0.636  16.017 -0.4710  0.3227  1.6133
 9417TIP3   OH249665   6.215   4.406   1.082 -0.6213  0.8664  0.2938
 9417TIP3    H149666   6.300   4.450   1.076  0.4661 -1.3873 -1.5036
 9417TIP3    H249667   6.224   4.346   1.156 -0.4380  0.2253 -0.2433
 9418TIP3   OH249668   0.438   6.230  16.090  0.0386  0.3453 -0.0572
 9418TIP3    H149669   0.424   6.140  16.120 -0.8561  0.5867  0.2448
 9418TIP3    H249670   0.531   6.232  16.065  0.3953 -0.3052  1.1692
 9419TIP3   OH249671   3.814   0.131   1.619 -0.6407 -0.4151 -0.4660
 9419TIP3    H149672   3.904   0.162   1.628 -1.0875  0.7803 -0.0967
 9419TIP3    H249673   3.789   0.153   1.529 -0.4914 -0.9419 -0.6370
 9420TIP3   OH249674   6.047   4.261  15.686 -0.0526 -0.2366  0.3660
 9420TIP3    H149675   6.131   4.215  15.681 -0.0654 -0.2103 -0.1833
 9420TIP3    H249676   6.062   4.331  15.749  0.8180  0.7397 -0.9116
 9421TIP3   OH249677   4.302   3.019   1.603 -0.2763  0.5679  0.0044
 9421TIP3    H149678   4.278   3.002   1.694  1.5849  0.8943  0.5729
 9421TIP3    H249679   4.235   3.078   1.570 -0.6370  0.8963  1.3346
 9422TIP3   OH249680   5.832   2.110   2.833 -0.4084  0.7654  0.4019
 9422TIP3    H149681   5.808   2.018   2.823 -0.8528  0.9120  0.0832
 9422TIP3    H249682   5.866   2.117   2.922  2.5680 -0.3530 -0.5841
 9423TIP3   OH249683   1.331   6.025   0.368  0.1324 -0.1475 -0.5405
 9423TIP3    H149684   1.299   5.935   0.364 -1.4612  0.2728  1.8524
 9423TIP3    H249685   1.425   6.018   0.349 -0.4099 -1.9814 -2.8470
 9424TIP3   OH249686   5.687   6.158  12.741 -0.1737 -0.2180 -0.2837
 9424TIP3    H149687   5.757   6.141  12.678 -1.2122 -0.2580 -1.4516
 9424TIP3    H249688   5.698   6.090  12.808  0.7765 -0.3472 -0.5701
 9425TIP3   OH249689   1.996   5.030   1.063 -0.2482  0.0013 -0.7336
 9425TIP3    H149690   1.973   5.110   1.111 -2.2852 -1.4607  0.8431
 9425TIP3    H249691   2.087   5.013   1.087 -0.8800 -0.0672  1.8061
 9426TIP3   OH249692   3.148   5.116   4.052  0.0356 -0.3856  0.6131
 9426TIP3    H149693   3.062   5.130   4.093 -0.5396 -0.8755 -0.4151
 9426TIP3    H249694   3.129   5.106   3.959  1.3128  0.3856  0.2656
 9427TIP3   OH249695   2.409   3.104   1.080 -0.5284 -0.2488 -0.5341
 9427TIP3    H149696   2.315   3.111   1.065 -0.6007 -1.1944 -0.5019
 9427TIP3    H249697   2.447   3.173   1.025 -0.9304 -2.4917 -3.6928
 9428TIP3   OH249698   1.957   0.509  14.011 -0.1885  0.3751  0.0930
 9428TIP3    H149699   1.942   0.603  14.002 -1.9339  0.0349 -0.8788
 9428TIP3    H249700   1.921   0.487  14.097 -0.6097  0.4449 -0.0646
 9429TIP3   OH249701   6.720   1.635  11.271  0.0940 -0.1621 -0.2989
 9429TIP3    H149702   6.702   1.576  11.198 -0.1976  1.2743 -1.4089
 9429TIP3    H249703   6.633   1.658  11.304  0.2460 -1.5760  1.1551
 9430TIP3   OH249704   3.192   1.415  15.217  0.2157 -0.6501 -0.0288
 9430TIP3    H149705   3.156   1.327  15.221  1.3666 -1.2723 -2.1647
 9430TIP3    H249706   3.211   1.429  15.124  1.1659  1.3921  0.4325
 9431TIP3   OH249707   2.057   4.368  15.683 -0.3251 -0.4671 -0.0756
 9431TIP3    H149708   1.988   4.435  15.684 -0.6924 -0.8379  1.8165
 9431TIP3    H249709   2.123   4.402  15.623 -0.9632  1.1203  0.1004
 9432TIP3   OH249710   3.327   4.564   1.146 -0.3153  0.1750 -0.1876
 9432TIP3    H149711   3.328   4.607   1.060  2.5124 -0.1653 -0.3897
 9432TIP3    H249712   3.399   4.605   1.194 -2.4297  0.9869  2.3793
 9433TIP3   OH249713   4.270   4.663  12.449  0.0493 -0.0441 -0.2449
 9433TIP3    H149714   4.319   4.625  12.377  0.5448 -0.2360  0.1909
 9433TIP3    H249715   4.195   4.705  12.408  1.2352  1.3370 -1.0304
 9434TIP3   OH249716   2.957   6.740  16.389  0.4132 -0.1421  0.0676
 9434TIP3    H149717   2.895   6.701  16.327 -0.2475  1.1371 -0.0717
 9434TIP3    H249718   2.904   6.767  16.463  0.5040  2.6353 -0.8329
 9435TIP3   OH249719   5.569   1.691   4.787  0.5198  0.0756  0.7017
 9435TIP3    H149720   5.631   1.762   4.770  1.2985 -0.8257 -0.3431
 9435TIP3    H249721   5.616   1.630   4.844  0.5384 -0.5122  0.0754
 9436TIP3   OH249722   2.562   1.138   0.215  0.3017 -0.1749 -0.0930
 9436TIP3    H149723   2.567   1.042   0.212 -0.0150 -0.2621  1.6374
 9436TIP3    H249724   2.604   1.161   0.299 -1.2640  1.0750  0.3627
 9437TIP3   OH249725   5.170   6.348  13.026  0.5344 -0.2360 -0.0025
 9437TIP3    H149726   5.126   6.269  13.059 -1.5426  0.6987 -0.4133
 9437TIP3    H249727   5.199   6.324  12.938  0.4903 -0.7589  0.1238
 9438TIP3   OH249728   0.592   5.956   2.316  0.1215  0.1261 -0.1615
 9438TIP3    H149729   0.524   5.894   2.339  0.4748 -0.3538 -0.3946
 9438TIP3    H249730   0.630   5.921   2.235  0.6695  0.3618 -0.0130
 9439TIP3   OH249731   3.788   3.976  17.005  0.0790 -0.6819 -0.4035
 9439TIP3    H149732   3.827   4.064  17.004  0.5303 -0.8820 -0.5048
 9439TIP3    H249733   3.860   3.918  17.031 -0.0670 -1.0963 -0.9273
 9440TIP3   OH249734   0.379   3.700   5.739 -0.2370 -0.3726  0.0174
 9440TIP3    H149735   0.378   3.762   5.812 -0.8452 -1.0481  0.5933
 9440TIP3    H249736   0.454   3.727   5.685  0.4907 -0.1475  1.1290
 9441TIP3   OH249737   6.027   2.367   5.236  0.2989  0.4382  0.0430
 9441TIP3    H149738   5.970   2.438   5.265 -0.4957 -0.0470 -0.3220
 9441TIP3    H249739   6.105   2.375   5.291 -0.3421  0.7873  0.9037
 9442TIP3   OH249740   6.745   0.777  14.599 -0.6410  0.1210  0.8125
 9442TIP3    H149741   6.701   0.744  14.521 -2.2176 -1.6257  2.3811
 9442TIP3    H249742   6.757   0.700  14.654  1.9702  1.0381  1.6208
 9443TIP3   OH249743   1.510   2.032  14.228  0.3529  0.3677 -0.2038
 9443TIP3    H149744   1.532   2.095  14.296 -0.0764 -0.4448  0.6946
 9443TIP3    H249745   1.572   1.960  14.241 -0.7448 -0.4946  0.3287
 9444TIP3   OH249746   3.077   6.506   5.939 -0.0372 -0.3652 -0.6143
 9444TIP3    H149747   2.987   6.524   5.911 -1.0512 -1.3456  1.9253
 9444TIP3    H249748   3.085   6.548   6.024  1.7287 -0.8300 -0.5330
 9445TIP3   OH249749   1.219   2.574   0.001 -0.4276  0.1558  0.0394
 9445TIP3    H149750   1.222   2.527  -0.082  1.3164  0.2367  0.0352
 9445TIP3    H249751   1.153   2.528   0.052  0.9282 -2.0771 -0.1173
 9446TIP3   OH249752   4.151   6.088   6.438 -0.8527  0.2146 -0.7281
 9446TIP3    H149753   4.239   6.091   6.474 -1.5902  2.0444  0.9886
 9446TIP3    H249754   4.156   6.022   6.369  1.5855 -0.4551  0.0397
 9447TIP3   OH249755   5.037   2.805  12.674 -0.2587  0.3512 -0.4653
 9447TIP3    H149756   4.948   2.773  12.681 -1.3064  3.1546 -0.4696
 9447TIP3    H249757   5.070   2.767  12.593 -1.3644 -0.8645 -0.3566
 9448TIP3   OH249758   3.013   0.290   4.757 -0.0192  1.1536 -0.1459
 9448TIP3    H149759   3.067   0.275   4.836  0.2799 -1.9780 -0.8622
 9448TIP3    H249760   2.925   0.306   4.791  0.0347 -0.5378  0.8540
 9449TIP3   OH249761   2.437   0.531  17.130  0.0077 -0.2911  0.1070
 9449TIP3    H149762   2.442   0.620  17.164  2.5887 -0.7772  1.1663
 9449TIP3    H249763   2.344   0.512  17.122 -0.5566  2.6816 -0.6540
 9450TIP3   OH249764   0.690   6.272   1.069  0.2337  0.4245  0.5640
 9450TIP3    H149765   0.782   6.276   1.044  0.4214  2.1864  1.4650
 9450TIP3    H249766   0.655   6.197   1.020  1.9412  0.2418 -0.4140
 9451TIP3   OH249767   0.682   2.947   3.474  0.0308 -0.1569  0.0277
 9451TIP3    H149768   0.729   3.012   3.526 -1.3861  0.1117  1.0122
 9451TIP3    H249769   0.704   2.863   3.516 -0.4099 -0.0236  0.5406
 9452TIP3   OH249770   6.594   2.747  12.607  0.0893  0.2742 -0.1498
 9452TIP3    H149771   6.521   2.730  12.548  1.5207  0.1273 -1.9188
 9452TIP3    H249772   6.649   2.811  12.560  2.4226 -1.5617  0.0082
 9453TIP3   OH249773   0.812   4.487  16.474  0.8228 -0.0111 -0.1463
 9453TIP3    H149774   0.879   4.419  16.477  1.2929  0.4249 -0.7214
 9453TIP3    H249775   0.844   4.555  16.534 -0.4896 -1.0433  1.8092
 9454TIP3   OH249776   2.954   1.041   2.899  0.1474 -0.8002 -0.1752
 9454TIP3    H149777   3.031   1.038   2.956 -0.0410 -0.3330  0.1071
 9454TIP3    H249778   2.958   1.128   2.858 -0.9850 -0.2131  0.9091
 9455TIP3   OH249779   4.476   4.701  16.935  0.1575  0.2032 -0.2987
 9455TIP3    H149780   4.457   4.756  17.011  0.4386 -1.1207  0.7544
 9455TIP3    H249781   4.561   4.730  16.904  0.9270 -0.5243  1.0821
 9456TIP3   OH249782   0.576   4.329   3.399 -0.6473  0.0468  0.4040
 9456TIP3    H149783   0.578   4.253   3.458 -2.0910  0.7916  1.4590
 9456TIP3    H249784   0.666   4.363   3.401  0.7131 -3.1914 -2.2123
 9457TIP3   OH249785   4.119   1.640  13.900  0.5527 -0.1197 -0.8388
 9457TIP3    H149786   4.029   1.645  13.868 -0.4638 -0.3401  1.9176
 9457TIP3    H249787   4.146   1.549  13.882  0.2169 -0.0673 -1.6106
 9458TIP3   OH249788   6.224   3.236  11.727  0.2795 -0.4305  0.7069
 9458TIP3    H149789   6.166   3.312  11.724 -1.0432 -1.4300  0.5524
 9458TIP3    H249790   6.248   3.221  11.636 -0.0371 -0.6263  0.6549
 9459TIP3   OH249791   1.838   2.751  14.520  0.4043  0.2231 -0.3172
 9459TIP3    H149792   1.791   2.698  14.455  0.1397  0.2024 -0.1068
 9459TIP3    H249793   1.818   2.842  14.496  1.0989  0.2422 -0.8611
 9460TIP3   OH249794   6.632   0.383  15.306  0.3021  0.2167  1.1620
 9460TIP3    H149795   6.712   0.341  15.275  0.8913  1.3148  1.1702
 9460TIP3    H249796   6.563   0.317  15.294  0.9039 -0.1246 -0.4382
 9461TIP3   OH249797   2.203   5.320  12.509  0.7450  0.1133 -0.3462
 9461TIP3    H149798   2.147   5.321  12.432 -1.2694 -0.6367  1.0493
 9461TIP3    H249799   2.230   5.411  12.522  0.1868  0.4049 -1.2761
 9462TIP3   OH249800   1.419   1.224   4.667  0.0113 -0.3761 -0.3429
 9462TIP3    H149801   1.333   1.195   4.638 -0.6233  0.3727  0.7611
 9462TIP3    H249802   1.405   1.313   4.698  1.3250  0.0063 -0.7964
 9463TIP3   OH249803   2.918   2.439  10.860 -0.8063  0.3958  0.0579
 9463TIP3    H149804   3.003   2.482  10.859 -1.0958  0.9645 -1.8872
 9463TIP3    H249805   2.904   2.410  10.770 -1.7151 -1.6108  0.8036
 9464TIP3   OH249806   0.651   4.882  11.819  0.2870  0.2400 -0.5058
 9464TIP3    H149807   0.584   4.937  11.859 -0.4879  0.2319 -1.7570
 9464TIP3    H249808   0.723   4.943  11.800 -0.0377  0.5717 -0.6881
 9465TIP3   OH249809   4.122   5.548  14.822  0.0245 -0.4569  0.4806
 9465TIP3    H149810   4.116   5.557  14.917 -2.5370  0.1609  0.3111
 9465TIP3    H249811   4.190   5.610  14.796 -0.4601  0.6414  1.7577
 9466TIP3   OH249812   0.672   4.610   2.097  0.1677 -0.3536  0.2514
 9466TIP3    H149813   0.724   4.683   2.129 -2.0569  0.4598  2.1988
 9466TIP3    H249814   0.634   4.571   2.175 -0.6124 -2.1043 -0.9557
 9467TIP3   OH249815   4.527   4.107  12.698  0.4196 -0.0218  0.3845
 9467TIP3    H149816   4.537   4.068  12.612  1.2011  0.3674  0.2998
 9467TIP3    H249817   4.570   4.046  12.758  1.6222  0.6876  0.2548
 9468TIP3   OH249818   4.903   6.625   3.396  0.4050  0.4138 -0.4687
 9468TIP3    H149819   4.841   6.623   3.469  0.0716  1.0063 -0.7257
 9468TIP3    H249820   4.940   6.713   3.399  1.1064  0.1139 -0.4232
 9469TIP3   OH249821   4.347   1.187  14.452  1.1806  0.4422  1.0867
 9469TIP3    H149822   4.256   1.156  14.448  1.9307 -2.0344  2.2232
 9469TIP3    H249823   4.342   1.270  14.499 -0.9896  2.6384 -2.7480
 9470TIP3   OH249824   5.045   0.158  14.022  0.4588 -0.0531 -0.2294
 9470TIP3    H149825   4.996   0.143  13.941  1.1819 -0.6667 -0.5608
 9470TIP3    H249826   5.137   0.150  13.997  0.7708  1.8897  0.2341
 9471TIP3   OH249827   0.267   5.489  10.386  0.3385 -0.6146 -0.0954
 9471TIP3    H149828   0.248   5.453  10.299  0.0092  0.3078 -0.4120
 9471TIP3    H249829   0.257   5.583  10.375  2.5548 -0.3012  0.3678
 9472TIP3   OH249830   4.313   5.986   4.982 -0.2955  0.2907 -0.5716
 9472TIP3    H149831   4.316   5.891   4.996 -0.8036 -0.0560 -2.6322
 9472TIP3    H249832   4.403   6.010   4.961  0.4252  0.7764  2.7551
 9473TIP3   OH249833   1.202   0.229  12.457  0.2829 -0.3140  0.0852
 9473TIP3    H149834   1.217   0.269  12.543 -1.7892  0.4565  0.1213
 9473TIP3    H249835   1.272   0.265  12.401  0.9892  0.0124  1.1620
 9474TIP3   OH249836   5.009   4.288  16.481 -0.7202  0.0390 -0.2108
 9474TIP3    H149837   4.991   4.259  16.392  0.4484 -1.0910 -0.1016
 9474TIP3    H249838   5.088   4.342  16.474  0.8467 -2.0892  0.4419
 9475TIP3   OH249839   2.122   5.723   1.172  0.3820 -0.4962  0.1097
 9475TIP3    H149840   2.053   5.745   1.236  0.4106  0.1972 -0.0922
 9475TIP3    H249841   2.078   5.727   1.087  0.6039 -0.3410  0.0034
 9476TIP3   OH249842   2.745   4.788  15.171 -0.3606 -0.2798  0.6216
 9476TIP3    H149843   2.744   4.729  15.095  0.2172 -0.9763  1.1486
 9476TIP3    H249844   2.652   4.809  15.186 -0.2954  2.8125 -2.5156
 9477TIP3   OH249845   3.104   6.767  12.042 -0.0088 -0.1259 -0.3174
 9477TIP3    H149846   3.128   6.696  11.981 -1.7361 -1.9763  1.0660
 9477TIP3    H249847   3.172   6.765  12.109 -0.0341 -0.4638 -0.2998
 9478TIP3   OH249848   3.695   6.106  11.494 -0.1484  0.0869  0.0244
 9478TIP3    H149849   3.785   6.109  11.526  0.2556  2.1453 -1.2200
 9478TIP3    H249850   3.672   6.197  11.476 -2.0165 -0.5295 -0.9606
 9479TIP3   OH249851   1.213   4.670  13.216  0.1492 -0.4107 -0.0703
 9479TIP3    H149852   1.298   4.690  13.176  0.3604  3.1219  1.9284
 9479TIP3    H249853   1.227   4.681  13.310 -2.3779 -0.3460  0.3415
 9480TIP3   OH249854   3.018   0.609   2.165 -0.6259  0.1376 -0.0164
 9480TIP3    H149855   3.076   0.538   2.139 -0.8361  0.7714 -2.2641
 9480TIP3    H249856   3.046   0.631   2.254  1.2813 -0.8690 -0.3440
 9481TIP3   OH249857   6.655   2.672  16.228 -0.2072  0.5329  1.0560
 9481TIP3    H149858   6.715   2.684  16.301  0.3624  1.2507  0.4736
 9481TIP3    H249859   6.658   2.578  16.209 -0.0784  0.4042  1.7132
 9482TIP3   OH249860   0.999   3.123   5.854  1.0392 -0.1990 -0.5709
 9482TIP3    H149861   1.027   3.081   5.773  2.0246 -2.2436  0.7834
 9482TIP3    H249862   0.904   3.135   5.843  1.0112 -1.2925 -1.6667
 9483TIP3   OH249863   5.518   3.022  12.606  0.0505 -0.7396  0.1681
 9483TIP3    H149864   5.510   2.960  12.679  0.7519 -0.4672  0.4810
 9483TIP3    H249865   5.609   3.015  12.579  0.5677  1.3209  1.2697
 9484TIP3   OH249866   4.164   1.526  13.582  0.5887 -0.6851 -0.2325
 9484TIP3    H149867   4.185   1.617  13.603  0.1404 -0.2802 -1.4920
 9484TIP3    H249868   4.071   1.518  13.601  0.9679 -1.3685  1.4904
 9485TIP3   OH249869   4.350   3.162   3.430 -0.1008 -0.6480  0.6838
 9485TIP3    H149870   4.369   3.199   3.516  1.4314 -3.3893  1.5723
 9485TIP3    H249871   4.283   3.096   3.445 -0.7133 -0.3144 -0.4459
 9486TIP3   OH249872   4.820   4.038   1.548 -0.2256 -0.1112 -0.0348
 9486TIP3    H149873   4.777   3.996   1.473 -2.1200 -0.1133  1.0355
 9486TIP3    H249874   4.782   3.994   1.625 -0.0002  1.4939  1.0030
 9487TIP3   OH249875   6.383   2.065  14.656  0.2402  0.5488 -0.8680
 9487TIP3    H149876   6.305   2.023  14.618 -0.1162 -0.5564  1.0441
 9487TIP3    H249877   6.363   2.074  14.749  1.2887  2.8350 -0.8304
 9488TIP3   OH249878   6.626   5.070   0.305 -0.4871 -0.1132 -0.0398
 9488TIP3    H149879   6.659   4.988   0.340 -0.4654  0.4737  1.3838
 9488TIP3    H249880   6.572   5.106   0.376 -0.4468  1.1159 -0.6147
 9489TIP3   OH249881   2.199   4.400   2.166 -0.2234  0.5376  0.0620
 9489TIP3    H149882   2.206   4.395   2.262  0.5959 -1.1863 -0.0507
 9489TIP3    H249883   2.164   4.487   2.148 -0.3755  0.8798  1.9342
 9490TIP3   OH249884   0.166   0.328   3.054  0.1814 -0.1977 -0.0274
 9490TIP3    H149885   0.127   0.413   3.071 -0.0061  0.1417 -1.9978
 9490TIP3    H249886   0.178   0.325   2.959  1.5073 -1.7943  0.1495
 9491TIP3   OH249887   5.475   0.837  14.042  0.3258 -0.4162 -0.7933
 9491TIP3    H149888   5.456   0.923  14.004  0.8172 -0.2900 -0.7516
 9491TIP3    H249889   5.559   0.811  14.003  1.6334  0.4229  1.3795
 9492TIP3   OH249890   0.634   6.722   3.877 -0.2273  0.4131 -0.4627
 9492TIP3    H149891   0.724   6.752   3.861  1.7493 -4.2203  1.2405
 9492TIP3    H249892   0.609   6.678   3.796 -0.2452  0.0900 -0.2832
 9493TIP3   OH249893   6.625   5.111  15.587 -0.3795 -0.3995  0.2162
 9493TIP3    H149894   6.674   5.112  15.504  0.6128  0.7352  0.7909
 9493TIP3    H249895   6.635   5.022  15.620  0.2612 -0.5209 -0.2893
 9494TIP3   OH249896   6.202   0.268   3.329  0.0286  0.6061 -0.5183
 9494TIP3    H149897   6.113   0.262   3.364  1.3448 -2.8594  2.5873
 9494TIP3    H249898   6.238   0.347   3.369 -1.6771  2.1859 -2.0095
 9495TIP3   OH249899   5.589   5.014   3.827  0.0493 -0.5747 -0.2046
 9495TIP3    H149900   5.560   4.925   3.808  0.9882 -1.2599  1.4720
 9495TIP3    H249901   5.599   5.016   3.922  0.6899  1.1279 -0.2953
 9496TIP3   OH249902   5.055   6.106  13.163 -0.3964 -0.1073 -0.1938
 9496TIP3    H149903   5.045   6.025  13.114  0.4307 -0.1927 -0.2318
 9496TIP3    H249904   5.109   6.081  13.239 -0.7415  0.2524  0.1711
 9497TIP3   OH249905   1.157   2.477  16.622 -0.1116  0.3104  0.1848
 9497TIP3    H149906   1.172   2.495  16.715 -1.7655 -0.4280  0.6228
 9497TIP3    H249907   1.244   2.463  16.586  0.4223 -1.8034  2.1544
 9498TIP3   OH249908   2.816   1.103   1.553  0.2381 -0.3706 -0.2459
 9498TIP3    H149909   2.738   1.138   1.596 -0.7115 -1.7206 -0.8156
 9498TIP3    H249910   2.782   1.055   1.477  1.6447 -0.7082 -0.6791
 9499TIP3   OH249911   3.580   3.127  11.189 -0.5429 -0.3502  0.0476
 9499TIP3    H149912   3.537   3.200  11.144 -2.2338 -1.0327  0.5270
 9499TIP3    H249913   3.560   3.050  11.135  0.3454 -0.6242  0.1065
 9500TIP3   OH249914   6.443   2.724  15.629 -0.0104  1.1205 -0.0711
 9500TIP3    H149915   6.419   2.654  15.568  0.8335  0.4906  0.2980
 9500TIP3    H249916   6.432   2.804  15.578 -0.7613  0.7110 -0.5785
 9501TIP3   OH249917   1.143   5.024   5.327  0.1894 -0.7885  0.2177
 9501TIP3    H149918   1.224   4.991   5.288  0.5544 -4.4825  3.7852
 9501TIP3    H249919   1.169   5.104   5.373  2.0528 -2.3843  2.0179
 9502TIP3   OH249920   3.476   5.956   1.565  0.2507 -0.0309  1.2816
 9502TIP3    H149921   3.461   5.915   1.650 -2.1623 -0.0725  0.8665
 9502TIP3    H249922   3.437   5.895   1.502  1.0630  0.5128  0.2333
 9503TIP3   OH249923   3.653   1.950  15.376  0.2874  0.4940 -0.0387
 9503TIP3    H149924   3.698   1.979  15.297  0.3146 -1.1678 -0.6435
 9503TIP3    H249925   3.723   1.918  15.433  0.0873 -0.1672 -0.1562
 9504TIP3   OH249926   4.309   0.113   4.089  0.0423  0.2883 -0.0272
 9504TIP3    H149927   4.339   0.202   4.111 -0.6303  0.4534  0.2477
 9504TIP3    H249928   4.366   0.086   4.017 -0.4708  1.3856 -0.8689
 9505TIP3   OH249929   2.409   6.255  15.784 -0.0815 -0.0968 -0.1642
 9505TIP3    H149930   2.411   6.257  15.688  0.2371  2.1408 -0.1284
 9505TIP3    H249931   2.489   6.302  15.810  0.1362 -1.2079  1.1986
 9506TIP3   OH249932   5.622   4.320  17.039  0.0618 -0.3170 -0.7609
 9506TIP3    H149933   5.657   4.233  17.018 -1.4351 -0.9938 -0.5647
 9506TIP3    H249934   5.529   4.314  17.016 -0.0684  1.2196 -0.6773
 9507TIP3   OH249935   0.165   4.729  15.607  0.9800  0.6044  0.0242
 9507TIP3    H149936   0.110   4.803  15.582 -1.1384 -0.4866  1.3648
 9507TIP3    H249937   0.251   4.750  15.570 -0.4715  2.0332 -2.6514
 9508TIP3   OH249938   2.545   6.629  11.000 -0.6917 -0.3506 -0.0170
 9508TIP3    H149939   2.551   6.704  10.940  2.3549 -1.0947 -0.7405
 9508TIP3    H249940   2.581   6.662  11.082 -0.5505 -0.6391  0.0367
 9509TIP3   OH249941   0.419   1.426  16.191  0.8600  0.1812  0.1385
 9509TIP3    H149942   0.508   1.400  16.165  0.3123 -1.3783 -0.1859
 9509TIP3    H249943   0.388   1.480  16.118 -0.7772 -4.4093 -2.7449
 9510TIP3   OH249944   5.739   4.826  12.394  0.5249  0.4286  0.4927
 9510TIP3    H149945   5.693   4.784  12.467  0.7288 -0.9520 -0.1548
 9510TIP3    H249946   5.676   4.889  12.359  0.7781  1.8349  2.4867
 9511TIP3   OH249947   5.076   1.886   4.923  0.2627 -0.4898  0.1882
 9511TIP3    H149948   5.016   1.904   4.851  0.3986  1.3442  0.5097
 9511TIP3    H249949   5.057   1.795   4.948  0.7741 -1.4521 -2.6662
 9512TIP3   OH249950   6.041   4.306  13.215 -0.4464 -0.2164  0.0954
 9512TIP3    H149951   6.063   4.346  13.131 -0.1627  1.2215  0.8476
 9512TIP3    H249952   5.961   4.351  13.243 -0.4521 -0.5867  0.6822
 9513TIP3   OH249953   0.084   6.182  15.429 -0.1357  0.1307 -0.1446
 9513TIP3    H149954   0.038   6.219  15.504  0.1466  0.0359  0.0762
 9513TIP3    H249955   0.097   6.090  15.451  1.1878  0.4149  0.3138
 9514TIP3   OH249956   5.338   4.911  16.392  0.0303 -0.0161 -0.1921
 9514TIP3    H149957   5.249   4.882  16.412  0.1699 -1.6332 -1.8298
 9514TIP3    H249958   5.385   4.831  16.370  2.2458  0.6691  1.8547
 9515TIP3   OH249959   3.738   5.066   3.468  0.5427 -0.7399  0.1957
 9515TIP3    H149960   3.713   5.091   3.557 -0.6961  0.6533 -0.5117
 9515TIP3    H249961   3.692   4.984   3.453 -1.8808  0.6349 -0.2619
 9516TIP3   OH249962   3.805   1.775   2.503 -0.0131 -0.0270 -1.1129
 9516TIP3    H149963   3.832   1.695   2.548 -1.1823 -0.2305 -0.7454
 9516TIP3    H249964   3.866   1.841   2.534  1.1316 -0.8295 -1.6317
 9517TIP3   OH249965   3.946   6.437  15.188 -0.4725  0.7777  0.4592
 9517TIP3    H149966   3.977   6.388  15.112 -0.8906 -0.6104  1.1614
 9517TIP3    H249967   4.025   6.477  15.225  0.0796 -0.5196  0.6811
 9518TIP3   OH249968   1.713   3.895   3.862  0.0181 -0.7967 -0.3069
 9518TIP3    H149969   1.711   3.863   3.772 -1.2833  0.3612 -0.6970
 9518TIP3    H249970   1.789   3.954   3.865 -1.6027  1.4155 -1.4467
 9519TIP3   OH249971   0.157   2.966   5.242  0.2011 -0.0040  0.0473
 9519TIP3    H149972   0.214   3.010   5.305  0.6999 -0.2272 -0.2437
 9519TIP3    H249973   0.139   3.033   5.176  1.4413 -0.3911 -0.7072
 9520TIP3   OH249974   2.633   5.900  15.603 -0.0862 -0.0367 -0.1707
 9520TIP3    H149975   2.687   5.898  15.682  0.2787 -1.4442 -0.4281
 9520TIP3    H249976   2.680   5.958  15.543 -0.0820  0.6072  0.4571
 9521TIP3   OH249977   3.593   3.286  12.822  0.7130  0.0368  0.0207
 9521TIP3    H149978   3.521   3.284  12.885  0.6996 -0.6766 -0.0180
 9521TIP3    H249979   3.663   3.333  12.868  0.0092  1.2936 -0.1795
 9522TIP3   OH249980   3.493   5.174  16.642  0.0522 -0.1411  0.1343
 9522TIP3    H149981   3.418   5.162  16.701 -1.2302 -1.4252 -1.6958
 9522TIP3    H249982   3.470   5.124  16.564  2.9455 -0.7452 -0.3845
 9523TIP3   OH249983   2.802   0.261   5.902 -0.4628  0.2781  0.0607
 9523TIP3    H149984   2.897   0.254   5.895 -0.4734 -0.4531  0.5148
 9523TIP3    H249985   2.771   0.268   5.812  0.0076  0.3427 -0.0984
 9524TIP3   OH249986   0.961   1.520  12.448 -0.3259  0.1942  0.0858
 9524TIP3    H149987   1.030   1.584  12.431  0.5025 -1.1550 -1.8309
 9524TIP3    H249988   0.940   1.532  12.540  2.6971  0.4571  0.8172
 9525TIP3   OH249989   3.168   2.735   3.089 -0.1925 -0.3021 -0.0778
 9525TIP3    H149990   3.153   2.828   3.099 -0.4584 -0.5017  1.5217
 9525TIP3    H249991   3.084   2.699   3.062 -0.9355 -0.5137  2.4564
 9526TIP3   OH249992   3.290   6.754  12.249  0.1894  0.4229  0.4277
 9526TIP3    H149993   3.313   6.825  12.309 -2.3224  1.4090  0.2847
 9526TIP3    H249994   3.296   6.675  12.303  4.0534  0.5640  0.3151
 9527TIP3   OH249995   0.918   6.385   4.830  0.0705  0.0578 -0.0318
 9527TIP3    H149996   1.009   6.416   4.826  0.9448 -2.5205 -0.9186
 9527TIP3    H249997   0.914   6.332   4.909 -0.5408 -0.1830 -0.2194
 9528TIP3   OH249998   1.313   1.160  11.956 -0.3836  0.3584 -0.3353
 9528TIP3    H149999   1.226   1.173  11.995 -0.7729  0.2366 -1.1419
 9528TIP3    H250000   1.335   1.245  11.918  0.4644  0.7799  1.0540
 9529TIP3   OH250001   3.417   3.278  14.070  0.4171  0.1490  0.6549
 9529TIP3    H150002   3.326   3.268  14.042  0.9866 -0.7603 -0.9210
 9529TIP3    H250003   3.417   3.254  14.163 -1.3729  2.4898  1.3234
 9530TIP3   OH250004   1.841   4.019   0.146 -0.6205 -0.1059  0.0906
 9530TIP3    H150005   1.830   3.998   0.053 -0.0471 -0.5211  0.1117
 9530TIP3    H250006   1.897   4.096   0.147 -0.3218 -0.3209  0.0994
 9531TIP3   OH250007   1.456   5.712   6.349 -0.3197  0.0098 -0.2325
 9531TIP3    H150008   1.545   5.740   6.368 -1.6153  2.8909  2.0810
 9531TIP3    H250009   1.434   5.651   6.420 -0.2257 -0.6318 -0.7525
 9532TIP3   OH250010   4.903   5.478   0.015  0.1941  0.4359  0.1848
 9532TIP3    H150011   4.951   5.550  -0.024  0.7966  0.0300  0.1694
 9532TIP3    H250012   4.867   5.429  -0.059 -0.8234  1.1340  0.2150
 9533TIP3   OH250013   1.077   4.424  13.161 -0.4629 -0.5142 -0.0660
 9533TIP3    H150014   1.101   4.517  13.160 -2.4019  0.0542  2.2986
 9533TIP3    H250015   1.157   4.379  13.135  0.5047  1.8035 -1.2994
 9534TIP3   OH250016   6.032   0.888  15.807 -0.0542  0.2496 -0.0976
 9534TIP3    H150017   6.125   0.870  15.798 -0.3315 -1.7319  0.9294
 9534TIP3    H250018   5.989   0.820  15.755 -1.0023 -0.3100  1.3796
 9535TIP3   OH250019   0.115   6.651   1.459  0.3060 -0.1696 -0.2927
 9535TIP3    H150020   0.178   6.599   1.407  0.4079  0.2882 -0.6325
 9535TIP3    H250021   0.166   6.684   1.533 -0.0590 -1.5822  0.6094
 9536TIP3   OH250022   6.763   1.840   0.150  0.0094 -0.3864 -0.0500
 9536TIP3    H150023   6.845   1.791   0.144 -1.1821 -2.2241 -2.3415
 9536TIP3    H250024   6.708   1.803   0.081 -1.6273  3.0014 -0.6577
 9537TIP3   OH250025   5.440   1.419   2.271  0.1747 -0.4942  0.2709
 9537TIP3    H150026   5.473   1.505   2.246 -0.1215  0.0078  1.5512
 9537TIP3    H250027   5.515   1.376   2.312  0.4521 -1.0305 -0.7829
 9538TIP3   OH250028   4.557   1.837   2.734 -0.1706  0.6223 -0.0486
 9538TIP3    H150029   4.618   1.788   2.789 -0.6266  0.0455 -0.0578
 9538TIP3    H250030   4.569   1.800   2.647 -3.7221 -2.6496  0.6999
 9539TIP3   OH250031   4.984   6.333  11.707 -0.2736  0.0559  0.2169
 9539TIP3    H150032   4.919   6.289  11.652 -1.6643  1.7232  0.4809
 9539TIP3    H250033   5.020   6.402  11.652  2.0764 -1.4965 -0.2795
 9540TIP3   OH250034   6.185   6.078  16.903  0.1510  0.0226 -0.3759
 9540TIP3    H150035   6.119   6.131  16.859 -0.3055  0.2490  0.5631
 9540TIP3    H250036   6.252   6.141  16.930  0.7870 -0.2207 -1.4091
 9541TIP3   OH250037   0.567   1.204  12.616  0.4517 -0.2408  0.3667
 9541TIP3    H150038   0.492   1.219  12.559  0.3252  2.7578  1.2691
 9541TIP3    H250039   0.560   1.112  12.641 -1.3009 -0.7410 -1.8300
 9542TIP3   OH250040   5.707   4.367  13.519 -0.1993  0.3488 -0.1641
 9542TIP3    H150041   5.773   4.336  13.581  0.1566 -0.1442 -0.7931
 9542TIP3    H250042   5.656   4.431  13.569  1.1025  1.1509  0.1476
 9543TIP3   OH250043   5.543   4.074  11.338 -0.6044  0.1681  0.2386
 9543TIP3    H150044   5.563   4.102  11.249  1.2357  1.0269  0.9043
 9543TIP3    H250045   5.567   4.149  11.393  0.6701 -1.2769  1.6879
 9544TIP3   OH250046   5.926   6.257  17.014  0.0721 -0.5193  0.0779
 9544TIP3    H150047   5.894   6.345  17.031  0.2811 -0.3248 -0.5191
 9544TIP3    H250048   5.976   6.265  16.933 -0.6994 -1.3657 -0.5008
 9545TIP3   OH250049   4.912   2.404  13.512  0.1890  0.1930 -0.4308
 9545TIP3    H150050   4.894   2.484  13.464  1.7746  0.6435 -0.3095
 9545TIP3    H250051   4.962   2.350  13.451  0.1615 -0.2108 -0.0990
 9546TIP3   OH250052   4.217   4.477   6.568  0.1316  0.6432 -0.6995
 9546TIP3    H150053   4.282   4.533   6.527  1.0072  0.8977  1.0066
 9546TIP3    H250054   4.266   4.400   6.597 -0.1179  1.2906  1.5022
 9547TIP3   OH250055   4.446   0.690   4.031  0.5606 -0.0746 -0.7797
 9547TIP3    H150056   4.380   0.627   4.004 -0.2645 -0.3640  1.7893
 9547TIP3    H250057   4.518   0.678   3.969  0.2570 -3.2610 -0.5865
 9548TIP3   OH250058   5.118   2.167  15.609  0.5461  0.5831  0.8725
 9548TIP3    H150059   5.040   2.193  15.560  0.6368  0.8064  0.8463
 9548TIP3    H250060   5.087   2.098  15.668 -0.3064  2.5887  2.8628
 9549TIP3   OH250061   2.559   6.344   3.967  0.4224  0.4088  0.0697
 9549TIP3    H150062   2.476   6.299   3.987  0.2311  0.0845 -1.4520
 9549TIP3    H250063   2.533   6.431   3.940  0.5220  0.0345 -1.2410
 9550TIP3   OH250064   6.709   3.029  15.464  0.7073  0.2766 -0.5405
 9550TIP3    H150065   6.787   2.976  15.451  1.4005  1.3217 -0.7426
 9550TIP3    H250066   6.741   3.112  15.498 -0.5274 -0.0622  1.5378
 9551TIP3   OH250067   3.003   6.421  16.949 -0.1126 -0.1639  0.5887
 9551TIP3    H150068   2.957   6.504  16.960  0.6343  0.4427 -0.8657
 9551TIP3    H250069   2.994   6.400  16.856  0.1585 -1.4473  0.8433
 9552TIP3   OH250070   1.323   4.322   1.372  1.1061  0.2230  0.3038
 9552TIP3    H150071   1.238   4.363   1.358  1.5783  0.6333 -1.4228
 9552TIP3    H250072   1.326   4.305   1.467 -1.5461 -1.2896  0.1480
 9553TIP3   OH250073   6.626   6.588  11.312 -0.1895 -0.7844 -0.2886
 9553TIP3    H150074   6.696   6.561  11.253 -0.9305 -1.4267 -0.8917
 9553TIP3    H250075   6.658   6.668  11.354  0.6638 -0.7704 -0.9702
 9554TIP3   OH250076   6.372   4.794   5.382  0.1724 -0.3832 -0.8680
 9554TIP3    H150077   6.335   4.712   5.414  0.3586 -0.8238 -1.7805
 9554TIP3    H250078   6.416   4.771   5.300  2.2751  0.1460  0.0551
 9555TIP3   OH250079   3.911   2.828  12.311 -0.4706 -0.5793  0.1671
 9555TIP3    H150080   3.903   2.735  12.332  0.0563 -0.4813  0.8206
 9555TIP3    H250081   3.823   2.863  12.323 -0.6982 -1.0164 -0.2092
 9556TIP3   OH250082   5.418   4.323   0.867 -0.2733 -0.0045 -0.1867
 9556TIP3    H150083   5.424   4.370   0.784 -0.8642 -0.4513 -0.4899
 9556TIP3    H250084   5.469   4.376   0.929 -0.2376  0.5866 -0.7173
 9557TIP3   OH250085   1.906   4.482  15.965  0.0629  0.1211 -0.4074
 9557TIP3    H150086   1.903   4.573  15.936  1.0577 -0.5084 -2.6648
 9557TIP3    H250087   1.819   4.464  15.999 -0.1658  1.8857 -0.0349
 9558TIP3   OH250088   3.990   3.344  14.798  0.3078 -0.4817  0.1528
 9558TIP3    H150089   3.976   3.439  14.798  0.6404 -0.4335 -0.3757
 9558TIP3    H250090   4.039   3.326  14.718  1.7621 -0.8925  1.1274
 9559TIP3   OH250091   6.114   4.176   5.713 -0.9577 -0.5324  0.2244
 9559TIP3    H150092   6.047   4.193   5.779  0.6826 -2.3736  2.4455
 9559TIP3    H250093   6.169   4.108   5.751  2.0414  0.7345 -1.6402
 9560TIP3   OH250094   2.237   3.566  15.370 -0.0278 -0.1997  0.4057
 9560TIP3    H150095   2.174   3.633  15.396 -0.4174 -0.0656 -0.8622
 9560TIP3    H250096   2.242   3.507  15.446 -1.2460  0.1051  0.7311
 9561TIP3   OH250097   1.099   0.560  16.666  0.1936 -0.3788  0.3544
 9561TIP3    H150098   1.029   0.548  16.731 -0.4888  0.2614 -0.2524
 9561TIP3    H250099   1.167   0.499  16.693  0.3864  0.6518  2.3244
 9562TIP3   OH250100   6.779   1.194   2.736 -0.0235 -0.1627 -0.1780
 9562TIP3    H150101   6.768   1.102   2.717  0.3559 -0.2841  0.1642
 9562TIP3    H250102   6.808   1.233   2.654  0.9831 -0.5643 -0.0256
 9563TIP3   OH250103   2.555   3.528  15.547 -0.2047 -0.1839  0.0335
 9563TIP3    H150104   2.577   3.474  15.623 -1.7775  0.1748  0.7631
 9563TIP3    H250105   2.530   3.613  15.584 -0.3182  0.2135 -0.9330
 9564TIP3   OH250106   4.921   2.622  13.320  0.3960  0.6902 -0.2559
 9564TIP3    H150107   4.827   2.630  13.337  0.4940  0.7941  0.2619
 9564TIP3    H250108   4.935   2.672  13.239  0.0268  0.7804 -0.2653
 9565TIP3   OH250109   4.653   1.087   1.530  0.0010 -0.1001 -0.6996
 9565TIP3    H150110   4.645   1.177   1.497 -1.2455 -0.3540 -1.1174
 9565TIP3    H250111   4.563   1.056   1.537  0.3910 -1.0654  0.1706
 9566TIP3   OH250112   4.090   6.715  16.309  0.5019  0.3551 -0.3706
 9566TIP3    H150113   4.160   6.652  16.292 -0.1094  0.4111 -3.2062
 9566TIP3    H250114   4.014   6.680  16.262 -0.3864  2.1978 -0.3272
 9567TIP3   OH250115   4.609   0.969  13.734 -0.1487 -0.4747  0.1936
 9567TIP3    H150116   4.608   1.035  13.664 -3.0392 -0.9546 -0.2704
 9567TIP3    H250117   4.615   1.020  13.815 -0.2301  0.2451 -0.2437
 9568TIP3   OH250118   3.989   1.598  12.774 -0.7826  0.6123 -0.4010
 9568TIP3    H150119   4.035   1.524  12.812  0.9248  1.6829 -0.3550
 9568TIP3    H250120   3.908   1.605  12.825 -1.1291 -1.3941 -0.6160
 9569TIP3   OH250121   0.701   0.655   5.060  0.4801 -0.3179 -0.5214
 9569TIP3    H150122   0.718   0.566   5.029 -0.2428 -0.9945  0.9626
 9569TIP3    H250123   0.738   0.657   5.148 -1.2498  0.2357  0.2087
 9570TIP3   OH250124   3.987   2.918   2.021 -0.2124  0.3260 -0.4505
 9570TIP3    H150125   3.942   2.933   2.104  0.8364  0.0788  0.1725
 9570TIP3    H250126   3.935   2.966   1.956 -0.1320  1.8574  0.5942
 9571TIP3   OH250127   6.719   5.264  15.873  0.4884 -0.1803 -0.1063
 9571TIP3    H150128   6.759   5.312  15.800  0.3159  1.3513  0.8014
 9571TIP3    H250129   6.635   5.233  15.837 -0.1659  1.6348 -0.2023
 9572TIP3   OH250130   6.598   1.844  11.037  0.4440  0.1132 -0.6660
 9572TIP3    H150131   6.539   1.919  11.027  0.1642 -0.0049  0.0727
 9572TIP3    H250132   6.549   1.770  11.001  0.7472  0.2902 -1.4608
 9573TIP3   OH250133   6.675   2.893   5.193 -0.2100 -0.4029 -0.0991
 9573TIP3    H150134   6.638   2.980   5.211 -0.4910 -0.6744  0.6642
 9573TIP3    H250135   6.760   2.894   5.237  0.3692 -0.0500 -1.2111
 9574TIP3   OH250136   0.835   3.427   4.904  0.3610 -0.5980 -0.5156
 9574TIP3    H150137   0.792   3.374   4.836  0.5160  1.3294 -2.1547
 9574TIP3    H250138   0.908   3.468   4.859  0.1243  1.1540  0.6771
 9575TIP3   OH250139   6.726   6.594  12.447  0.4001  0.5525  0.0325
 9575TIP3    H150140   6.685   6.508  12.433  0.1623  0.6799 -0.0605
 9575TIP3    H250141   6.661   6.657  12.415  0.2182  0.8054  0.9010
 9576TIP3   OH250142   3.811   1.651  16.774 -0.0261  0.3584  0.1714
 9576TIP3    H150143   3.785   1.691  16.690  0.8331 -1.3677 -0.9451
 9576TIP3    H250144   3.770   1.706  16.840 -3.5668 -0.2031 -1.4579
 9577TIP3   OH250145   1.979   5.343   1.160  0.2372  0.3791  0.4165
 9577TIP3    H150146   1.959   5.393   1.081 -2.1371  0.7860  1.2062
 9577TIP3    H250147   1.972   5.407   1.231  0.3635 -0.3918  1.1346
 9578TIP3   OH250148   2.101   4.933  14.507  0.2065  0.0562 -0.0707
 9578TIP3    H150149   2.110   4.987  14.585  2.3984 -0.3420 -0.0376
 9578TIP3    H250150   2.145   4.982  14.438 -2.0125  0.5684 -1.1631
 9579TIP3   OH250151   1.379   6.282  14.190 -0.4122  0.9246  0.6638
 9579TIP3    H150152   1.330   6.281  14.108  0.0975 -0.5457  0.3533
 9579TIP3    H250153   1.461   6.326  14.169  1.3418 -2.7516 -0.6398
 9580TIP3   OH250154   5.396   2.489  16.914  0.1171 -0.1289 -0.0702
 9580TIP3    H150155   5.336   2.514  16.985 -0.1356  0.8922 -0.6356
 9580TIP3    H250156   5.369   2.401  16.890 -1.3165  0.4059 -0.4804
 9581TIP3   OH250157   2.205   2.017  12.986 -0.0208  0.3360 -0.0301
 9581TIP3    H150158   2.245   2.103  12.995 -1.4339  1.0869 -0.7696
 9581TIP3    H250159   2.189   1.988  13.076 -1.5742  1.8267  0.2030
 9582TIP3   OH250160   5.764   6.571   2.611  0.0431 -0.4598 -0.2101
 9582TIP3    H150161   5.847   6.576   2.659  0.1147  0.2571 -0.4008
 9582TIP3    H250162   5.748   6.478   2.600  0.9480 -0.6034 -0.3757
 9583TIP3   OH250163   5.151   6.720   2.537  0.1744 -0.1714  0.1743
 9583TIP3    H150164   5.066   6.716   2.581 -0.2260  1.1872 -0.4183
 9583TIP3    H250165   5.186   6.632   2.544 -0.4838 -0.3108  1.9921
 9584TIP3   OH250166   6.265   6.768  11.509 -0.2107 -0.6545 -0.1678
 9584TIP3    H150167   6.330   6.837  11.492 -0.0645 -1.1351 -1.6165
 9584TIP3    H250168   6.188   6.796  11.460 -0.1258 -1.5509 -0.8296
 9585TIP3   OH250169   6.185   0.906  16.855  0.7548 -0.2275  0.0322
 9585TIP3    H150170   6.248   0.838  16.834  0.2922 -0.6151 -0.1238
 9585TIP3    H250171   6.169   0.952  16.773 -0.2975 -1.1009 -0.2674
 9586TIP3   OH250172   5.452   0.922  15.674 -0.2524  1.1116  0.4703
 9586TIP3    H150173   5.401   0.871  15.737 -0.1957  1.4291  0.7752
 9586TIP3    H250174   5.485   0.858  15.611 -0.0583  0.7610  0.9349
 9587TIP3   OH250175   1.727   2.920  15.491 -0.0515 -0.2857  0.7262
 9587TIP3    H150176   1.652   2.899  15.436 -0.2759  0.9541  0.5406
 9587TIP3    H250177   1.705   2.884  15.577 -0.1910 -1.2442  0.2909
 9588TIP3   OH250178   6.678   0.278  14.871 -0.3308 -0.3666  0.5405
 9588TIP3    H150179   6.717   0.334  14.803 -0.2820 -0.7015  0.2958
 9588TIP3    H250180   6.714   0.313  14.953 -0.2485 -0.0782  0.3830
 9589TIP3   OH250181   0.682   3.544   1.431  0.1049  0.3395 -0.3156
 9589TIP3    H150182   0.711   3.456   1.458  0.4695  0.2420 -1.0127
 9589TIP3    H250183   0.727   3.559   1.348  0.0644  1.2027 -0.1848
 9590TIP3   OH250184   5.378   3.249  14.383  0.1719 -0.7962 -0.4434
 9590TIP3    H150185   5.338   3.202  14.457  1.7453  1.3451  1.8782
 9590TIP3    H250186   5.467   3.268  14.413  0.6310  0.6716 -2.6605
 9591TIP3   OH250187   2.909   6.263  13.924 -0.2912 -0.0366  0.5584
 9591TIP3    H150188   2.951   6.343  13.892  0.2953 -1.2524 -1.7843
 9591TIP3    H250189   2.980   6.214  13.965 -0.3450 -0.0526  0.6318
 9592TIP3   OH250190   3.212   2.121  16.651 -0.4469  0.3875 -0.1250
 9592TIP3    H150191   3.129   2.074  16.659  0.2221 -0.9268 -0.7069
 9592TIP3    H250192   3.196   2.185  16.581 -1.0989  0.4408  0.0647
 9593TIP3   OH250193   0.256   3.366   1.992 -0.5189 -0.1547 -0.6260
 9593TIP3    H150194   0.174   3.350   1.946 -0.9227  3.1917 -1.2213
 9593TIP3    H250195   0.230   3.397   2.079  0.1743 -1.7852  0.1758
 9594TIP3   OH250196   1.805   2.618   2.613 -0.0589  0.0721  0.1975
 9594TIP3    H150197   1.805   2.679   2.687 -1.9242 -0.1400  0.4064
 9594TIP3    H250198   1.732   2.647   2.558 -0.3823 -1.3993 -0.1729
 9595TIP3   OH250199   0.285   5.540   5.884 -0.1288 -0.1189 -0.1986
 9595TIP3    H150200   0.293   5.445   5.876 -0.3638 -0.1491 -0.1074
 9595TIP3    H250201   0.374   5.572   5.891 -0.1444 -0.5636  2.3657
 9596TIP3   OH250202   6.051   6.527   1.363  0.1635  0.0837 -0.4035
 9596TIP3    H150203   6.020   6.617   1.357 -2.2018 -0.5488  1.4516
 9596TIP3    H250204   6.068   6.513   1.457  2.5343 -0.7614 -0.9232
 9597TIP3   OH250205   2.640   5.351  16.338  0.1355  0.1388 -0.5160
 9597TIP3    H150206   2.626   5.334  16.245  1.3617  0.9941 -0.8725
 9597TIP3    H250207   2.561   5.320  16.381  0.7868 -3.0398 -1.5166
 9598TIP3   OH250208   5.832   5.572   3.919 -0.0035 -0.3122 -0.1702
 9598TIP3    H150209   5.773   5.601   3.988  0.9546 -0.7475  0.8552
 9598TIP3    H250210   5.826   5.476   3.921 -1.4459 -0.2914 -2.0209
 9599TIP3   OH250211   5.535   3.253   4.012  0.5707 -0.0717 -0.6566
 9599TIP3    H150212   5.456   3.213   3.977 -0.6620  1.3819  0.3532
 9599TIP3    H250213   5.521   3.253   4.107  0.9412  1.8061 -0.5743
 9600TIP3   OH250214   3.878   2.141  16.800 -0.1179 -1.0834  0.0141
 9600TIP3    H150215   3.813   2.169  16.735  0.8940  1.0261 -0.1338
 9600TIP3    H250216   3.956   2.121  16.748  0.6465  0.4626  0.5295
 9601TIP3   OH250217   3.898   3.985  15.588 -0.6189 -0.5830 -0.5142
 9601TIP3    H150218   3.840   4.058  15.609 -1.4697 -1.3623 -0.1475
 9601TIP3    H250219   3.977   4.001  15.640 -1.3991 -0.7255  0.7235
 9602TIP3   OH250220   3.948   0.190   4.709  0.4995  0.5853 -0.4570
 9602TIP3    H150221   3.967   0.176   4.802  0.7083 -0.0896 -0.5966
 9602TIP3    H250222   3.976   0.280   4.692  0.5848  0.6665  0.1027
 9603TIP3   OH250223   3.711   4.376  14.910 -0.4382 -0.3249 -0.3482
 9603TIP3    H150224   3.775   4.447  14.916 -0.4970 -0.0624 -2.2181
 9603TIP3    H250225   3.678   4.382  14.820 -0.3322 -2.8343 -0.5972
 9604TIP3   OH250226   6.129   4.552   1.725  0.4072  0.4940  0.0901
 9604TIP3    H150227   6.075   4.623   1.759  0.2996  0.9072 -0.9131
 9604TIP3    H250228   6.219   4.584   1.732  0.3309  0.9201 -0.7691
 9605TIP3   OH250229   5.809   6.070   3.167 -0.3043 -0.1300 -0.4065
 9605TIP3    H150230   5.799   5.976   3.180 -0.1385  0.0451  1.1034
 9605TIP3    H250231   5.731   6.108   3.207  0.7694  0.5063  1.1580
 9606TIP3   OH250232   6.533   5.330   4.248 -0.4929 -0.2678 -0.4332
 9606TIP3    H150233   6.490   5.247   4.269  0.5324 -0.6781  0.1101
 9606TIP3    H250234   6.604   5.336   4.312 -1.2101  1.5382  0.2155
 9607TIP3   OH250235   3.441   5.192  11.163 -0.0485 -0.7579 -0.3827
 9607TIP3    H150236   3.368   5.132  11.181 -0.7536  0.4991  1.1077
 9607TIP3    H250237   3.513   5.159  11.216 -1.4736  1.6549  3.3303
 9608TIP3   OH250238   2.677   5.733  14.332  0.2761 -0.0000  0.3085
 9608TIP3    H150239   2.628   5.768  14.406  0.1525  0.2667  0.1004
 9608TIP3    H250240   2.655   5.790  14.259 -2.4826 -2.3738 -0.8150
 9609TIP3   OH250241   0.507   0.827  14.472  0.1722 -0.5503  0.0168
 9609TIP3    H150242   0.524   0.737  14.501 -1.0144 -1.0932 -0.9307
 9609TIP3    H250243   0.419   0.846  14.505  0.9080  0.7237  1.2943
 9610TIP3   OH250244   5.321   2.081   1.375 -0.3868  0.0004  0.1277
 9610TIP3    H150245   5.391   2.037   1.423  0.3252 -1.4151 -2.1350
 9610TIP3    H250246   5.240   2.049   1.416  0.2211 -0.6826  0.8047
 9611TIP3   OH250247   4.290   5.157  12.380 -0.0812  0.0407 -0.3907
 9611TIP3    H150248   4.309   5.093  12.448 -0.0280 -1.5126 -1.8467
 9611TIP3    H250249   4.196   5.176  12.391  0.1190  0.4843  0.6646
 9612TIP3   OH250250   0.529   5.191   0.006 -0.4746  0.3536 -0.2820
 9612TIP3    H150251   0.570   5.191   0.093 -0.2969  1.2652 -0.3665
 9612TIP3    H250252   0.436   5.206   0.023 -0.3037  1.4933 -0.3073
 9613TIP3   OH250253   3.111   3.300  15.541  0.1860  0.5483 -0.6293
 9613TIP3    H150254   3.077   3.389  15.546 -0.5502  0.2925 -1.0481
 9613TIP3    H250255   3.037   3.248  15.509  0.7690 -0.1257 -0.8775
 9614TIP3   OH250256   5.645   5.481   5.978 -0.3758 -0.2417  0.0932
 9614TIP3    H150257   5.567   5.518   5.937 -0.2189 -0.1908 -0.1614
 9614TIP3    H250258   5.706   5.555   5.984 -0.5249 -0.1697  0.7342
 9615TIP3   OH250259   4.620   4.506  15.199  0.4246 -0.1104  0.7866
 9615TIP3    H150260   4.640   4.426  15.149  0.1003  0.7396 -0.7442
 9615TIP3    H250261   4.545   4.483  15.253 -1.5140 -0.0429 -1.7656
 9616TIP3   OH250262   6.019   0.772  15.342  0.6637 -0.1037 -0.2945
 9616TIP3    H150263   6.066   0.847  15.305  0.8672 -0.6190 -1.0834
 9616TIP3    H250264   5.996   0.800  15.431  1.4128  0.6058 -0.3146
 9617TIP3   OH250265   4.984   6.220   1.459 -0.1289  0.2172 -0.1979
 9617TIP3    H150266   4.916   6.223   1.527 -0.1816  0.6394 -0.2672
 9617TIP3    H250267   4.971   6.300   1.409  0.3266  0.2204 -0.3079
 9618TIP3   OH250268   5.804   4.622   1.441 -0.4162  0.4414 -0.2490
 9618TIP3    H150269   5.753   4.565   1.384 -0.7153 -0.2682  0.7096
 9618TIP3    H250270   5.754   4.626   1.523 -0.5108  2.2626 -0.3675
 9619TIP3   OH250271   5.031   5.398   3.077 -0.0239  0.5167 -0.0635
 9619TIP3    H150272   5.057   5.478   3.031  0.6487 -1.7129 -3.8026
 9619TIP3    H250273   4.967   5.356   3.019  1.7740 -3.0345  0.3526
 9620TIP3   OH250274   4.458   4.454   2.104  0.6446 -0.1167 -0.2555
 9620TIP3    H150275   4.448   4.435   2.198  0.6161 -0.5105 -0.3364
 9620TIP3    H250276   4.384   4.408   2.063  0.9073 -0.3059 -0.5160
 9621TIP3   OH250277   4.295   2.469   5.568 -0.0947 -0.3355 -0.4681
 9621TIP3    H150278   4.298   2.487   5.662 -0.0657 -1.1374 -0.3092
 9621TIP3    H250279   4.204   2.447   5.550 -0.0837 -0.2630 -0.6169
 9622TIP3   OH250280   1.635   4.031   5.816  0.1824 -0.3646 -0.2324
 9622TIP3    H150281   1.646   4.030   5.721  0.8383 -0.2645 -0.1574
 9622TIP3    H250282   1.543   4.006   5.830 -0.3518  1.1432 -0.9514
 9623TIP3   OH250283   5.650   3.251  11.375  0.0875 -0.0212 -0.3917
 9623TIP3    H150284   5.579   3.240  11.438 -0.2658  0.1183 -0.7668
 9623TIP3    H250285   5.613   3.305  11.305  0.6487  0.2949 -0.4475
 9624TIP3   OH250286   1.900   1.084   5.557 -0.2101  0.5374  0.6245
 9624TIP3    H150287   1.930   1.033   5.632  0.2665 -1.4375 -0.8624
 9624TIP3    H250288   1.977   1.135   5.530  0.0245  0.1700  0.5989
 9625TIP3   OH250289   2.020   0.290  13.606  0.0366 -0.2581  0.3736
 9625TIP3    H150290   2.088   0.359  13.605 -0.2567  0.0380 -1.8044
 9625TIP3    H250291   1.948   0.329  13.656  0.9850 -0.1203  1.6819
 9626TIP3   OH250292   5.631   1.642  16.939 -0.3328 -0.0536 -0.2118
 9626TIP3    H150293   5.638   1.556  16.897  1.7956  0.0148 -0.0454
 9626TIP3    H250294   5.698   1.695  16.896 -0.8505  1.1882  0.5035
 9627TIP3   OH250295   3.915   0.678   4.844  0.3840  0.1711 -0.1698
 9627TIP3    H150296   3.840   0.718   4.800 -0.1323  0.9539  1.3533
 9627TIP3    H250297   3.988   0.691   4.785 -0.0273  2.3289 -0.2504
 9628TIP3   OH250298   5.734   0.683  12.793 -0.0213  0.2161  0.2203
 9628TIP3    H150299   5.769   0.690  12.882 -0.8112  1.3776  0.4636
 9628TIP3    H250300   5.642   0.659  12.805  0.5339 -2.3569 -0.3961
 9629TIP3   OH250301   1.690   1.962  15.910 -0.0667 -0.6182 -0.1456
 9629TIP3    H150302   1.738   1.932  15.987  0.8636 -0.6639 -0.7299
 9629TIP3    H250303   1.703   2.057  15.909 -1.2364 -0.4495  0.5235
 9630TIP3   OH250304   4.103   5.442  12.644 -0.2182 -0.2191  0.2255
 9630TIP3    H150305   4.067   5.528  12.623 -0.7200 -0.7379 -1.0438
 9630TIP3    H250306   4.041   5.405  12.707 -1.4335 -0.7324 -1.2461
 9631TIP3   OH250307   0.094   0.703   3.422  0.3038 -0.1466  0.3078
 9631TIP3    H150308   0.077   0.668   3.509 -1.5932  1.0898  0.4535
 9631TIP3    H250309   0.165   0.766   3.435 -0.1522  0.2249  1.0048
 9632TIP3   OH250310   2.650   5.046   1.205 -0.2457 -0.0654  0.4829
 9632TIP3    H150311   2.737   5.060   1.169 -0.1562 -4.1872 -1.1778
 9632TIP3    H250312   2.630   5.126   1.253  2.3550  2.9902 -3.3011
 9633TIP3   OH250313   4.800   5.482   3.901  0.3200 -0.2163  0.5001
 9633TIP3    H150314   4.830   5.400   3.861  1.2990 -0.1854  1.1500
 9633TIP3    H250315   4.765   5.533   3.828  1.5024 -0.4225 -0.2265
 9634TIP3   OH250316   1.331   2.600  12.588 -0.0706 -0.2561  0.2289
 9634TIP3    H150317   1.313   2.653  12.510 -0.4946 -2.9384 -1.6065
 9634TIP3    H250318   1.363   2.517  12.552 -1.7289 -2.1085  2.8655
 9635TIP3   OH250319   3.271   1.915  17.146  0.0283 -0.1403  0.4111
 9635TIP3    H150320   3.257   1.955  17.231  0.3593  0.2210  0.2962
 9635TIP3    H250321   3.354   1.869  17.154 -0.2736 -0.6783  0.4941
 9636TIP3   OH250322   5.511   4.168   2.188  1.1387 -0.1925  0.0269
 9636TIP3    H150323   5.510   4.262   2.170  2.2489  0.0535  1.2432
 9636TIP3    H250324   5.439   4.133   2.135 -0.8240  1.6708  1.3940
 9637TIP3   OH250325   5.796   1.060   2.748 -0.2379 -0.2237 -0.0304
 9637TIP3    H150326   5.722   1.086   2.802 -0.2298 -1.3346  0.5149
 9637TIP3    H250327   5.862   1.129   2.764 -0.8146  0.2890  0.1579
 9638TIP3   OH250328   2.742   6.572  16.614  0.4245 -0.1844  0.1444
 9638TIP3    H150329   2.706   6.501  16.561  0.5074 -0.3566  0.3101
 9638TIP3    H250330   2.699   6.651  16.582  1.1686 -0.1575 -0.8183
 9639TIP3   OH250331   0.995   4.144   0.887  0.1661 -0.2332  0.0403
 9639TIP3    H150332   1.033   4.123   0.973  0.3882 -0.4685 -0.1167
 9639TIP3    H250333   1.060   4.115   0.824 -0.2597 -0.6106 -0.2287
 9640TIP3   OH250334   1.696   4.801   2.579 -0.1881  0.0134  0.0884
 9640TIP3    H150335   1.707   4.896   2.591 -0.3576 -0.0547  0.8067
 9640TIP3    H250336   1.714   4.787   2.486  2.5362  0.3647  0.5367
 9641TIP3   OH250337   5.441   3.339   5.769  0.0084 -0.3752 -0.2549
 9641TIP3    H150338   5.352   3.367   5.746  0.1100  1.4606  1.4145
 9641TIP3    H250339   5.428   3.280   5.844  0.1329 -1.0711 -0.7721
 9642TIP3   OH250340   4.515   2.214  12.969  0.1734 -0.3914 -0.1843
 9642TIP3    H150341   4.493   2.300  12.934  0.4341  0.5399  1.8214
 9642TIP3    H250342   4.611   2.215  12.979  0.1402 -0.7398  0.2439
 9643TIP3   OH250343   0.857   4.842   4.842  0.0730 -0.6091 -0.1450
 9643TIP3    H150344   0.951   4.856   4.856 -0.0134  1.3244 -1.4902
 9643TIP3    H250345   0.817   4.870   4.924  0.5051  0.3143 -0.2485
 9644TIP3   OH250346   5.353   1.173   2.957 -0.0929  0.0865 -0.3743
 9644TIP3    H150347   5.319   1.139   3.040  2.4450  1.1021  1.1451
 9644TIP3    H250348   5.293   1.244   2.934  0.0889  0.8836  1.4778
 9645TIP3   OH250349   4.280   2.122   3.254 -0.1558 -0.5336 -0.3408
 9645TIP3    H150350   4.308   2.203   3.296 -2.0324 -1.3730  2.6684
 9645TIP3    H250351   4.362   2.077   3.233  0.8768  0.7358  0.8439
 9646TIP3   OH250352   0.548   1.100  13.444  0.2821  0.1265 -0.0916
 9646TIP3    H150353   0.566   1.117  13.537  1.2395  1.1755 -0.4571
 9646TIP3    H250354   0.623   1.137  13.398 -0.8202  0.8039 -1.3844
 9647TIP3   OH250355   3.729   1.056   3.018 -0.0875  0.5362 -0.4322
 9647TIP3    H150356   3.786   1.027   2.947 -0.1608  2.0958 -1.1607
 9647TIP3    H250357   3.765   1.140   3.045 -0.7407  0.4942  0.5992
 9648TIP3   OH250358   0.216   2.470   5.698 -0.0775 -0.1212  0.2464
 9648TIP3    H150359   0.189   2.403   5.635  0.3120 -0.2039  0.1702
 9648TIP3    H250360   0.246   2.543   5.644 -1.9342  0.7169  0.2978
 9649TIP3   OH250361   1.545   1.064  13.323  0.3444 -0.1119 -0.0130
 9649TIP3    H150362   1.451   1.072  13.304  0.1914  0.3177  0.9082
 9649TIP3    H250363   1.555   0.975  13.355  0.3817 -0.3994 -0.7965
 9650TIP3   OH250364   0.190   0.200  12.768  0.0532  0.1358 -0.3347
 9650TIP3    H150365   0.245   0.212  12.845  0.9321 -1.1337 -0.7443
 9650TIP3    H250366   0.151   0.286  12.752 -0.2637  0.3639  1.6046
 9651TIP3   OH250367   6.334   0.411  15.295 -0.5520 -0.0145  0.1051
 9651TIP3    H150368   6.403   0.467  15.331 -0.0861 -1.1602  1.0163
 9651TIP3    H250369   6.379   0.358  15.229 -0.1471 -2.0017  1.9196
 9652TIP3   OH250370   4.067   5.176   5.561  0.1520  0.3557  0.2559
 9652TIP3    H150371   4.075   5.231   5.639 -0.1281 -0.2129  0.6875
 9652TIP3    H250372   4.144   5.198   5.509 -0.3086  1.6474  0.1119
 9653TIP3   OH250373   1.989   0.366   4.351  0.1948  0.1319 -0.4315
 9653TIP3    H150374   1.923   0.385   4.418 -0.4455  0.1390 -1.0483
 9653TIP3    H250375   1.938   0.350   4.272  1.0083  1.7875 -1.3168
 9654TIP3   OH250376   3.842   5.602  12.980 -0.9590  0.0174 -0.5743
 9654TIP3    H150377   3.839   5.507  12.968  2.3753 -0.1909 -0.2262
 9654TIP3    H250378   3.844   5.614  13.075  0.6010  0.3093 -0.6279
 9655TIP3   OH250379   5.908   6.750  15.473  0.4907 -0.0994  0.2472
 9655TIP3    H150380   5.869   6.699  15.544  1.7382 -0.6677  0.5383
 9655TIP3    H250381   5.965   6.813  15.516  1.2665 -0.4557 -0.2398
 9656TIP3   OH250382   3.702   2.762  13.394 -0.3066  0.0941  0.1735
 9656TIP3    H150383   3.672   2.852  13.388 -1.2411 -0.3429 -2.1276
 9656TIP3    H250384   3.671   2.720  13.314 -0.4911 -2.4670  1.5140
 9657TIP3   OH250385   2.558   4.889   0.032 -0.8593  0.0550 -0.1872
 9657TIP3    H150386   2.581   4.811  -0.018  0.3456  0.4691 -0.2977
 9657TIP3    H250387   2.595   4.875   0.119  0.6830  1.1442 -0.6474
 9658TIP3   OH250388   1.641   6.099  11.854 -0.1653 -0.7213 -0.1773
 9658TIP3    H150389   1.605   6.183  11.823 -2.6135 -0.9858  1.7465
 9658TIP3    H250390   1.656   6.113  11.948  3.6735 -1.0683 -0.6699
 9659TIP3   OH250391   4.910   2.942   0.996  1.0887  0.3088  0.2718
 9659TIP3    H150392   4.896   3.010   1.061 -0.5866  1.2256 -1.0145
 9659TIP3    H250393   4.979   2.977   0.939  2.7959 -0.6382  1.7185
 9660TIP3   OH250394   1.166   3.755   2.498  0.2116 -0.4719  0.2384
 9660TIP3    H150395   1.168   3.669   2.457 -0.2031 -1.0844  1.4706
 9660TIP3    H250396   1.073   3.777   2.504  0.3698  0.7506 -1.4472
 9661TIP3   OH250397   0.023   6.298   2.631  0.2286  0.1603  0.3521
 9661TIP3    H150398   0.007   6.213   2.671 -0.9476  0.8600  1.4309
 9661TIP3    H250399   0.064   6.350   2.701  2.1355  0.0978 -0.6901
 9662TIP3   OH250400   5.527   6.065  15.823  0.8002 -0.4908  0.0364
 9662TIP3    H150401   5.445   6.030  15.858  1.0290 -1.5471 -0.4750
 9662TIP3    H250402   5.518   6.057  15.728 -0.0194  2.7983 -0.2092
 9663TIP3   OH250403   5.552   6.779  11.344  0.3252 -0.4197 -0.6447
 9663TIP3    H150404   5.642   6.746  11.352  0.1662 -0.2679  2.2994
 9663TIP3    H250405   5.501   6.703  11.317  1.1610 -0.7713 -1.2480
 9664TIP3   OH250406   4.644   2.555  16.569 -0.7562 -0.1286  0.3184
 9664TIP3    H150407   4.679   2.611  16.639 -0.3218  0.2331 -0.1878
 9664TIP3    H250408   4.613   2.616  16.503 -1.8732 -0.4570  0.5237
 9665TIP3   OH250409   1.502   0.426  11.853  0.0336  0.4684 -0.6547
 9665TIP3    H150410   1.496   0.331  11.859 -3.1805  0.6126 -0.7603
 9665TIP3    H250411   1.519   0.455  11.943  0.7124 -0.1637 -0.5759
 9666TIP3   OH250412   1.165   3.222  11.846 -0.2222 -0.3338  0.5626
 9666TIP3    H150413   1.167   3.138  11.891 -0.8995 -1.7195 -1.9355
 9666TIP3    H250414   1.076   3.229  11.812  0.7347 -0.1282 -2.0055
 9667TIP3   OH250415   2.212   4.529   4.524  0.0936 -0.1947  0.2625
 9667TIP3    H150416   2.293   4.497   4.486 -0.6587  0.7944 -2.2714
 9667TIP3    H250417   2.215   4.624   4.510 -1.1019 -0.0463  0.9179
 9668TIP3   OH250418   4.251   3.277  13.741 -0.1849 -0.7761 -0.2812
 9668TIP3    H150419   4.239   3.232  13.658  0.7203 -0.9294 -0.3317
 9668TIP3    H250420   4.200   3.225  13.804 -1.4062 -0.2907 -0.8443
 9669TIP3   OH250421   5.804   2.741  14.184 -0.2814  0.1345 -0.5451
 9669TIP3    H150422   5.835   2.831  14.188  0.8485 -0.3018  1.2369
 9669TIP3    H250423   5.716   2.744  14.223 -0.7176  0.6414 -1.5462
 9670TIP3   OH250424   2.104   2.127  13.923  0.1793  0.1346 -0.0229
 9670TIP3    H150425   2.147   2.167  13.847 -1.8608  4.0048  0.7632
 9670TIP3    H250426   2.172   2.073  13.963  2.2685  0.6764 -2.6871
 9671TIP3   OH250427   0.638   2.398  12.955  0.2884 -0.0424  0.0229
 9671TIP3    H150428   0.653   2.306  12.938  1.2819 -0.2263  1.8093
 9671TIP3    H250429   0.709   2.424  13.013 -0.7359  1.5232  0.6096
 9672TIP3   OH250430   0.338   0.879  14.026 -0.0617 -0.0730 -0.6898
 9672TIP3    H150431   0.361   0.791  14.057 -0.2463 -0.0534 -0.4961
 9672TIP3    H250432   0.243   0.876  14.013 -0.0903  0.1431 -0.5352
 9673TIP3   OH250433   6.595   6.647  13.595  0.0841 -0.2607  0.1991
 9673TIP3    H150434   6.538   6.573  13.575  0.5354 -1.0138  1.6962
 9673TIP3    H250435   6.549   6.696  13.663 -0.3425  1.0041 -0.9749
 9674TIP3   OH250436   4.435   1.039   1.934  0.5260  0.1983  0.2813
 9674TIP3    H150437   4.346   1.062   1.961  0.0309 -1.5026  0.1817
 9674TIP3    H250438   4.469   1.118   1.894 -0.5029  1.2543  1.4568
 9675TIP3   OH250439   6.564   2.090   6.007  0.7140  0.6261  0.2262
 9675TIP3    H150440   6.552   2.010   6.057 -0.6677  0.1205 -0.8959
 9675TIP3    H250441   6.572   2.159   6.073  1.1113 -0.3169  1.1739
 9676TIP3   OH250442   1.578   3.224  16.505 -0.2321 -0.3955  0.0484
 9676TIP3    H150443   1.603   3.315  16.521  1.2988 -0.5281 -1.3950
 9676TIP3    H250444   1.485   3.228  16.483 -0.5390  0.6313  1.4802
 9677TIP3   OH250445   0.753   5.634  14.112 -0.3882 -0.2833  0.3197
 9677TIP3    H150446   0.700   5.645  14.191 -1.7804  0.0672 -0.6457
 9677TIP3    H250447   0.778   5.722  14.087  0.7768 -0.4575  0.8403
 9678TIP3   OH250448   4.130   1.098   3.369  0.1059  0.1661  0.3455
 9678TIP3    H150449   4.209   1.097   3.315  0.0343 -1.2815  0.2558
 9678TIP3    H250450   4.110   1.191   3.380  0.7259  0.5126 -1.2398
 9679TIP3   OH250451   1.640   4.600   1.131 -0.0399  0.3256 -0.0478
 9679TIP3    H150452   1.554   4.611   1.170  0.2142 -0.6422  0.8312
 9679TIP3    H250453   1.695   4.665   1.174  0.5062 -1.4749  2.1167
 9680TIP3   OH250454   1.019   4.378   1.294 -0.1325  0.2235  0.1200
 9680TIP3    H150455   1.030   4.471   1.278 -1.9523  0.0873 -2.1911
 9680TIP3    H250456   0.926   4.361   1.276  0.3962 -2.2121 -0.5337
 9681TIP3   OH250457   0.730   1.304   1.980  0.2424 -0.2794 -0.3064
 9681TIP3    H150458   0.710   1.298   1.886  2.2058 -1.6356 -0.6757
 9681TIP3    H250459   0.658   1.355   2.017 -0.7188  0.0095 -2.5035
 9682TIP3   OH250460   0.700   5.381  15.003 -0.1964  0.4404  0.1736
 9682TIP3    H150461   0.648   5.316  15.051 -1.8779  1.3420 -0.4089
 9682TIP3    H250462   0.648   5.400  14.925  2.3728 -0.7876 -1.8966
 9683TIP3   OH250463   0.926   0.622  16.460  0.1797 -0.1258  0.3857
 9683TIP3    H150464   0.892   0.536  16.435  0.4813 -0.2689  0.4718
 9683TIP3    H250465   1.007   0.604  16.506  0.0194  0.1837  0.7920
 9684TIP3   OH250466   4.307   3.505   2.654 -0.2910  0.2623  0.0620
 9684TIP3    H150467   4.394   3.478   2.626 -1.1446 -1.9794 -0.5463
 9684TIP3    H250468   4.315   3.513   2.749  0.6341  0.3607 -0.0124
 9685TIP3   OH250469   0.431   1.387   4.954  0.1136 -0.3786 -0.2444
 9685TIP3    H150470   0.342   1.354   4.968 -0.6384  1.3447 -0.8513
 9685TIP3    H250471   0.450   1.439   5.032 -1.0304  2.6844 -1.9678
 9686TIP3   OH250472   0.811   1.302  10.782  0.0138 -0.4311  0.0201
 9686TIP3    H150473   0.845   1.227  10.734  0.2402 -1.0890  1.1685
 9686TIP3    H250474   0.717   1.302  10.766 -0.0124 -1.0864  0.1781
 9687TIP3   OH250475   4.067   3.702   0.056  0.3781  0.3681 -0.2186
 9687TIP3    H150476   4.129   3.717   0.128  0.4577  0.3186 -0.2772
 9687TIP3    H250477   4.106   3.631   0.006 -1.3554 -1.9458  1.6286
 9688TIP3   OH250478   5.603   4.313  12.171 -0.7723 -0.2866 -0.2177
 9688TIP3    H150479   5.561   4.348  12.093  0.8859  2.9423  0.2418
 9688TIP3    H250480   5.581   4.219  12.171 -0.3928 -0.4879 -4.8112
 9689TIP3   OH250481   4.508   5.767   0.989 -0.6814  0.2523 -0.0176
 9689TIP3    H150482   4.565   5.769   0.912 -1.3560 -0.1334 -0.5352
 9689TIP3    H250483   4.467   5.680   0.986 -2.0924  0.9181 -0.2363
 9690TIP3   OH250484   3.498   0.355   3.634  0.0198  0.4497 -0.3922
 9690TIP3    H150485   3.568   0.354   3.699 -0.6709 -1.0517  0.3579
 9690TIP3    H250486   3.440   0.425   3.662  1.7165  2.4060 -1.5988
 9691TIP3   OH250487   5.532   6.230   6.059  0.4208 -0.1355 -0.1526
 9691TIP3    H150488   5.481   6.151   6.038  0.3262 -1.1861  3.6759
 9691TIP3    H250489   5.468   6.291   6.094  1.1187  0.1707  0.5878
 9692TIP3   OH250490   1.210   6.141  14.669 -0.3486 -0.2874  0.2126
 9692TIP3    H150491   1.284   6.080  14.677  0.2104  0.5463  1.4792
 9692TIP3    H250492   1.167   6.114  14.588  1.7558 -0.3316 -0.9414
 9693TIP3   OH250493   6.476   0.274  13.451  0.1722  0.8234  0.3996
 9693TIP3    H150494   6.460   0.304  13.540 -1.4528 -0.9951  0.7744
 9693TIP3    H250495   6.388   0.260  13.414  0.8289 -0.4873 -0.7365
 9694TIP3   OH250496   4.647   2.455  12.089  1.2214 -0.3465 -0.3465
 9694TIP3    H150497   4.647   2.549  12.069  1.7570  0.0205  1.3083
 9694TIP3    H250498   4.589   2.447  12.165  1.8718 -1.2279  0.0700
 9695TIP3   OH250499   2.083   0.502  15.906  0.4811  0.2409 -0.3501
 9695TIP3    H150500   2.060   0.545  15.823  2.3189  0.4206 -0.7942
 9695TIP3    H250501   2.176   0.520  15.917  0.8164 -1.9072  0.5051
 9696TIP3   OH250502   5.367   3.437   5.446 -0.2861 -0.3077 -0.5187
 9696TIP3    H150503   5.462   3.447   5.449 -0.1117 -2.0489  0.4258
 9696TIP3    H250504   5.336   3.516   5.402  1.5290  0.6772 -0.0881
 9697TIP3   OH250505   6.446   3.238   0.875  0.6142  0.7119  0.0221
 9697TIP3    H150506   6.479   3.295   0.805  1.2956  0.0745 -0.1871
 9697TIP3    H250507   6.408   3.164   0.828 -0.5306  1.1235  0.2845
 9698TIP3   OH250508   4.342   0.048   6.389 -0.0762 -0.4250 -0.3251
 9698TIP3    H150509   4.405  -0.023   6.405  1.6640  0.6584 -2.1666
 9698TIP3    H250510   4.266   0.004   6.350  0.0353 -1.5786  0.7258
 9699TIP3   OH250511   5.266   2.176   4.648  0.1067 -0.3644  0.5345
 9699TIP3    H150512   5.316   2.131   4.579 -0.4171 -2.5845  1.5548
 9699TIP3    H250513   5.316   2.159   4.728 -0.2091  0.7334  0.9679
 9700TIP3   OH250514   1.403   5.172   6.202  0.6191 -0.3101  0.1786
 9700TIP3    H150515   1.331   5.110   6.196  0.6126 -0.2395 -0.5269
 9700TIP3    H250516   1.478   5.119   6.228  0.4088 -0.4553  0.4881
 9701TIP3   OH250517   3.424   6.292   5.707  0.0908 -0.1467 -0.6922
 9701TIP3    H150518   3.331   6.289   5.731  0.4400 -0.6115  0.5962
 9701TIP3    H250519   3.455   6.375   5.743  0.5421 -0.6989  0.1845
 9702TIP3   OH250520   4.759   3.923  15.895  0.0019 -0.1135 -0.4404
 9702TIP3    H150521   4.790   3.911  15.805  1.5244  0.5059 -0.0197
 9702TIP3    H250522   4.750   4.018  15.903  1.0267 -0.0779  0.4172
 9703TIP3   OH250523   5.194   4.581  11.680 -0.2680 -0.1439 -0.2032
 9703TIP3    H150524   5.150   4.501  11.710 -1.8359  1.3868  1.7509
 9703TIP3    H250525   5.123   4.642  11.664  0.9453  1.0113 -1.2409
 9704TIP3   OH250526   5.304   0.982  15.287 -0.2393  0.1119  0.8196
 9704TIP3    H150527   5.249   0.920  15.240 -0.5691 -1.3683  3.0777
 9704TIP3    H250528   5.266   1.067  15.268  0.6086 -0.2358 -2.8638
 9705TIP3   OH250529   0.656   4.694  14.089  0.1395  0.2643  0.0584
 9705TIP3    H150530   0.578   4.749  14.083 -0.6867 -0.7231  1.5988
 9705TIP3    H250531   0.633   4.613  14.045 -0.1735 -0.5354  1.6647
 9706TIP3   OH250532   4.739   5.360  15.831  0.2260  0.5382 -0.1307
 9706TIP3    H150533   4.785   5.324  15.756  0.1932 -0.7516  0.4515
 9706TIP3    H250534   4.805   5.412  15.878  0.8592 -0.5861  0.2300
 9707TIP3   OH250535   0.337   1.642   3.918 -0.1004 -0.0106  0.0894
 9707TIP3    H150536   0.409   1.661   3.977 -0.2414 -0.1914  0.3208
 9707TIP3    H250537   0.377   1.641   3.831 -0.0840  1.2759  0.0812
 9708TIP3   OH250538   4.515   4.146  16.637 -0.7038 -0.0178  0.5373
 9708TIP3    H150539   4.603   4.182  16.648 -0.2855 -0.2041 -2.0671
 9708TIP3    H250540   4.467   4.212  16.587 -0.8752 -1.6088 -1.4766
 9709TIP3   OH250541   1.212   4.457   5.345 -0.2614 -0.6691 -0.2845
 9709TIP3    H150542   1.251   4.425   5.263  0.0453  1.1298 -0.8714
 9709TIP3    H250543   1.277   4.517   5.380 -2.2317  1.9375 -0.9818
 9710TIP3   OH250544   3.900   3.436   4.271 -0.6972 -0.4698 -0.4365
 9710TIP3    H150545   3.805   3.429   4.279 -0.8451  1.1157 -0.6899
 9710TIP3    H250546   3.933   3.401   4.353 -1.5579  0.1790  0.1997
 9711TIP3   OH250547   3.915   1.049   3.581 -0.2915  0.3007  0.2424
 9711TIP3    H150548   3.971   1.080   3.509 -0.6613 -3.1870 -1.6398
 9711TIP3    H250549   3.850   1.118   3.592 -0.2611  0.8907 -2.8364
 9712TIP3   OH250550   0.072   0.682  12.349 -0.8382  0.4246  0.0368
 9712TIP3    H150551   0.017   0.745  12.303  1.8894  1.3527 -2.0701
 9712TIP3    H250552   0.070   0.604  12.293  1.7614  1.2541 -1.3235
 9713TIP3   OH250553   5.248   2.309  11.170 -0.3966 -0.1231  0.7105
 9713TIP3    H150554   5.292   2.323  11.085  0.5565  1.3380  1.4213
 9713TIP3    H250555   5.319   2.280  11.228 -1.5284 -3.8117  0.3835
 9714TIP3   OH250556   2.261   2.234  12.641  0.2136 -0.0032  0.0535
 9714TIP3    H150557   2.235   2.195  12.725 -0.1937 -1.2710 -0.6517
 9714TIP3    H250558   2.178   2.251  12.596  0.5010 -2.0028 -1.2835
 9715TIP3   OH250559   5.769   6.473  12.242 -0.3467 -0.3618 -0.1792
 9715TIP3    H150560   5.848   6.461  12.189  0.3613 -0.0148  0.7828
 9715TIP3    H250561   5.717   6.537  12.194  0.5029  0.2943 -0.2305
 9716TIP3   OH250562   5.752   1.781  16.759 -0.6377  0.0219  0.3061
 9716TIP3    H150563   5.835   1.734  16.749  0.4334  1.6065  1.4109
 9716TIP3    H250564   5.775   1.873  16.746 -2.0348  0.5737  1.5919
 9717TIP3   OH250565   0.505   0.092   1.654  0.0086 -0.1977  0.2269
 9717TIP3    H150566   0.580   0.090   1.713 -0.8920  0.2101  1.4067
 9717TIP3    H250567   0.434   0.131   1.706 -1.4096 -1.8461 -0.3831
 9718TIP3   OH250568   2.362   2.582  15.714 -0.4817 -0.6604 -0.0626
 9718TIP3    H150569   2.292   2.632  15.673 -1.8296 -0.4019  2.4261
 9718TIP3    H250570   2.398   2.642  15.780  0.7428 -1.5002  0.0513
 9719TIP3   OH250571   3.541   0.627   0.897 -0.0180 -0.2081 -0.4446
 9719TIP3    H150572   3.482   0.685   0.849 -0.6855 -1.9380 -1.7788
 9719TIP3    H250573   3.540   0.546   0.847  1.2334 -1.2344  1.1529
 9720TIP3   OH250574   4.455   0.086  16.988  0.3434 -0.2380 -0.1813
 9720TIP3    H150575   4.498   0.039  16.916 -0.0993 -0.8288 -0.0684
 9720TIP3    H250576   4.491   0.174  16.984  1.3687 -0.6586 -0.2499
 9721TIP3   OH250577   2.668   1.834  13.446  0.0772 -0.1668 -0.3891
 9721TIP3    H150578   2.739   1.800  13.500 -0.1827 -1.7307 -1.0247
 9721TIP3    H250579   2.652   1.922  13.481  3.6985  1.0275 -1.5734
 9722TIP3   OH250580   2.837   5.855  12.018  0.1960 -0.4498  0.2255
 9722TIP3    H150581   2.915   5.803  12.038  0.0732 -1.0741 -0.8205
 9722TIP3    H250582   2.870   5.939  11.988  0.4230 -0.2388  1.0528
 9723TIP3   OH250583   5.726   2.756  10.697  0.0311  0.5114 -0.4675
 9723TIP3    H150584   5.655   2.820  10.695  0.1495  0.6021 -2.2117
 9723TIP3    H250585   5.684   2.673  10.677  0.1562  0.3124  0.0941
 9724TIP3   OH250586   4.942   6.352  15.870  0.5833  0.3006 -0.0642
 9724TIP3    H150587   5.017   6.384  15.819 -0.5934  1.6569 -0.9931
 9724TIP3    H250588   4.929   6.262  15.839  1.0285  0.4946 -0.8265
 9725TIP3   OH250589   5.967   0.198   4.989 -0.5629 -0.0173  0.1765
 9725TIP3    H150590   6.056   0.185   4.956 -0.6073 -0.8996  0.3861
 9725TIP3    H250591   5.948   0.117   5.037 -1.3983  0.2602  0.3102
 9726TIP3   OH250592   2.157   4.087  13.220 -0.3680  0.0032  0.4297
 9726TIP3    H150593   2.244   4.054  13.239 -0.0883 -0.6647 -1.8800
 9726TIP3    H250594   2.105   4.010  13.201 -0.8008  0.5690 -0.7431
 9727TIP3   OH250595   1.570   6.703  13.234  0.5309  0.3395 -0.4642
 9727TIP3    H150596   1.607   6.698  13.146  0.3623 -0.8999 -0.4793
 9727TIP3    H250597   1.646   6.713  13.291  0.7393 -0.1034 -0.6587
 9728TIP3   OH250598   1.514   1.439  13.313  0.4092  0.0008  0.6609
 9728TIP3    H150599   1.504   1.391  13.395  1.4518 -2.4772 -0.6014
 9728TIP3    H250600   1.427   1.437  13.272  0.0741  0.5671  1.3500
 9729TIP3   OH250601   5.948   1.933   1.143  0.3352  0.2595 -0.1765
 9729TIP3    H150602   5.882   1.929   1.074 -2.2763  2.2995  2.0429
 9729TIP3    H250603   5.995   2.015   1.126 -1.0688  1.3548  1.0225
 9730TIP3   OH250604   2.439   5.908   3.091  0.6337 -0.3690 -0.3363
 9730TIP3    H150605   2.436   5.882   2.999  0.8450  2.1087 -1.0832
 9730TIP3    H250606   2.527   5.944   3.103  0.8222 -1.2550  1.0046
 9731TIP3   OH250607   1.463   5.507   4.397  0.1747 -0.0234 -0.3248
 9731TIP3    H150608   1.524   5.464   4.337  1.2293 -0.0034  0.7115
 9731TIP3    H250609   1.475   5.460   4.480 -0.0974  0.9774  0.2873
 9732TIP3   OH250610   5.639   5.352  16.831  0.1158 -0.0681  0.3806
 9732TIP3    H150611   5.560   5.396  16.800  0.0274  1.3691  2.5721
 9732TIP3    H250612   5.708   5.418  16.820  0.8776 -1.0291 -0.7352
 9733TIP3   OH250613   4.016   6.772  14.528  0.1563  0.0626  0.5184
 9733TIP3    H150614   3.972   6.857  14.540  0.0337 -0.6335  6.1775
 9733TIP3    H250615   3.947   6.715  14.493 -1.2629  1.0288  1.6519
 9734TIP3   OH250616   0.261   1.341   3.183  0.0138 -0.5419 -0.0187
 9734TIP3    H150617   0.344   1.323   3.140  0.2250  1.2044 -0.3852
 9734TIP3    H250618   0.243   1.263   3.236  0.9157 -1.7216 -1.4293
 9735TIP3   OH250619   3.440   2.056  14.329 -0.3949 -0.0003 -0.0266
 9735TIP3    H150620   3.502   2.020  14.265 -1.5652 -1.8803 -0.1304
 9735TIP3    H250621   3.441   2.151  14.313  1.4681 -0.1490 -0.8921
 9736TIP3   OH250622   4.761   0.308   3.060 -0.0801  0.3633  0.0786
 9736TIP3    H150623   4.845   0.276   3.028  0.2674  0.4524  0.8928
 9736TIP3    H250624   4.763   0.291   3.154 -1.1146  0.0569  0.0498
 9737TIP3   OH250625   2.461   0.964   0.647 -0.4500 -0.2062 -0.4948
 9737TIP3    H150626   2.549   0.939   0.617 -0.2100  0.8171 -0.6618
 9737TIP3    H250627   2.447   1.052   0.611 -0.7944  0.4082  1.0823
 9738TIP3   OH250628   4.264   6.314  10.751  0.2080 -0.2524  0.0928
 9738TIP3    H150629   4.259   6.318  10.656 -1.0372 -1.2219  0.1005
 9738TIP3    H250630   4.297   6.226  10.770  1.1043  0.1749  0.5443
 9739TIP3   OH250631   5.940   5.730  17.157  0.3728  0.5540 -0.6156
 9739TIP3    H150632   5.870   5.666  17.170  3.0485 -2.7750 -1.8233
 9739TIP3    H250633   5.902   5.795  17.098 -1.4713 -1.6755 -1.9877
 9740TIP3   OH250634   0.848   4.827  15.784 -0.4560 -0.3437  0.0768
 9740TIP3    H150635   0.906   4.822  15.708 -0.0249 -0.1046  0.3825
 9740TIP3    H250636   0.907   4.839  15.858 -0.6427 -3.5470  0.8323
 9741TIP3   OH250637   1.120   3.313  14.408 -0.4134  0.4621  0.1818
 9741TIP3    H150638   1.185   3.250  14.439 -0.6739  0.8809  1.5880
 9741TIP3    H250639   1.051   3.312  14.474 -0.9794  1.3475 -0.3839
 9742TIP3   OH250640   1.760   4.991   0.898 -0.1549  0.1868 -0.2433
 9742TIP3    H150641   1.843   4.982   0.946 -0.7889 -0.0005  0.8463
 9742TIP3    H250642   1.773   4.940   0.818  0.4126 -0.7294  0.4166
 9743TIP3   OH250643   3.247   5.339  12.219  0.2147  0.2031  0.2875
 9743TIP3    H150644   3.326   5.393  12.217  0.9601 -0.8847  0.0785
 9743TIP3    H250645   3.180   5.393  12.176  1.0290  0.8387 -0.1931
 9744TIP3   OH250646   4.678   1.914   5.771 -0.2697  0.6328 -0.4414
 9744TIP3    H150647   4.645   1.933   5.683  1.2093 -0.8073 -1.3411
 9744TIP3    H250648   4.773   1.926   5.764  0.3259 -3.2496 -0.1127
 9745TIP3   OH250649   1.660   4.306   4.235  0.3277 -0.0291  0.7270
 9745TIP3    H150650   1.618   4.378   4.282  1.1783  0.6223  0.5132
 9745TIP3    H250651   1.670   4.237   4.301  0.3300  0.3894  1.1668
 9746TIP3   OH250652   0.742   5.486  14.502 -0.3227 -0.4593  0.1716
 9746TIP3    H150653   0.797   5.447  14.570  0.1793 -0.5725 -0.2981
 9746TIP3    H250654   0.758   5.580  14.509  0.6461 -0.5667 -0.5820
 9747TIP3   OH250655   5.646   2.500  12.762 -0.2039  0.2210 -0.0177
 9747TIP3    H150656   5.612   2.585  12.788  0.9939  0.1445  1.8953
 9747TIP3    H250657   5.571   2.441  12.766  0.0178  0.1017  3.8657
 9748TIP3   OH250658   4.912   4.099   5.100 -0.2215  0.4465  0.5051
 9748TIP3    H150659   4.903   4.113   5.006 -1.3528  2.2937  0.8746
 9748TIP3    H250660   4.852   4.027   5.120  0.3124 -0.2128 -0.2355
 9749TIP3   OH250661   1.219   2.443  12.247  0.4796  0.1843  0.6952
 9749TIP3    H150662   1.231   2.356  12.286  4.5966 -0.8771 -2.5681
 9749TIP3    H250663   1.155   2.429  12.178  0.9017 -0.2119  0.3778
 9750TIP3   OH250664   3.501   2.962   4.638 -0.1105  0.1244  0.4731
 9750TIP3    H150665   3.449   2.977   4.716 -0.3467  0.0823  0.3223
 9750TIP3    H250666   3.447   2.994   4.566  0.0126 -0.0424  0.3047
 9751TIP3   OH250667   3.110   3.302   4.230 -0.0647  0.0714  0.3140
 9751TIP3    H150668   3.099   3.212   4.197  0.8713 -0.2147  0.7621
 9751TIP3    H250669   3.021   3.331   4.250 -0.4795 -0.3787 -0.8133
 9752TIP3   OH250670   3.217   3.154   1.076  0.5211  0.0756  0.1675
 9752TIP3    H150671   3.252   3.077   1.120  0.2876 -0.9777 -1.4053
 9752TIP3    H250672   3.122   3.144   1.082  0.4696 -0.7336 -1.6030
 9753TIP3   OH250673   0.173   0.807  14.935 -0.4401 -0.1939 -0.5470
 9753TIP3    H150674   0.203   0.752  14.863 -0.2693  1.3481 -1.6683
 9753TIP3    H250675   0.125   0.879  14.893  1.0970  1.6353  0.7341
 9754TIP3   OH250676   4.548   0.830  14.422 -0.0254 -0.2063  0.2250
 9754TIP3    H150677   4.625   0.887  14.424 -0.2878  0.1848 -0.5651
 9754TIP3    H250678   4.545   0.797  14.333 -0.7736 -0.2208  0.2539
 9755TIP3   OH250679   2.403   6.357   3.408  0.3808  0.0353  0.5697
 9755TIP3    H150680   2.321   6.377   3.452 -0.2509 -1.1554 -0.0408
 9755TIP3    H250681   2.457   6.313   3.474  0.3406  0.3660  0.8226
 9756TIP3   OH250682   0.256   5.586   5.372 -0.0551  0.1807  0.2273
 9756TIP3    H150683   0.227   5.558   5.459 -2.6588 -0.5975 -0.8326
 9756TIP3    H250684   0.330   5.529   5.353  0.7287  0.5545  2.0360
 9757TIP3   OH250685   3.628   1.176  17.222 -0.5893  0.4430  0.3486
 9757TIP3    H150686   3.652   1.246  17.161  0.0680 -0.4762 -0.4876
 9757TIP3    H250687   3.545   1.142  17.189  0.2302 -0.6803 -0.6281
 9758TIP3   OH250688   6.052   4.748  15.679 -0.1590  0.1794  0.1207
 9758TIP3    H150689   5.994   4.735  15.753 -1.1063  0.9286 -0.4842
 9758TIP3    H250690   5.999   4.793  15.613  1.0283  0.6738 -0.5298
 9759TIP3   OH250691   1.894   2.593  16.910  0.0702 -0.2589  0.2399
 9759TIP3    H150692   1.824   2.651  16.939 -0.3658 -0.9526  0.5807
 9759TIP3    H250693   1.850   2.526  16.858  0.7428  0.4724 -1.2966
 9760TIP3   OH250694   4.898   2.197   2.435 -0.1384 -0.9935 -0.6707
 9760TIP3    H150695   4.946   2.210   2.516 -1.5749  1.7466 -0.2040
 9760TIP3    H250696   4.939   2.257   2.372 -1.6946 -0.0043 -0.7747
 9761TIP3   OH250697   0.852   4.961  15.464 -0.5652 -0.6426  0.3460
 9761TIP3    H150698   0.843   5.007  15.381 -1.8067 -1.1536  0.2019
 9761TIP3    H250699   0.864   4.869  15.440  0.3987 -0.6204  0.6937
 9762TIP3   OH250700   2.061   5.517  13.065  0.9443  0.5352 -0.0410
 9762TIP3    H150701   2.089   5.455  13.132 -0.4872 -0.2952 -0.2006
 9762TIP3    H250702   2.089   5.603  13.098  2.1836 -0.0921  0.5748
 9763TIP3   OH250703   6.427   4.545   3.231  0.1301 -0.7552  0.1444
 9763TIP3    H150704   6.349   4.528   3.178  0.6028  0.5329 -0.9949
 9763TIP3    H250705   6.436   4.640   3.230  1.1835 -0.8383  1.0501
 9764TIP3   OH250706   1.294   1.273   3.608 -0.1154 -0.1213  0.3081
 9764TIP3    H150707   1.203   1.268   3.579 -0.1242 -0.1866  0.3466
 9764TIP3    H250708   1.346   1.268   3.528 -0.2216  3.0555 -0.0290
 9765TIP3   OH250709   3.234   1.974   3.176  0.5150  0.0592  0.8068
 9765TIP3    H150710   3.150   1.934   3.155  1.2646 -1.6450  0.9396
 9765TIP3    H250711   3.267   2.007   3.092 -0.2293  0.6470  0.7421
 9766TIP3   OH250712   4.745   3.109  10.111  0.0915  0.6295 -0.1804
 9766TIP3    H150713   4.761   3.019  10.140 -0.6765  0.5156 -0.0926
 9766TIP3    H250714   4.816   3.159  10.150 -1.1963  0.5540  2.3727
 9767TIP3   OH250715   2.162   6.021  11.974  0.0154 -0.7171 -0.4251
 9767TIP3    H150716   2.207   5.943  11.944  3.4036  0.8956  0.2749
 9767TIP3    H250717   2.167   6.082  11.900 -0.8768 -0.4364 -0.2675
 9768TIP3   OH250718   3.090   3.454  16.894  0.2604 -0.4512  0.1380
 9768TIP3    H150719   3.153   3.387  16.867  0.8068 -0.5960  1.7231
 9768TIP3    H250720   3.026   3.407  16.948  0.8733  0.3721  1.5916
 9769TIP3   OH250721   2.540   2.153  12.737 -0.0739  0.7617  0.0377
 9769TIP3    H150722   2.471   2.175  12.674  1.8504  2.1385 -1.6837
 9769TIP3    H250723   2.599   2.095  12.688  0.0769 -0.3040  1.4433
 9770TIP3   OH250724   5.948   1.381  15.570 -0.5054 -0.2536 -0.2028
 9770TIP3    H150725   5.945   1.301  15.516  0.5295  0.2101 -0.9724
 9770TIP3    H250726   5.857   1.410  15.574 -0.7440 -0.8778 -0.8410
 9771TIP3   OH250727   5.928   5.105  10.954 -0.5403 -0.5825 -0.1650
 9771TIP3    H150728   5.944   5.196  10.929  3.2003 -0.8529  1.0654
 9771TIP3    H250729   5.957   5.053  10.879 -1.3251 -0.8347 -0.3001
 9772TIP3   OH250730   1.548   6.286  14.673  0.4169 -0.1679  0.0800
 9772TIP3    H150731   1.531   6.343  14.597 -0.6485 -1.5938 -0.7664
 9772TIP3    H250732   1.535   6.197  14.640  1.1997 -0.8766  1.6255
 9773TIP3   OH250733   0.686   0.248  13.838 -0.2700 -0.2038  0.0552
 9773TIP3    H150734   0.658   0.259  13.929 -2.0128  1.0053 -0.5990
 9773TIP3    H250735   0.731   0.329  13.816  0.7971 -0.7921  0.0646
 9774TIP3   OH250736   4.690   6.664  13.033 -0.8900 -0.3824  0.1836
 9774TIP3    H150737   4.701   6.681  13.127  1.3224 -0.9808  0.0624
 9774TIP3    H250738   4.740   6.733  12.990 -1.8462 -0.1526 -0.5713
 9775TIP3   OH250739   3.927   3.117  16.386 -0.3663  0.0733 -0.3058
 9775TIP3    H150740   3.892   3.193  16.432 -0.4141 -0.6502  0.8587
 9775TIP3    H250741   3.967   3.063  16.454  1.3110 -0.0570 -1.3593
 9776TIP3   OH250742   1.564   6.714   5.393  0.1377  0.5872 -0.1084
 9776TIP3    H150743   1.653   6.748   5.401  0.0045  0.5243  1.8183
 9776TIP3    H250744   1.528   6.719   5.481 -1.6620  0.2846 -0.7953
 9777TIP3   OH250745   2.122   0.111   1.385 -0.1663  0.0556  0.5503
 9777TIP3    H150746   2.045   0.122   1.330 -1.2761  1.4557  2.3389
 9777TIP3    H250747   2.123   0.019   1.409 -0.4060 -0.2828 -0.7220
 9778TIP3   OH250748   4.595   6.035   2.396  0.0110  0.6994 -0.0354
 9778TIP3    H150749   4.588   6.019   2.490  1.8610 -0.0117 -0.0026
 9778TIP3    H250750   4.617   5.949   2.359  1.4651  1.4236 -0.8703
 9779TIP3   OH250751   5.860   5.700  11.367  0.2211 -0.0221 -0.3213
 9779TIP3    H150752   5.888   5.614  11.399  1.8169  0.4938 -0.2866
 9779TIP3    H250753   5.861   5.691  11.272 -1.5324 -0.6281 -0.2914
 9780TIP3   OH250754   4.622   3.426  10.179 -0.6297  0.4636  0.3059
 9780TIP3    H150755   4.537   3.471  10.180 -0.7366  0.2331  1.9480
 9780TIP3    H250756   4.632   3.397  10.088 -2.5341  0.0683  0.1926
 9781TIP3   OH250757   3.605   0.229  11.853  0.3359 -0.2229 -0.2387
 9781TIP3    H150758   3.516   0.258  11.873 -0.0522 -0.5921 -1.3722
 9781TIP3    H250759   3.648   0.224  11.938 -0.1334  1.8485  0.1527
 9782TIP3   OH250760   0.679   3.880   5.375 -0.4446 -0.3548  0.0864
 9782TIP3    H150761   0.652   3.839   5.457  2.6055 -0.9172  0.8570
 9782TIP3    H250762   0.690   3.973   5.397 -1.7871 -0.0989 -0.2636
 9783TIP3   OH250763   6.576   0.610  11.006  0.1363 -0.0891  0.2060
 9783TIP3    H150764   6.609   0.615  10.917 -0.5779 -0.1245 -0.0643
 9783TIP3    H250765   6.481   0.610  10.996  0.0341  1.6538  1.0511
 9784TIP3   OH250766   5.006   6.544   3.124  0.1185  0.0603 -0.0297
 9784TIP3    H150767   5.031   6.505   3.208 -0.4331 -1.0380 -0.3600
 9784TIP3    H250768   4.911   6.530   3.119  0.2077 -0.2379 -1.0107
 9785TIP3   OH250769   3.972   0.089   1.151  0.0789  0.3503 -0.0259
 9785TIP3    H150770   3.915   0.025   1.195 -1.1952  0.3868 -1.5427
 9785TIP3    H250771   3.929   0.173   1.165  0.8888  0.6545  0.6031
 9786TIP3   OH250772   4.434   6.569  11.371 -1.2319 -0.0858 -0.0176
 9786TIP3    H150773   4.471   6.657  11.375  0.8185 -0.9574  0.7320
 9786TIP3    H250774   4.354   6.580  11.320 -0.0241  1.8699 -1.6069
 9787TIP3   OH250775   0.120   3.551   4.515 -0.1838  0.2914  0.3497
 9787TIP3    H150776   0.055   3.509   4.458  1.2440 -2.0641  0.4105
 9787TIP3    H250777   0.087   3.641   4.526 -2.8218 -0.5151 -0.5413
 9788TIP3   OH250778   4.871   5.824   2.879  0.1581 -0.2042  0.0028
 9788TIP3    H150779   4.803   5.883   2.848  0.0664  0.5461  1.5538
 9788TIP3    H250780   4.843   5.799   2.967  0.8786 -1.4869 -0.1167
 9789TIP3   OH250781   2.131   2.323   4.279  0.5737 -0.0949  0.6224
 9789TIP3    H150782   2.217   2.365   4.281  1.8429 -2.4452 -1.3965
 9789TIP3    H250783   2.135   2.256   4.347 -0.2532  0.8026  1.5782
 9790TIP3   OH250784   0.925   3.702  11.068 -0.0190  0.2213 -0.1472
 9790TIP3    H150785   0.964   3.775  11.021  0.4428 -0.1311 -0.3176
 9790TIP3    H250786   0.929   3.629  11.006  0.5331 -0.2277  0.4062
 9791TIP3   OH250787   4.727   3.848   4.631  0.0214 -0.4392  0.0223
 9791TIP3    H150788   4.807   3.837   4.683  0.2125  1.8338  0.2400
 9791TIP3    H250789   4.730   3.776   4.568  2.1296 -0.4977  0.1636
 9792TIP3   OH250790   2.555   6.172   3.271  0.2994 -0.0429  0.4285
 9792TIP3    H150791   2.522   6.257   3.300 -0.5434 -0.6060  1.1559
 9792TIP3    H250792   2.497   6.108   3.313  0.3080 -0.9450 -0.8970
 9793TIP3   OH250793   6.282   3.527   1.602 -0.0993  0.0772 -0.1423
 9793TIP3    H150794   6.273   3.516   1.507 -1.0830  1.6164 -0.2409
 9793TIP3    H250795   6.332   3.451   1.630 -2.1455 -1.8305 -1.5081
 9794TIP3   OH250796   1.300   1.443  11.184 -0.1845 -0.3302 -0.0473
 9794TIP3    H150797   1.303   1.403  11.097 -1.0487  0.1997 -0.3287
 9794TIP3    H250798   1.342   1.379  11.241  1.1935 -0.3065 -0.9936
 9795TIP3   OH250799   0.795   3.278  15.694 -0.0299 -1.1820  0.5319
 9795TIP3    H150800   0.883   3.306  15.671 -0.2365  0.0141  1.1883
 9795TIP3    H250801   0.769   3.221  15.621 -0.1102  1.3702 -1.5318
 9796TIP3   OH250802   2.374   5.761  14.037 -0.3028  0.0660  0.4745
 9796TIP3    H150803   2.341   5.793  13.953  0.0667  0.0561  0.3231
 9796TIP3    H250804   2.411   5.839  14.079  0.6205 -0.1667  0.0974
 9797TIP3   OH250805   2.351   0.563   5.534 -0.5131 -0.4702  0.1141
 9797TIP3    H150806   2.428   0.564   5.477  0.1019  2.7320  0.9346
 9797TIP3    H250807   2.381   0.521   5.615 -0.4253 -1.7674 -0.5750
 9798TIP3   OH250808   6.266   3.558   4.208  0.4082  0.3532  0.0313
 9798TIP3    H150809   6.195   3.556   4.144  0.7844 -0.7044 -0.3754
 9798TIP3    H250810   6.344   3.536   4.157  1.1939  2.5381  0.2753
 9799TIP3   OH250811   0.157   6.157  11.321 -0.6775  0.5100 -0.0120
 9799TIP3    H150812   0.173   6.088  11.257 -1.4751  0.3274 -0.0195
 9799TIP3    H250813   0.156   6.238  11.270 -0.3488  0.4662 -0.0883
 9800TIP3   OH250814   3.085   3.237  12.359  0.5165  0.5516  0.2152
 9800TIP3    H150815   3.008   3.280  12.397  0.1380  0.7662 -0.7743
 9800TIP3    H250816   3.118   3.300  12.294  1.4371  0.3935  0.5184
 9801TIP3   OH250817   3.760   4.857   1.714  0.1594 -0.0953 -0.4491
 9801TIP3    H150818   3.687   4.919   1.713  0.4050  0.1939 -0.5626
 9801TIP3    H250819   3.726   4.778   1.672  0.4294  0.6340 -2.0670
 9802TIP3   OH250820   1.341   0.116  15.989 -0.1331 -0.3225  0.5730
 9802TIP3    H150821   1.279   0.181  15.954  1.1163 -0.8962 -2.8869
 9802TIP3    H250822   1.285   0.051  16.032 -1.7796  0.2271 -0.6771
 9803TIP3   OH250823   0.526   4.769   6.298  0.4641 -0.2823 -0.3771
 9803TIP3    H150824   0.595   4.706   6.315  0.7252  0.0403 -0.2359
 9803TIP3    H250825   0.448   4.716   6.280  0.3496 -0.6453  1.1142
 9804TIP3   OH250826   5.746   5.917   2.786 -0.3305  0.2940 -0.5605
 9804TIP3    H150827   5.837   5.920   2.816  0.1597  0.8829 -2.0901
 9804TIP3    H250828   5.700   5.869   2.855  0.9003  1.0603  0.8336
 9805TIP3   OH250829   3.120   1.250  14.765 -0.2093  0.7189  0.2942
 9805TIP3    H150830   3.134   1.317  14.698  0.0841  0.3861  0.0180
 9805TIP3    H250831   3.196   1.191  14.756 -0.8247 -0.0461  0.0450
 9806TIP3   OH250832   6.429   2.325  14.548 -0.0389  0.7507  0.0234
 9806TIP3    H150833   6.406   2.236  14.575  0.0940  0.9310  0.7533
 9806TIP3    H250834   6.515   2.340  14.587  1.5655 -0.0568 -3.0131
 9807TIP3   OH250835   5.938   0.694  15.619 -0.0151  0.6051  0.4620
 9807TIP3    H150836   5.949   0.636  15.544 -1.1743 -0.1195  0.8338
 9807TIP3    H250837   5.916   0.635  15.692 -3.7675  1.6968  0.2880
 9808TIP3   OH250838   4.621   6.342   4.594  0.1263 -0.0677 -0.8340
 9808TIP3    H150839   4.602   6.398   4.669 -1.2177  1.3133 -2.1695
 9808TIP3    H250840   4.697   6.382   4.552 -1.6005  1.5442 -2.5120
 9809TIP3   OH250841   1.877   3.500   6.002 -0.2477  0.1723  0.2643
 9809TIP3    H150842   1.861   3.586   6.039  1.7994  0.7331 -0.0751
 9809TIP3    H250843   1.954   3.467   6.048 -0.0608 -0.8043 -0.7035
 9810TIP3   OH250844   2.126   0.562   4.180 -0.1779 -0.4905 -0.2471
 9810TIP3    H150845   2.122   0.515   4.096 -1.4097  2.1512 -1.7320
 9810TIP3    H250846   2.075   0.508   4.241 -1.6635 -1.0406 -1.9311
 9811TIP3   OH250847   5.220   0.494  12.545 -1.1013  0.4760 -0.2442
 9811TIP3    H150848   5.172   0.576  12.558  0.5889  1.0309  2.8063
 9811TIP3    H250849   5.219   0.451  12.630  1.1280 -0.9564 -0.8955
 9812TIP3   OH250850   5.430   6.389   3.857 -0.1953  1.0701 -0.0292
 9812TIP3    H150851   5.519   6.358   3.874  0.3538  2.5401 -0.1458
 9812TIP3    H250852   5.380   6.310   3.839  0.8144  0.1232  1.2907
 9813TIP3   OH250853   5.420   1.953  14.564  0.0093 -0.4537  0.6304
 9813TIP3    H150854   5.498   1.920  14.609 -0.7830 -2.5064  0.5885
 9813TIP3    H250855   5.387   2.023  14.620  1.0765 -0.5505  1.3935
 9814TIP3   OH250856   4.380   4.526   3.388  0.0987  0.1153  0.6842
 9814TIP3    H150857   4.321   4.546   3.461 -0.2299  0.4115  0.3408
 9814TIP3    H250858   4.391   4.610   3.343  0.5193 -0.0086  0.5563
 9815TIP3   OH250859   4.897   0.558   0.029 -0.0942  0.1620 -0.3292
 9815TIP3    H150860   4.979   0.508   0.029 -1.3127 -1.8884  0.0668
 9815TIP3    H250861   4.833   0.498   0.067 -1.4975  2.2285  0.6619
 9816TIP3   OH250862   5.639   0.684   1.273 -0.2963  0.3222  0.3204
 9816TIP3    H150863   5.660   0.594   1.246 -3.2053 -0.1592 -0.4860
 9816TIP3    H250864   5.656   0.685   1.367  1.6638 -0.4655  0.0168
 9817TIP3   OH250865   3.475   0.671  12.635 -0.0538  0.0279  0.1003
 9817TIP3    H150866   3.422   0.747  12.613  1.1649  1.0159  0.5285
 9817TIP3    H250867   3.524   0.698  12.712  0.5656 -1.1113  0.1086
 9818TIP3   OH250868   0.363   1.734  15.763 -0.3570 -0.5810  0.1224
 9818TIP3    H150869   0.447   1.688  15.755 -0.2608 -0.4793  0.5280
 9818TIP3    H250870   0.342   1.729  15.856  0.9225  2.3951  0.6283
 9819TIP3   OH250871   4.358   5.411   4.628 -0.0981 -0.0544  0.2995
 9819TIP3    H150872   4.332   5.320   4.644  0.6627 -0.6630 -1.7627
 9819TIP3    H250873   4.288   5.446   4.573  1.0933 -0.2993 -1.3869
 9820TIP3   OH250874   1.671   6.054   3.706  0.2493 -0.4542 -0.3710
 9820TIP3    H150875   1.590   6.020   3.745  0.7413 -1.5515 -0.2866
 9820TIP3    H250876   1.646   6.137   3.667 -0.6280 -0.1282  0.8490
 9821TIP3   OH250877   1.012   0.897   3.402  0.0311 -0.3287  0.1413
 9821TIP3    H150878   1.101   0.924   3.425 -0.4557  1.9197 -0.4806
 9821TIP3    H250879   0.960   0.914   3.480 -0.4353  1.3665 -0.5219
 9822TIP3   OH250880   1.720   1.848  15.025 -0.9182  0.6440  0.4281
 9822TIP3    H150881   1.625   1.856  15.022 -1.0044  0.4629  2.1406
 9822TIP3    H250882   1.739   1.813  15.112  0.7525  1.1820  0.3083
 9823TIP3   OH250883   4.991   2.553  13.870  0.3653 -0.3835 -0.9220
 9823TIP3    H150884   5.012   2.515  13.785 -1.1242 -4.3198  0.3537
 9823TIP3    H250885   5.066   2.530  13.925  1.0897  1.7048 -1.0188
 9824TIP3   OH250886   1.985   6.361  13.097  0.3336 -0.5293 -0.0574
 9824TIP3    H150887   2.047   6.434  13.104  1.0292 -1.2120  1.1271
 9824TIP3    H250888   1.922   6.376  13.168 -0.7819  0.0741 -1.1597
 9825TIP3   OH250889   6.210   5.883  17.148 -0.5296 -0.2055 -0.2501
 9825TIP3    H150890   6.206   5.937  17.069 -1.0631 -0.7448 -0.5978
 9825TIP3    H250891   6.119   5.875  17.177 -0.1477  1.5145  1.4681
 9826TIP3   OH250892   1.406   5.543   3.051 -0.0563  0.2082 -0.5643
 9826TIP3    H150893   1.337   5.479   3.033 -0.3917  1.1217 -2.6505
 9826TIP3    H250894   1.486   5.501   3.020  0.2361 -0.4999  1.0716
 9827TIP3   OH250895   2.326   5.401  15.940  0.5048 -0.1322 -0.2647
 9827TIP3    H150896   2.276   5.466  15.988  0.3419 -0.3067 -0.1976
 9827TIP3    H250897   2.270   5.324  15.938  1.0756 -0.5794  0.4684
 9828TIP3   OH250898   2.122   1.255  15.294  0.1221  0.3597  0.4669
 9828TIP3    H150899   2.063   1.252  15.219 -0.5727 -0.3766  1.0421
 9828TIP3    H250900   2.093   1.330  15.346 -1.5049 -1.1090  1.7231
 9829TIP3   OH250901   5.735   5.447  10.955  0.0200  0.1209  0.3068
 9829TIP3    H150902   5.768   5.528  10.992 -1.6174  0.9630 -0.0283
 9829TIP3    H250903   5.651   5.433  10.998 -1.1765  0.2916 -1.8654
 9830TIP3   OH250904   3.504   0.656  15.097  0.0835  0.4657  0.2707
 9830TIP3    H150905   3.491   0.620  15.185 -1.3886  0.3124 -0.0050
 9830TIP3    H250906   3.598   0.675  15.093  0.1393  0.5913  1.9142
 9831TIP3   OH250907   2.345   5.144  11.888  0.2454  0.1248  0.1568
 9831TIP3    H150908   2.282   5.213  11.908  1.3803  0.9356  1.0045
 9831TIP3    H250909   2.421   5.190  11.853  1.4772 -0.5930  1.8688
 9832TIP3   OH250910   4.818   4.664  15.963 -0.2754  0.2236 -0.3245
 9832TIP3    H150911   4.801   4.717  16.041 -2.1911  1.3024 -1.4345
 9832TIP3    H250912   4.817   4.727  15.891 -0.3692 -1.0237 -1.4382
 9833TIP3   OH250913   1.316   5.285  12.995 -0.4124 -0.2948 -0.2598
 9833TIP3    H150914   1.398   5.243  13.022 -0.5321 -0.1889  0.2810
 9833TIP3    H250915   1.291   5.240  12.914 -1.2135 -2.1600  0.9811
 9834TIP3   OH250916   2.331   5.231   3.395 -0.1756 -0.0769  0.5413
 9834TIP3    H150917   2.300   5.170   3.462  1.7663 -0.2305  1.3313
 9834TIP3    H250918   2.328   5.181   3.314  2.1042 -1.5324  1.2974
 9835TIP3   OH250919   0.967   3.340  11.492 -0.9170 -0.3872 -0.6529
 9835TIP3    H150920   0.961   3.258  11.540  2.5528  0.3372  1.1351
 9835TIP3    H250921   1.025   3.322  11.418 -1.4000  0.0670 -1.1540
 9836TIP3   OH250922   2.159   1.477  16.847 -0.3441  0.3205 -0.3593
 9836TIP3    H150923   2.184   1.413  16.780 -0.9561 -1.8121  1.3790
 9836TIP3    H250924   2.240   1.523  16.869  0.8495 -2.1922  0.7180
 9837TIP3   OH250925   0.823   1.448   0.324 -0.1967 -0.3394  0.4769
 9837TIP3    H150926   0.746   1.466   0.377  0.1408 -1.0545  1.2149
 9837TIP3    H250927   0.806   1.363   0.284  0.5230 -0.8384  1.2181
 9838TIP3   OH250928   3.828   4.853  16.438  0.5712 -0.3732 -0.0121
 9838TIP3    H150929   3.761   4.869  16.371 -0.2205 -0.5863  0.7168
 9838TIP3    H250930   3.806   4.914  16.509  1.1271 -0.4744  0.2484
 9839TIP3   OH250931   2.715   1.213   0.458  0.1935  0.2806 -0.7060
 9839TIP3    H150932   2.675   1.224   0.544 -0.4856  1.0545 -1.1080
 9839TIP3    H250933   2.810   1.214   0.475  0.0764 -2.1440  0.3187
 9840TIP3   OH250934   6.087   5.132   1.892 -0.0051 -0.8048 -0.0665
 9840TIP3    H150935   6.038   5.093   1.819  0.4896 -1.0237 -0.2871
 9840TIP3    H250936   6.099   5.223   1.866 -1.9976 -0.2436  0.8884
 9841TIP3   OH250937   0.918   5.776   6.049 -0.3404 -0.1427 -0.6266
 9841TIP3    H150938   0.840   5.723   6.066  0.5910 -1.0329  0.9828
 9841TIP3    H250939   0.893   5.865   6.073 -0.6030 -0.5738  0.7148
 9842TIP3   OH250940   1.142   3.566  12.940 -0.2459 -0.7450 -0.6964
 9842TIP3    H150941   1.124   3.474  12.920 -0.9519 -0.8051  0.1948
 9842TIP3    H250942   1.125   3.612  12.858 -0.6198 -1.3142 -0.9441
 9843TIP3   OH250943   1.285   4.796   0.875  0.0697  0.1059 -0.0173
 9843TIP3    H150944   1.371   4.831   0.899  0.6120  0.7493 -2.7687
 9843TIP3    H250945   1.305   4.716   0.826 -0.9409 -0.1804  0.0241
 9844TIP3   OH250946   5.517   0.675   5.408 -0.0136  0.1544 -0.0162
 9844TIP3    H150947   5.576   0.729   5.461  0.0570  0.8843 -0.8239
 9844TIP3    H250948   5.443   0.656   5.466  0.0784  0.9155  0.3565
 9845TIP3   OH250949   3.658   2.126  13.439  0.1692  0.7467  0.0315
 9845TIP3    H150950   3.568   2.114  13.409 -0.1208  0.9435  0.8208
 9845TIP3    H250951   3.663   2.219  13.461  0.2195  0.4907  1.1098
 9846TIP3   OH250952   4.482   1.608  13.497 -0.4969  0.4378  0.1246
 9846TIP3    H150953   4.458   1.612  13.590  0.1635 -0.6157  0.3572
 9846TIP3    H250954   4.543   1.681  13.485  0.9882 -0.6104  1.0216
 9847TIP3   OH250955   1.364   1.299   5.331 -0.0139  0.1161 -0.5289
 9847TIP3    H150956   1.384   1.349   5.410 -1.7228  0.9380 -0.5709
 9847TIP3    H250957   1.433   1.322   5.269  1.1475 -0.2789  0.6145
 9848TIP3   OH250958   2.132   2.192   2.773  0.6143  0.1712 -0.3690
 9848TIP3    H150959   2.186   2.169   2.849  1.1926  1.2785 -0.4362
 9848TIP3    H250960   2.071   2.119   2.764  1.4096 -0.5988  0.3578
 9849TIP3   OH250961   0.948   1.698   2.550  0.3377 -0.0651  0.3787
 9849TIP3    H150962   1.019   1.640   2.579 -0.9129 -1.5959  0.4467
 9849TIP3    H250963   0.905   1.650   2.479 -1.8698 -0.0477  1.6590
 9850TIP3   OH250964   0.252   4.835  16.111 -0.1928 -0.2868 -0.1285
 9850TIP3    H150965   0.219   4.798  16.193  2.1500 -0.5794  0.7279
 9850TIP3    H250966   0.262   4.929  16.130  0.6229 -0.4007  0.0338
 9851TIP3   OH250967   3.469   3.905  12.362 -0.0085  0.0759 -0.3955
 9851TIP3    H150968   3.498   3.845  12.293  0.2696  1.1766 -1.2495
 9851TIP3    H250969   3.534   3.975  12.361 -1.1127  1.1124 -0.3833
 9852TIP3   OH250970   0.478   1.529   0.415 -0.2853  0.8249 -0.6109
 9852TIP3    H150971   0.413   1.459   0.405  1.2429 -0.5199 -1.5395
 9852TIP3    H250972   0.472   1.579   0.334  1.8202 -1.0642 -1.9678
 9853TIP3   OH250973   4.711   0.829   2.753  0.1127 -0.2699 -0.3164
 9853TIP3    H150974   4.752   0.823   2.667 -0.2307 -0.9742 -0.4318
 9853TIP3    H250975   4.620   0.855   2.735  0.2218  0.2558 -0.1230
 9854TIP3   OH250976   4.458   4.121  15.107  0.1926 -0.0980  0.2481
 9854TIP3    H150977   4.396   4.162  15.168 -0.8933  1.4093 -1.7758
 9854TIP3    H250978   4.410   4.046  15.071  1.6106 -2.3019  2.7712
 9855TIP3   OH250979   6.764   6.135   2.156 -0.4594  0.4657 -0.4829
 9855TIP3    H150980   6.749   6.096   2.069 -0.5152 -4.4356  1.5392
 9855TIP3    H250981   6.855   6.114   2.176 -0.6536  0.9105  0.9199
 9856TIP3   OH250982   5.856   6.182   0.035  0.7118  0.2698  0.6574
 9856TIP3    H150983   5.895   6.102   0.072  0.2210 -0.2418  0.0771
 9856TIP3    H250984   5.912   6.204  -0.039  1.0260  0.6464  1.0029
 9857TIP3   OH250985   3.144   0.257  12.024 -0.0520  0.3962  0.5245
 9857TIP3    H150986   3.237   0.260  12.049  0.5010  0.3285 -1.3997
 9857TIP3    H250987   3.122   0.164  12.025  1.1974 -0.0520 -3.2954
 9858TIP3   OH250988   3.434   6.505  13.527  0.8189 -0.0063  0.0527
 9858TIP3    H150989   3.437   6.467  13.614  1.4563  0.7962  0.3845
 9858TIP3    H250990   3.474   6.591  13.537 -1.1559  1.0052 -0.5617
 9859TIP3   OH250991   0.764   2.253  13.383  0.4374 -0.3367 -0.1628
 9859TIP3    H150992   0.760   2.308  13.461 -0.0423  0.5919 -0.8320
 9859TIP3    H250993   0.696   2.187  13.397 -0.1921  0.3033 -0.1362
 9860TIP3   OH250994   5.481   3.353   0.579  0.2140 -0.1623  0.0895
 9860TIP3    H150995   5.484   3.319   0.669 -0.9627 -1.7872 -0.4743
 9860TIP3    H250996   5.549   3.421   0.578 -0.4333  0.5937  2.4919
 9861TIP3   OH250997   5.645   0.702  11.393 -0.1631 -0.1530  0.5327
 9861TIP3    H150998   5.561   0.744  11.408  0.3277  1.3369 -0.7400
 9861TIP3    H250999   5.709   0.772  11.405  0.7987 -0.9330  0.0659
 9862TIP3   OH251000   4.369   2.327  12.195  0.1037 -0.6081  0.4645
 9862TIP3    H151001   4.389   2.406  12.146 -1.1933 -0.1180  0.6838
 9862TIP3    H251002   4.284   2.299  12.161  0.6800 -2.0555  0.2106
 9863TIP3   OH251003   2.468   1.982  13.798 -0.5159  0.0158  0.0666
 9863TIP3    H151004   2.520   2.046  13.848 -0.3570 -0.4889  0.5547
 9863TIP3    H251005   2.394   2.032  13.764 -0.7080  0.3287  0.9446
 9864TIP3   OH251006   1.250   4.441   2.027 -0.3535  0.0709 -0.7621
 9864TIP3    H151007   1.313   4.503   1.989  2.0689 -0.2992  2.4253
 9864TIP3    H251008   1.281   4.355   1.997 -0.1099 -0.0185 -0.2546
 9865TIP3   OH251009   5.276   0.297   2.633 -0.7335 -0.4754 -0.2661
 9865TIP3    H151010   5.359   0.262   2.601 -0.7137 -1.1190  0.4693
 9865TIP3    H251011   5.227   0.220   2.662 -0.7695  0.0649  1.1870
 9866TIP3   OH251012   5.767   1.237   1.653  0.7689  0.3880 -0.1386
 9866TIP3    H151013   5.690   1.247   1.710  1.5014  1.6500  0.6653
 9866TIP3    H251014   5.738   1.180   1.582 -0.7120  0.3047  0.5231
 9867TIP3   OH251015   5.945   4.315  14.050 -0.5043  0.1359 -0.4760
 9867TIP3    H151016   5.904   4.233  14.022  0.0987  0.4505 -2.3982
 9867TIP3    H251017   5.885   4.352  14.114 -1.1603 -1.4333 -0.1818
 9868TIP3   OH251018   2.559   0.399   0.130  0.2834  0.3746  0.0086
 9868TIP3    H151019   2.523   0.452   0.059 -1.7880  0.3785  1.0187
 9868TIP3    H251020   2.542   0.308   0.104 -1.8267  0.4074  1.1271
 9869TIP3   OH251021   6.778   1.910  11.248  0.0020 -1.0432  0.4691
 9869TIP3    H151022   6.856   1.858  11.228 -0.1750 -1.2246  0.2367
 9869TIP3    H251023   6.712   1.878  11.186  1.0842  2.3334 -2.5942
 9870TIP3   OH251024   0.003   5.194  11.126  0.1563 -0.3843  0.2036
 9870TIP3    H151025  -0.029   5.108  11.153  2.0488 -1.1602  0.0736
 9870TIP3    H251026   0.017   5.186  11.032 -0.0854  0.2124  0.1153
 9871TIP3   OH251027   3.775   0.499  13.655  0.0626  0.0599 -0.0150
 9871TIP3    H151028   3.758   0.524  13.746 -1.0369  0.8700 -0.4393
 9871TIP3    H251029   3.837   0.565  13.623 -0.6044  0.5690 -0.2623
 9872TIP3   OH251030   1.208   2.259   0.109 -0.4465  0.2439 -0.3256
 9872TIP3    H151031   1.273   2.279   0.177 -1.0028  0.0382  0.2675
 9872TIP3    H251032   1.254   2.275   0.026 -0.2209  1.8835  0.1138
 9873TIP3   OH251033   6.568   3.512  11.781  0.2820 -0.3248 -0.4884
 9873TIP3    H151034   6.561   3.561  11.863 -1.2863 -1.2021 -0.0801
 9873TIP3    H251035   6.647   3.458  11.793  0.4602  0.0661  0.1671
 9874TIP3   OH251036   2.940   3.190   0.993 -0.2467 -0.4022  0.7080
 9874TIP3    H151037   2.913   3.262   1.051 -0.0189 -0.5342  0.9792
 9874TIP3    H251038   2.860   3.167   0.946 -0.3811 -0.1400  0.8022
 9875TIP3   OH251039   2.597   2.711   3.289 -0.2610 -0.2999  0.0234
 9875TIP3    H151040   2.554   2.640   3.338  1.0956 -2.1414 -1.3847
 9875TIP3    H251041   2.677   2.728   3.338  0.1964 -0.8534 -0.5375
 9876TIP3   OH251042   0.267   5.734  12.550 -0.2159 -0.1349 -0.3779
 9876TIP3    H151043   0.190   5.790  12.541 -0.4730 -0.7420 -2.1686
 9876TIP3    H251044   0.308   5.762  12.632 -2.3448  0.1761  0.6260
 9877TIP3   OH251045   4.811   2.972   3.052  0.0190 -0.0660 -0.2531
 9877TIP3    H151046   4.819   2.917   3.130 -4.0314  1.1529  1.1889
 9877TIP3    H251047   4.731   2.941   3.009  0.2243  1.6431 -1.9611
 9878TIP3   OH251048   6.631   6.352  15.007 -0.5208  0.3252 -0.3911
 9878TIP3    H151049   6.699   6.311  14.954 -0.9667 -0.8257 -0.0974
 9878TIP3    H251050   6.677   6.417  15.060  0.0201  1.0546 -1.7283
 9879TIP3   OH251051   1.680   5.128   3.040 -0.0950 -0.7228  0.5312
 9879TIP3    H151052   1.733   5.057   3.076 -0.0938 -0.5888  0.7943
 9879TIP3    H251053   1.718   5.144   2.953  0.7314 -0.1697  0.9835
 9880TIP3   OH251054   5.140   3.727  13.337 -0.6990 -0.2231  0.4632
 9880TIP3    H151055   5.151   3.656  13.274 -1.4773  0.3024 -0.2783
 9880TIP3    H251056   5.203   3.793  13.310  0.9188 -1.1411  1.9154
 9881TIP3   OH251057   6.527   6.465   4.872  0.3499  0.1078 -0.1912
 9881TIP3    H151058   6.512   6.542   4.817  2.0998  0.3553 -0.3399
 9881TIP3    H251059   6.506   6.494   4.961 -0.2320  0.3750 -0.4104
 9882TIP3   OH251060   2.674   3.690  16.702 -0.1186  0.0991  0.3512
 9882TIP3    H151061   2.629   3.774  16.690  2.1782  1.1217 -1.5396
 9882TIP3    H251062   2.729   3.703  16.779 -0.8478 -0.1919  0.9333
 9883TIP3   OH251063   1.557   3.078  14.268 -0.4053 -0.1202 -0.8235
 9883TIP3    H151064   1.470   3.049  14.242  0.0661  1.3142 -4.3306
 9883TIP3    H251065   1.615   3.039  14.202  1.5852 -0.6428  1.1563
 9884TIP3   OH251066   6.003   5.235  13.354 -0.2132  0.5775  0.2103
 9884TIP3    H151067   5.991   5.267  13.444  1.6571  0.0871  0.6563
 9884TIP3    H251068   6.040   5.147  13.364 -0.9990  0.0912 -1.0448
 9885TIP3   OH251069   4.663   3.977   4.875  0.7992  0.7798 -0.5611
 9885TIP3    H151070   4.703   3.926   4.946 -1.1561 -0.2962 -0.1997
 9885TIP3    H251071   4.668   3.920   4.798 -2.2201 -0.4164  0.0533
 9886TIP3   OH251072   0.634   6.774  15.380  0.3157 -0.1940  0.0901
 9886TIP3    H151073   0.674   6.729  15.455  0.6119  2.1147  1.3340
 9886TIP3    H251074   0.639   6.709  15.309  3.3951 -1.1308  1.0566
 9887TIP3   OH251075   3.181   6.119  14.197 -0.0592  0.3116  0.1850
 9887TIP3    H151076   3.085   6.119  14.200 -0.0710 -2.3917  1.4956
 9887TIP3    H251077   3.208   6.131  14.288  0.8687  0.9226 -0.1574
 9888TIP3   OH251078   0.154   6.464  16.362  0.4924 -0.1841  0.4702
 9888TIP3    H151079   0.131   6.557  16.369  1.0622 -0.0357  0.3324
 9888TIP3    H251080   0.098   6.422  16.427 -0.2275  0.1714  0.0925
 9889TIP3   OH251081   0.634   4.816  15.103  0.0086  0.1841 -0.0151
 9889TIP3    H151082   0.601   4.728  15.084 -0.1510 -0.0260  1.2048
 9889TIP3    H251083   0.728   4.810  15.092  0.1765 -0.5839  1.7463
 9890TIP3   OH251084   0.849   6.093   1.436 -0.1480  0.2433  0.1067
 9890TIP3    H151085   0.894   6.026   1.488  0.2023  1.3273  1.2173
 9890TIP3    H251086   0.825   6.161   1.499 -2.8932 -0.0470 -0.5550
 9891TIP3   OH251087   2.433   2.889  12.316  0.3637 -0.6707 -0.3080
 9891TIP3    H151088   2.463   2.969  12.360 -1.0862 -0.5864  0.5465
 9891TIP3    H251089   2.507   2.863  12.261  1.0371  0.9779 -0.2058
 9892TIP3   OH251090   3.114   3.883   4.385 -0.1447 -0.0642  0.1495
 9892TIP3    H151091   3.182   3.947   4.362  0.0692 -0.1559  0.5122
 9892TIP3    H251092   3.121   3.816   4.318  1.4606 -1.0709  1.2776
 9893TIP3   OH251093   2.522   3.312   3.438 -0.0404 -0.1315 -0.2883
 9893TIP3    H151094   2.578   3.278   3.368  1.4482  0.9853  0.3263
 9893TIP3    H251095   2.441   3.337   3.394  0.4618 -0.4670 -1.4300
 9894TIP3   OH251096   4.507   0.609   1.208 -0.1800 -0.0807 -0.4407
 9894TIP3    H151097   4.440   0.596   1.276 -0.8678  0.0392 -1.0888
 9894TIP3    H251098   4.587   0.629   1.257 -1.1677  2.3466  0.2804
 9895TIP3   OH251099   5.136   0.467   2.954 -0.0507 -0.4006 -0.2901
 9895TIP3    H151100   5.226   0.441   2.936  0.1600 -1.1949  1.7645
 9895TIP3    H251101   5.130   0.470   3.050 -2.0515  0.1795 -0.4002
 9896TIP3   OH251102   2.120   5.715  13.585 -0.0661  0.5951 -0.1164
 9896TIP3    H151103   2.205   5.732  13.545  0.3852 -0.3335  0.4478
 9896TIP3    H251104   2.075   5.800  13.583  0.2078  0.7249 -1.9805
 9897TIP3   OH251105   5.085   6.047  12.236  0.6070  0.1478 -0.3868
 9897TIP3    H151106   5.022   5.975  12.246 -0.2548  1.1815  2.0190
 9897TIP3    H251107   5.128   6.029  12.152 -3.1269 -0.4227 -2.3056
 9898TIP3   OH251108   4.926   2.643   5.856  0.6192  0.0110  0.6086
 9898TIP3    H151109   5.008   2.595   5.869  1.5251  1.5873  0.9828
 9898TIP3    H251110   4.949   2.711   5.792 -0.7185 -0.2679 -0.1819
 9899TIP3   OH251111   2.449   0.146   0.476 -0.0175  0.0218  0.0777
 9899TIP3    H151112   2.390   0.085   0.433  0.1320  0.3997 -0.6638
 9899TIP3    H251113   2.411   0.158   0.564  0.4724 -1.8417  0.5591
 9900TIP3   OH251114   5.598   1.906   3.061 -0.0750  0.3532  0.0075
 9900TIP3    H151115   5.680   1.937   3.099 -0.3224  1.1229 -0.0842
 9900TIP3    H251116   5.625   1.845   2.993  0.3629 -2.3405  2.4596
 9901TIP3   OH251117   5.171   5.310  11.523  0.0099 -0.3052 -0.7396
 9901TIP3    H151118   5.243   5.264  11.481  0.7121 -1.3280  1.5492
 9901TIP3    H251119   5.146   5.255  11.596 -1.1587  1.4748  0.2408
 9902TIP3   OH251120   1.977   5.592   0.961 -0.1918  0.7594 -0.0249
 9902TIP3    H151121   1.888   5.606   0.991 -0.1042 -1.7408  1.4988
 9902TIP3    H251122   1.968   5.555   0.873 -0.6844 -0.0011  0.3428
 9903TIP3   OH251123   4.409   3.766   3.385 -0.2906  0.1066  0.0650
 9903TIP3    H151124   4.344   3.827   3.421  1.2741  1.3635  0.8084
 9903TIP3    H251125   4.375   3.745   3.297 -1.2853  1.3825  0.1258
 9904TIP3   OH251126   1.839   5.165  14.063  0.0626  0.1167  0.3372
 9904TIP3    H151127   1.844   5.213  14.146  0.1942 -0.3358  0.5929
 9904TIP3    H251128   1.775   5.214  14.011 -0.0407  0.3867  0.7153
 9905TIP3   OH251129   2.238   1.855  11.203  0.4358  0.3053 -0.1306
 9905TIP3    H151130   2.280   1.938  11.181  1.4986 -0.0674  0.4752
 9905TIP3    H251131   2.176   1.839  11.131 -1.0324  2.4798  0.5940
 9906TIP3   OH251132   1.691   3.173   2.461  0.4898 -0.1669 -0.3021
 9906TIP3    H151133   1.721   3.121   2.536 -0.8372  0.5712  0.7557
 9906TIP3    H251134   1.637   3.241   2.499 -1.1724 -0.4760 -2.0451
 9907TIP3   OH251135   2.110   6.636  12.559 -0.4725 -0.6861  0.6318
 9907TIP3    H151136   2.044   6.568  12.545  0.6889 -1.8520  0.6923
 9907TIP3    H251137   2.161   6.605  12.634 -0.0710  0.3601  0.7968
 9908TIP3   OH251138   3.982   3.766   0.451 -0.4923 -0.1822  0.4844
 9908TIP3    H151139   3.939   3.822   0.516  1.6131 -0.6956  2.3556
 9908TIP3    H251140   3.919   3.762   0.378 -3.1163  0.0241  2.6485
 9909TIP3   OH251141   5.615   4.770  15.793 -0.8970  0.5703 -0.0710
 9909TIP3    H151142   5.568   4.783  15.711  2.0788  0.0241 -1.9481
 9909TIP3    H251143   5.565   4.703  15.840 -3.2319  1.6768 -0.9240
 9910TIP3   OH251144   6.025   4.530   2.028 -0.0637  0.1252  0.8647
 9910TIP3    H151145   6.086   4.600   2.003  0.6303 -0.4848  0.8242
 9910TIP3    H251146   5.967   4.520   1.953  0.6798 -0.2557  0.3385
 9911TIP3   OH251147   3.337   6.412  10.652 -0.1408  0.0282 -0.3350
 9911TIP3    H151148   3.307   6.482  10.594 -0.0519 -0.0667 -0.4952
 9911TIP3    H251149   3.417   6.445  10.691  0.8381 -0.6700 -1.7231
 9912TIP3   OH251150   4.214   2.856  14.098 -0.0385 -0.0612 -0.4329
 9912TIP3    H151151   4.129   2.818  14.115 -1.9640  4.0316 -0.2422
 9912TIP3    H251152   4.256   2.861  14.184  0.0772 -1.3179 -0.4097
 9913TIP3   OH251153   5.847   1.989   4.229 -0.2307  0.3607  0.3420
 9913TIP3    H151154   5.926   1.940   4.251 -0.1315  0.6851  0.7087
 9913TIP3    H251155   5.879   2.070   4.190 -0.4058 -1.7807 -4.5582
 9914TIP3   OH251156   2.803   0.103  15.806 -0.4406  0.5794  0.9472
 9914TIP3    H151157   2.796   0.131  15.897  1.4221  4.0982  0.1245
 9914TIP3    H251158   2.898   0.098  15.790 -0.7437 -0.0366 -0.7784
 9915TIP3   OH251159   4.304   0.869   2.257 -0.1043 -0.0400  0.5961
 9915TIP3    H151160   4.385   0.853   2.305  0.2607  3.9459  1.4581
 9915TIP3    H251161   4.237   0.879   2.324 -0.6764 -0.0131  0.0299
 9916TIP3   OH251162   3.781   1.705  12.946  0.1834 -1.2196 -1.2905
 9916TIP3    H151163   3.690   1.728  12.966  0.2999 -1.5741 -0.3183
 9916TIP3    H251164   3.829   1.787  12.954  0.2402 -1.3680 -0.0002
 9917TIP3   OH251165   1.609   3.947   1.772  0.6454  0.2385 -0.2700
 9917TIP3    H151166   1.550   4.016   1.804 -0.7927 -0.9645 -0.2807
 9917TIP3    H251167   1.695   3.988   1.773  0.1962  1.2442  2.1515
 9918TIP3   OH251168   1.099   3.745  15.901 -0.5557  0.2496 -0.4606
 9918TIP3    H151169   1.030   3.737  15.968  0.5794  2.6141  1.0602
 9918TIP3    H251170   1.169   3.792  15.946  1.2664 -0.3793 -2.5997
 9919TIP3   OH251171   2.894   2.150   2.917 -0.4010 -0.4112  0.3150
 9919TIP3    H151172   2.962   2.086   2.892 -0.4970 -0.5260  0.3479
 9919TIP3    H251173   2.830   2.099   2.966 -0.3499 -0.2405  0.5661
 9920TIP3   OH251174   4.549   0.389  16.353 -0.2977  0.4395  0.2173
 9920TIP3    H151175   4.523   0.425  16.268  0.1734  0.3635  0.0416
 9920TIP3    H251176   4.642   0.407  16.360 -0.4807  1.0753  1.0432
 9921TIP3   OH251177   3.652   1.375  17.030 -0.2911  0.7030 -0.5117
 9921TIP3    H151178   3.714   1.410  16.965 -0.1898  1.0083 -0.2478
 9921TIP3    H251179   3.580   1.339  16.977  0.6022 -0.6114 -0.8645
 9922TIP3   OH251180   2.601   6.210  10.328 -0.4120 -0.3313 -0.2601
 9922TIP3    H151181   2.516   6.250  10.312  0.1736  0.0208 -2.6856
 9922TIP3    H251182   2.581   6.122  10.360 -1.6917  1.0252  2.9265
 9923TIP3   OH251183   0.869   0.748  15.663 -0.4320  0.2110 -0.1288
 9923TIP3    H151184   0.870   0.782  15.573 -0.2678 -1.2419 -0.6973
 9923TIP3    H251185   0.950   0.780  15.702 -0.4004  0.6751 -0.5684
 9924TIP3   OH251186   4.451   4.086   5.384  0.3104 -0.6550 -0.1575
 9924TIP3    H151187   4.394   4.010   5.380 -1.0178  0.1472  2.3377
 9924TIP3    H251188   4.414   4.147   5.319  0.5842 -1.5893 -1.2000
 9925TIP3   OH251189   5.868   4.504  16.104  0.6508  0.2241  0.7630
 9925TIP3    H151190   5.940   4.444  16.125  0.8863  0.7532  1.4836
 9925TIP3    H251191   5.796   4.475  16.160  0.5061  0.0961  0.5074
 9926TIP3   OH251192   1.684   2.685  14.288 -0.3818  0.2262  0.6463
 9926TIP3    H151193   1.645   2.604  14.321  0.1812 -1.0913 -1.7928
 9926TIP3    H251194   1.641   2.700  14.205  0.2668  1.8866  0.6055
 9927TIP3   OH251195   0.580   3.134  17.155  0.0730  0.0218  0.0113
 9927TIP3    H151196   0.521   3.058  17.159 -0.5395  0.5433  0.9034
 9927TIP3    H251197   0.643   3.120  17.225  0.2493  0.1071 -0.1259
 9928TIP3   OH251198   1.239   5.525  17.165 -0.1469 -0.0693  0.0386
 9928TIP3    H151199   1.143   5.518  17.166 -0.4345  3.3312  1.1156
 9928TIP3    H251200   1.261   5.534  17.072 -1.2636  3.1257  0.0324
 9929TIP3   OH251201   6.649   2.493  11.746  0.6079  0.3335  0.1792
 9929TIP3    H151202   6.602   2.437  11.809  0.0786  0.8308  0.2355
 9929TIP3    H251203   6.684   2.564  11.799  2.3172 -0.5725  0.2954
 9930TIP3   OH251204   0.469   5.253   4.140  0.4982  0.3576 -0.5950
 9930TIP3    H151205   0.431   5.284   4.222 -1.0237  1.7590 -1.7983
 9930TIP3    H251206   0.397   5.256   4.077  1.7155 -0.4257 -2.0549
 9931TIP3   OH251207   0.582   5.930  17.079 -0.1192  0.1552  0.0990
 9931TIP3    H151208   0.614   5.989  17.011 -0.5980  0.3201  0.0134
 9931TIP3    H251209   0.637   5.852  17.071 -1.4365 -0.6200 -1.7661
 9932TIP3   OH251210   1.932   5.110  12.680  0.5732  0.0214 -0.2840
 9932TIP3    H151211   1.950   5.017  12.678  0.8902  0.1004 -1.6370
 9932TIP3    H251212   2.009   5.150  12.720  0.6056 -0.2568 -0.0745
 9933TIP3   OH251213   5.968   0.663  11.884  0.2645 -0.0696  0.3800
 9933TIP3    H151214   5.926   0.731  11.832 -0.6926 -0.4324  0.6635
 9933TIP3    H251215   6.038   0.630  11.827  0.6647  1.0658  0.2060
 9934TIP3   OH251216   1.746   2.211  15.306  0.2559  0.3762 -0.0012
 9934TIP3    H151217   1.734   2.205  15.211  1.5034  1.8851 -0.2705
 9934TIP3    H251218   1.838   2.189  15.320 -0.3789 -1.7261  1.0770
 9935TIP3   OH251219   1.621   1.889   5.876 -0.1726  0.4030 -0.2554
 9935TIP3    H151220   1.694   1.933   5.833  0.2083 -0.8884 -0.9834
 9935TIP3    H251221   1.616   1.929   5.962 -0.4444  2.5007 -1.2180
 9936TIP3   OH251222   2.803   0.133   5.051  0.0542  0.7981 -0.2538
 9936TIP3    H151223   2.730   0.106   4.995 -0.6532  0.7734  0.6705
 9936TIP3    H251224   2.770   0.122   5.140  1.0039  1.3061  0.1652
 9937TIP3   OH251225   3.525   5.455  11.830 -0.5577 -0.4753  0.3630
 9937TIP3    H151226   3.579   5.501  11.766 -0.6349 -0.4070  0.3463
 9937TIP3    H251227   3.461   5.407  11.777 -1.8071  1.0574  0.4463
 9938TIP3   OH251228   0.330   0.860   2.036  0.3862 -0.3398  0.3729
 9938TIP3    H151229   0.263   0.909   2.083  1.5740 -1.5296  3.4986
 9938TIP3    H251230   0.362   0.920   1.969 -2.1355  1.0620  0.3939
 9939TIP3   OH251231   0.195   0.126  11.745 -0.4966  0.2209  0.0451
 9939TIP3    H151232   0.262   0.164  11.803 -0.9126  0.9209  0.0767
 9939TIP3    H251233   0.179   0.039  11.781  0.9694 -0.2505 -0.4320
 9940TIP3   OH251234   4.542   5.769   4.088  0.1525  0.3090 -0.3438
 9940TIP3    H151235   4.479   5.838   4.071  1.2857  1.1072 -1.4024
 9940TIP3    H251236   4.622   5.814   4.113  1.0929 -0.5575 -1.6679
 9941TIP3   OH251237   5.719   5.772   5.118  0.1167  0.3183 -0.2849
 9941TIP3    H151238   5.675   5.728   5.191  1.5048 -1.4103 -0.4407
 9941TIP3    H251239   5.673   5.855   5.108 -0.4845  0.3212  2.1664
 9942TIP3   OH251240   5.565   1.131  12.899  0.4682  0.0336 -0.2105
 9942TIP3    H151241   5.499   1.199  12.884 -0.0649 -0.8348 -1.8814
 9942TIP3    H251242   5.647   1.179  12.903  0.1875  0.7102 -2.1638
 9943TIP3   OH251243   3.473   1.484  13.430  0.2205  0.1928 -0.1776
 9943TIP3    H151244   3.489   1.532  13.349 -0.8908  1.6869  0.4588
 9943TIP3    H251245   3.490   1.549  13.499 -2.5779  0.0803  0.6622
 9944TIP3   OH251246   0.663   0.409   3.487 -0.1626  0.4289  0.6856
 9944TIP3    H151247   0.709   0.488   3.516 -1.6447  0.6302  2.5917
 9944TIP3    H251248   0.682   0.344   3.555  0.4867 -0.6744 -0.5224
 9945TIP3   OH251249   4.509   2.107   3.112  0.0796  0.4493  0.5707
 9945TIP3    H151250   4.540   2.180   3.166 -0.2408 -0.7828  2.4828
 9945TIP3    H251251   4.586   2.078   3.064  0.7836  0.5011  1.6512
 9946TIP3   OH251252   3.339   0.808   0.077 -0.4610 -0.8163  0.1344
 9946TIP3    H151253   3.403   0.750   0.119 -0.3188  0.1572  1.2937
 9946TIP3    H251254   3.258   0.792   0.124 -0.6304 -0.7155 -0.1239
 9947TIP3   OH251255   2.287   5.504  16.885  0.7310  0.2069  0.1588
 9947TIP3    H151256   2.309   5.444  16.814  2.0138  1.6912 -0.7032
 9947TIP3    H251257   2.192   5.513  16.880  0.7160 -0.4130 -0.7652
 9948TIP3   OH251258   4.520   5.928  13.006  0.2606  0.7162 -0.0969
 9948TIP3    H151259   4.519   5.884  12.921 -0.2948  2.0528 -0.7811
 9948TIP3    H251260   4.432   5.913  13.041  0.8866 -0.9475  0.8347
 9949TIP3   OH251261   1.855   5.957   3.184  0.3200  0.6863 -0.4172
 9949TIP3    H151262   1.900   5.983   3.103 -2.6296  2.1072 -1.6816
 9949TIP3    H251263   1.845   5.862   3.176  0.9376  0.6891 -1.2591
 9950TIP3   OH251264   0.764   2.454   1.252 -0.0124  0.1496  0.0972
 9950TIP3    H151265   0.814   2.417   1.179  1.5588  2.4604 -0.0197
 9950TIP3    H251266   0.817   2.435   1.329  0.6994  1.9166  0.0627
 9951TIP3   OH251267   0.232   1.955   4.131 -0.1261 -0.3058 -0.6955
 9951TIP3    H151268   0.174   2.015   4.177  1.2999  1.3805 -1.0486
 9951TIP3    H251269   0.231   1.984   4.040 -0.1629 -1.4167 -1.0640
 9952TIP3   OH251270   4.069   6.519   2.244 -0.2705 -0.2468  0.0979
 9952TIP3    H151271   4.164   6.516   2.252 -0.1646 -0.4568 -1.1064
 9952TIP3    H251272   4.047   6.446   2.186 -1.3402 -1.2696  1.7607
 9953TIP3   OH251273   3.982   3.963   4.924 -0.4612 -0.0200 -0.4394
 9953TIP3    H151274   4.073   3.970   4.895 -0.7056  0.5314 -1.0658
 9953TIP3    H251275   3.938   4.038   4.885 -1.2497 -0.4361 -0.3622
 9954TIP3   OH251276   5.615   5.937  14.472  0.4206 -0.8059 -0.1706
 9954TIP3    H151277   5.528   5.921  14.509  0.3334 -0.3832 -0.1818
 9954TIP3    H251278   5.667   5.969  14.545  0.2817 -0.0887 -0.3793
 9955TIP3   OH251279   1.454   5.859  13.253 -1.1693  0.1691  0.2159
 9955TIP3    H151280   1.543   5.837  13.225 -0.8876  0.2107  1.0746
 9955TIP3    H251281   1.463   5.944  13.297 -1.5471 -0.0686  0.7573
 9956TIP3   OH251282   5.127   4.528  15.362  0.1986 -0.1583  0.3988
 9956TIP3    H151283   5.046   4.482  15.384  0.4198 -0.2512  1.0156
 9956TIP3    H251284   5.157   4.487  15.281  0.5533 -1.3048  1.0987
 9957TIP3   OH251285   3.139   6.374   4.607  0.2789 -0.2652 -0.1269
 9957TIP3    H151286   3.184   6.313   4.548  0.6122 -1.4675  1.3560
 9957TIP3    H251287   3.053   6.386   4.568  1.0846  0.3019 -1.7869
 9958TIP3   OH251288   1.877   4.717   5.201 -0.1367  0.8792 -0.1266
 9958TIP3    H151289   1.909   4.697   5.289 -0.0103  3.2193  0.3862
 9958TIP3    H251290   1.827   4.640   5.175  1.6392 -0.7235  1.1179
 9959TIP3   OH251291   5.831   4.111  14.270  0.2133 -0.7325 -0.8443
 9959TIP3    H151292   5.857   4.050  14.200 -0.5293 -0.5272 -1.3072
 9959TIP3    H251293   5.736   4.103  14.274  0.2311 -0.5433 -0.0267
 9960TIP3   OH251294   4.122   2.227   1.726 -0.1367 -0.1571 -0.2974
 9960TIP3    H151295   4.104   2.234   1.820 -3.8306  3.4585 -1.1323
 9960TIP3    H251296   4.201   2.278   1.713 -0.9530  1.3770  0.5623
 9961TIP3   OH251297   4.692   1.858  10.797 -0.1990 -0.2515  0.0889
 9961TIP3    H151298   4.598   1.874  10.803 -0.4138 -1.0369 -0.8968
 9961TIP3    H251299   4.729   1.898  10.876 -1.2530  0.7998  0.0729
 9962TIP3   OH251300   6.503   2.294  12.742 -0.5029  0.0368  0.1262
 9962TIP3    H151301   6.445   2.317  12.815  0.9722 -1.3963  1.8008
 9962TIP3    H251302   6.443   2.275  12.669 -2.1762 -1.7650  1.9013
 9963TIP3   OH251303   5.434   0.462   3.635 -0.3754 -0.0539 -0.0126
 9963TIP3    H151304   5.440   0.379   3.682 -0.7196 -1.5390 -2.5025
 9963TIP3    H251305   5.525   0.486   3.617 -0.2598  0.3174  1.0402
 9964TIP3   OH251306   0.082   0.328  15.689  0.3576 -0.2035  0.3318
 9964TIP3    H151307   0.128   0.245  15.696 -1.8493 -1.4962 -0.0322
 9964TIP3    H251308   0.115   0.367  15.607  2.2983 -0.1204  1.1371
 9965TIP3   OH251309   4.140   1.613  12.096  0.4308 -0.5421 -0.1433
 9965TIP3    H151310   4.123   1.675  12.167  0.3761 -1.2626  0.4658
 9965TIP3    H251311   4.235   1.608  12.090  0.4668  1.0035 -1.4159
 9966TIP3   OH251312   5.618   4.613  10.471 -0.0682  0.2518  0.0920
 9966TIP3    H151313   5.547   4.643  10.528 -0.4256 -2.4565  1.1652
 9966TIP3    H251314   5.693   4.607  10.529  0.6146  1.3668 -0.6531
 9967TIP3   OH251315   4.578   2.371   2.569 -0.4614 -0.0432 -0.3437
 9967TIP3    H151316   4.629   2.330   2.639 -3.1567 -1.7890  0.6862
 9967TIP3    H251317   4.576   2.306   2.499 -0.5882  0.3425 -0.7021
 9968TIP3   OH251318   0.137   6.074  12.442  0.2143  0.3459  0.0969
 9968TIP3    H151319   0.212   6.034  12.398 -0.6330 -0.6559 -0.4618
 9968TIP3    H251320   0.091   6.000  12.482 -0.6365  0.9199  0.1872
 9969TIP3   OH251321   6.503   1.562  13.332 -0.1199  0.2394  0.1109
 9969TIP3    H151322   6.441   1.599  13.395 -0.2087 -0.8610  0.6949
 9969TIP3    H251323   6.589   1.578  13.371 -0.0498  1.5114 -0.5595
 9970TIP3   OH251324   2.859   6.664  17.001  0.2472  0.3282  0.0839
 9970TIP3    H151325   2.788   6.691  16.942 -0.2464 -1.2909 -0.1189
 9970TIP3    H251326   2.820   6.668  17.088 -0.4067 -1.3870 -0.0970
 9971TIP3   OH251327   3.338   5.301  13.740  0.4067 -0.0336 -0.6890
 9971TIP3    H151328   3.283   5.226  13.714  0.7946 -0.9896  1.2011
 9971TIP3    H251329   3.413   5.296  13.681 -1.2267  0.9459 -2.9150
 9972TIP3   OH251330   5.705   3.571  10.725  0.1202 -0.2147 -0.0294
 9972TIP3    H151331   5.738   3.635  10.664 -0.3493  0.0020 -0.0602
 9972TIP3    H251332   5.758   3.493  10.710  0.2384 -0.0498 -0.4629
 9973TIP3   OH251333   3.281   6.155   4.469 -0.1926 -0.5503 -0.2282
 9973TIP3    H151334   3.340   6.206   4.525 -1.0486 -2.2689  2.3411
 9973TIP3    H251335   3.339   6.097   4.420  0.3939 -1.4382  1.4501
 9974TIP3   OH251336   3.701   3.092  13.572  0.2039  0.2119  0.6697
 9974TIP3    H151337   3.676   3.129  13.487  1.0854 -0.6765  0.0040
 9974TIP3    H251338   3.621   3.052  13.606 -0.5184  1.8780  0.9520
 9975TIP3   OH251339   6.372   4.700  11.453 -0.8114  0.2188  0.5226
 9975TIP3    H151340   6.396   4.735  11.368 -0.3887  0.1285  0.6052
 9975TIP3    H251341   6.308   4.763  11.488 -0.1308  0.8507  0.6298
 9976TIP3   OH251342   1.195   5.098   1.970 -0.0219 -0.4831  0.0371
 9976TIP3    H151343   1.242   5.172   2.009  1.8848 -2.5392  1.8207
 9976TIP3    H251344   1.258   5.059   1.909 -0.8123 -0.9773 -0.4790
 9977TIP3   OH251345   5.150   3.533  14.815 -0.2909  0.1470 -0.2209
 9977TIP3    H151346   5.073   3.479  14.798 -0.4399  0.6299 -1.1407
 9977TIP3    H251347   5.117   3.604  14.871 -1.0513  1.6159 -2.4425
 9978TIP3   OH251348   1.288   0.361  16.773  0.2281  0.0440 -0.3307
 9978TIP3    H151349   1.370   0.409  16.777 -0.0345  0.4490  0.3122
 9978TIP3    H251350   1.264   0.346  16.865 -3.1111  4.5861 -0.2595
 9979TIP3   OH251351   2.825   6.728  11.982  0.1988  0.2339 -0.4517
 9979TIP3    H151352   2.914   6.746  12.014 -0.1821  1.5147 -0.0630
 9979TIP3    H251353   2.830   6.747  11.888  0.2862  0.5208 -0.3904
 9980TIP3   OH251354   0.684   5.790   5.386  0.2801 -0.0802 -0.1249
 9980TIP3    H151355   0.593   5.779   5.361 -0.0443 -0.8916  1.3235
 9980TIP3    H251356   0.702   5.882   5.370 -0.5592 -0.0859 -1.1541
 9981TIP3   OH251357   0.534   5.819   1.324  0.0634 -0.4305  0.1837
 9981TIP3    H151358   0.439   5.819   1.335  0.0674  1.6229  0.3994
 9981TIP3    H251359   0.568   5.818   1.414  0.2283 -0.3330  0.1214
 9982TIP3   OH251360   2.051   6.234  17.111 -0.0554 -0.2382 -0.0246
 9982TIP3    H151361   1.962   6.245  17.077  0.8862 -0.7179 -2.7878
 9982TIP3    H251362   2.042   6.170  17.182 -1.8086 -0.9025 -0.8165
 9983TIP3   OH251363   3.868   1.037   5.940  0.2408 -0.7110  0.1260
 9983TIP3    H151364   3.918   1.110   5.977  0.0382 -0.8938  0.7701
 9983TIP3    H251365   3.932   0.967   5.929  1.0467  0.4745 -3.1781
 9984TIP3   OH251366   2.218   2.603  14.203 -0.1657 -0.2948  0.4323
 9984TIP3    H151367   2.160   2.623  14.276 -1.8743  1.2621 -1.3120
 9984TIP3    H251368   2.287   2.549  14.242 -1.6544 -0.4724  2.9441
 9985TIP3   OH251369   6.209   1.204   4.057  0.1292  0.0306 -0.4445
 9985TIP3    H151370   6.260   1.166   4.129  0.9207  0.4536 -0.7834
 9985TIP3    H251371   6.202   1.133   3.993 -0.1137 -0.1739 -0.1961
 9986TIP3   OH251372   4.875   4.416  15.354 -0.2890 -0.1276 -0.1260
 9986TIP3    H151373   4.803   4.468  15.319 -2.7262 -1.9162  2.0954
 9986TIP3    H251374   4.902   4.360  15.281 -0.3095  1.3819 -1.3157
 9987TIP3   OH251375   0.477   2.719  10.602  0.3957  0.2972  0.0286
 9987TIP3    H151376   0.474   2.643  10.661 -0.9905  1.2084  1.1804
 9987TIP3    H251377   0.565   2.719  10.567  0.7920 -1.1428  0.9852
 9988TIP3   OH251378   4.052   4.919  17.050  0.2515  0.0751  0.0320
 9988TIP3    H151379   4.044   4.894  17.142 -0.3159 -1.5304 -0.4389
 9988TIP3    H251380   3.963   4.940  17.024  0.4759  0.9596 -0.0515
 9989TIP3   OH251381   4.338   0.571   1.761  0.0336  0.0825 -0.1717
 9989TIP3    H151382   4.272   0.638   1.775  0.1916 -0.0650  1.2665
 9989TIP3    H251383   4.420   0.620   1.749 -0.0892  0.1966 -0.5767
 9990TIP3   OH251384   5.355   3.534   3.518 -0.2380  0.2136 -0.3629
 9990TIP3    H151385   5.346   3.568   3.607  0.2627  2.0716 -0.9873
 9990TIP3    H251386   5.446   3.507   3.512 -0.7548 -1.7385  0.2846
 9991TIP3   OH251387   5.774   3.171   3.878 -0.4516  0.2970 -0.4176
 9991TIP3    H151388   5.682   3.172   3.904 -0.1269 -1.5351  0.9114
 9991TIP3    H251389   5.790   3.080   3.851  0.7618  0.7937 -1.4007
 9992TIP3   OH251390   5.231   2.775  12.968  0.4172  0.6268 -0.3747
 9992TIP3    H151391   5.183   2.832  12.908  1.2989  1.1384 -0.5959
 9992TIP3    H251392   5.228   2.689  12.927 -0.5073  0.6006 -0.2722
 9993TIP3   OH251393   2.794   2.505  11.741 -0.2352  0.2359  0.3029
 9993TIP3    H151394   2.869   2.531  11.794 -0.6777  1.4668  0.3471
 9993TIP3    H251395   2.820   2.525  11.651  0.4439 -1.6780  0.0490
 9994TIP3   OH251396   2.608   0.746  16.555  0.2762  0.2739  0.5204
 9994TIP3    H151397   2.611   0.769  16.648  3.0352 -2.2064  1.1309
 9994TIP3    H251398   2.561   0.662  16.553 -1.3602  1.1877 -0.5684
 9995TIP3   OH251399   3.005   3.720   2.473  0.4589 -0.1034 -0.1372
 9995TIP3    H151400   2.936   3.725   2.539  1.1186 -2.0166  0.7259
 9995TIP3    H251401   2.969   3.767   2.398 -1.6512 -0.7847  0.4130
 9996TIP3   OH251402   4.718   3.083  13.892  0.4345 -0.0581  0.1595
 9996TIP3    H151403   4.715   2.997  13.934  2.2488  0.2020  0.8641
 9996TIP3    H251404   4.657   3.076  13.819  3.4598 -3.2945 -2.2673
 9997TIP3   OH251405   6.783   3.844  17.113 -0.3450 -0.0042  0.2911
 9997TIP3    H151406   6.875   3.816  17.110 -0.5092 -0.5363  0.1777
 9997TIP3    H251407   6.762   3.850  17.206 -0.2685 -0.1311  0.3166
 9998TIP3   OH251408   3.457   4.672   2.181  0.0638 -0.1655  0.0069
 9998TIP3    H151409   3.389   4.727   2.143  1.2555  0.4377 -1.2848
 9998TIP3    H251410   3.484   4.719   2.260  1.0697  1.1304 -1.0873
 9999TIP3   OH251411   2.317   0.524   5.143 -0.5433  0.2084 -0.4283
 9999TIP3    H151412   2.297   0.575   5.065 -2.3733  3.0120  1.7590
 9999TIP3    H251413   2.238   0.530   5.197  1.1803 -0.4255  2.2875
10000TIP3   OH251414   0.883   3.346   3.115 -0.1254  0.8870  0.0085
10000TIP3    H151415   0.825   3.286   3.069 -2.1455  1.8378  1.2677
10000TIP3    H251416   0.971   3.320   3.087 -1.0562 -1.4334 -0.8881
10001TIP3   OH251417   3.315   1.768  15.942  0.4762  0.2615  0.4658
10001TIP3    H151418   3.362   1.715  15.878 -0.8480 -1.7916  1.1384
10001TIP3    H251419   3.245   1.810  15.892 -0.1883 -0.8622  0.4428
10002TIP3   OH251420   5.365   2.642   2.520  0.3269 -0.7591  1.2259
10002TIP3    H151421   5.427   2.629   2.592  0.3062 -1.8748  1.0472
10002TIP3    H251422   5.406   2.600   2.445 -0.0928 -0.4293  0.8090
10003TIP3   OH251423   3.055   0.979  13.130  0.1244 -0.0071  0.4282
10003TIP3    H151424   3.140   0.937  13.147  0.6294  0.4125 -0.9386
10003TIP3    H251425   2.993   0.906  13.123  0.2468 -0.2817  2.0599
10004TIP3   OH251426   6.288   4.415  10.894 -0.1907  0.0680 -0.5168
10004TIP3    H151427   6.255   4.355  10.827  0.5021 -0.9046  0.0040
10004TIP3    H251428   6.370   4.448  10.859 -1.5576  2.3464 -1.7243
10005TIP3   OH251429   5.478   2.044  13.904 -0.0802 -0.3354  0.4047
10005TIP3    H151430   5.477   2.000  13.989 -0.9166  3.4965  2.4548
10005TIP3    H251431   5.571   2.049  13.881  0.1812 -0.9203  1.3014
10006TIP3   OH251432   5.524   4.824  11.710  0.2642 -0.2075  0.2549
10006TIP3    H151433   5.473   4.748  11.680  1.3650 -0.6895 -0.4114
10006TIP3    H251434   5.571   4.853  11.632 -0.3899  1.3696  0.4245
10007TIP3   OH251435   5.303   2.384   5.616  0.3541 -0.1783  0.1440
10007TIP3    H151436   5.328   2.356   5.705 -0.1127 -1.2342 -0.0514
10007TIP3    H251437   5.310   2.480   5.619 -0.9408 -0.0935  1.7261
10008TIP3   OH251438   6.110   6.529  15.790  0.0072  0.1611  0.0875
10008TIP3    H151439   6.034   6.482  15.825 -0.1432  0.3678  0.0347
10008TIP3    H251440   6.176   6.520  15.859  0.0233 -0.2478  0.0149
10009TIP3   OH251441   6.188   2.554   5.394 -0.2183  0.2325  0.2777
10009TIP3    H151442   6.144   2.638   5.379 -0.1172  0.1308 -0.6215
10009TIP3    H251443   6.190   2.545   5.489 -1.8438  0.3947  0.3428
10010TIP3   OH251444   6.484   1.403  11.336  0.4122 -0.2669  0.0630
10010TIP3    H151445   6.482   1.462  11.411  1.5465 -1.1607  0.8223
10010TIP3    H251446   6.419   1.438  11.275  0.8184  1.5439  0.6557
10011TIP3   OH251447   6.135   4.915   4.410 -0.1963 -0.4899 -0.2355
10011TIP3    H151448   6.084   4.862   4.470 -0.9513 -0.8317 -1.1719
10011TIP3    H251449   6.070   4.957   4.354  0.5402 -0.7606 -1.2984
10012TIP3   OH251450   3.904   6.561  11.685 -0.7821 -0.1486  0.2130
10012TIP3    H151451   3.913   6.513  11.767 -1.1431  0.7501  0.7909
10012TIP3    H251452   3.811   6.584  11.680 -0.6082  0.5298 -0.0190
10013TIP3   OH251453   6.722   6.246   3.702  0.4437 -0.0043 -0.4014
10013TIP3    H151454   6.723   6.172   3.642  2.8611 -0.5531  0.2495
10013TIP3    H251455   6.768   6.316   3.654 -0.2766  0.5096 -0.3440
10014TIP3   OH251456   3.547   4.976  11.956  0.0333  0.0011  0.1008
10014TIP3    H151457   3.493   5.046  11.992 -0.4663  0.0204 -0.6931
10014TIP3    H251458   3.569   4.921  12.032  0.4771  1.0396  0.7376
10015TIP3   OH251459   4.302   4.559  14.845  0.0555 -0.5427 -0.5259
10015TIP3    H151460   4.392   4.546  14.813  0.5166  4.5407 -1.7282
10015TIP3    H251461   4.312   4.622  14.917 -2.4388 -0.8832  0.1374
10016TIP3   OH251462   0.600   4.276   6.316 -0.1762  0.4544  0.1485
10016TIP3    H151463   0.602   4.319   6.401 -0.7471  1.7326 -0.4685
10016TIP3    H251464   0.566   4.343   6.256  1.7106  0.0846 -1.3817
10017TIP3   OH251465   0.824   0.762  11.809  0.2498  0.1234  0.3216
10017TIP3    H151466   0.878   0.814  11.869  1.8684  0.6273 -1.4927
10017TIP3    H251467   0.771   0.827  11.762 -1.2768 -0.2954  1.4311
10018TIP3   OH251468   3.171   5.938  16.127  0.0076  0.2625 -0.0423
10018TIP3    H151469   3.267   5.943  16.122 -0.0528  0.6115 -0.9043
10018TIP3    H251470   3.153   5.912  16.217  0.8985  0.7480  0.2799
10019TIP3   OH251471   1.498   4.678   5.827  0.0320 -0.1429  0.1230
10019TIP3    H151472   1.412   4.658   5.791 -0.1690 -0.9495  1.0203
10019TIP3    H251473   1.518   4.603   5.883  0.9639  0.4167  0.5447
10020TIP3   OH251474   0.617   6.382  14.963  0.3692 -0.5521 -0.3090
10020TIP3    H151475   0.679   6.449  14.992 -1.2192  0.5478  0.6359
10020TIP3    H251476   0.670   6.318  14.916  2.0822  0.8038 -0.2495
10021TIP3   OH251477   4.315   4.012  13.300 -0.3393 -0.1588 -0.5286
10021TIP3    H151478   4.364   4.055  13.230  0.4779  0.9498  0.7064
10021TIP3    H251479   4.332   4.065  13.377  0.8930 -2.8286  1.0766
10022TIP3   OH251480   5.862   3.043  12.657  0.3495 -0.2294  0.2609
10022TIP3    H151481   5.797   2.997  12.710  1.6542 -2.2199  0.1726
10022TIP3    H251482   5.844   3.014  12.567 -0.4819  1.4805 -0.1521
10023TIP3   OH251483   4.173   3.791   6.037  0.3221  0.4842  0.2058
10023TIP3    H151484   4.125   3.722   5.992  1.0818  0.3567 -0.4193
10023TIP3    H251485   4.152   3.779   6.130 -0.6593  0.2904 -0.0350
10024TIP3   OH251486   2.403   5.972  16.647  0.1836  0.8290  0.0666
10024TIP3    H151487   2.356   5.890  16.661 -0.2047  0.8952 -0.8240
10024TIP3    H251488   2.491   5.956  16.682  0.2924 -0.1702 -0.6382
10025TIP3   OH251489   4.529   3.617   6.023  0.5237  0.1661  0.0544
10025TIP3    H151490   4.524   3.552   5.954 -1.2787  1.3386 -0.9700
10025TIP3    H251491   4.461   3.592   6.085  1.2112 -0.0983  0.7061
10026TIP3   OH251492   2.902   2.871   4.136 -0.0292 -1.0099 -0.0442
10026TIP3    H151493   2.964   2.880   4.209  0.6478 -1.3439 -0.5799
10026TIP3    H251494   2.929   2.791   4.091 -0.4864 -0.8330 -0.6335
10027TIP3   OH251495   0.679   1.257  13.638  0.6703  0.4540  0.1054
10027TIP3    H151496   0.652   1.259  13.730  2.0957  1.0003  0.5175
10027TIP3    H251497   0.731   1.177  13.630 -0.3153 -0.1399 -0.4851
10028TIP3   OH251498   2.520   0.851   0.224 -0.1066 -0.2744 -0.0551
10028TIP3    H151499   2.450   0.881   0.283  1.1516 -0.6939  1.6891
10028TIP3    H251500   2.474   0.819   0.146 -1.8284 -0.0916  0.8677
10029TIP3   OH251501   4.308   6.014  14.732 -0.2690  0.0537 -0.7938
10029TIP3    H151502   4.242   5.967  14.783  0.2593 -0.1039 -0.2496
10029TIP3    H251503   4.392   5.982  14.766  0.0947 -1.0005 -2.6238
10030TIP3   OH251504   6.144   4.098   2.253  0.1118 -0.0625 -0.1015
10030TIP3    H151505   6.141   4.194   2.251 -0.7800 -0.0883 -0.0698
10030TIP3    H251506   6.070   4.073   2.307  0.9038 -0.7484  0.6724
10031TIP3   OH251507   1.897   0.539   2.103  0.5553  0.6577 -0.0321
10031TIP3    H151508   1.870   0.630   2.095  0.5378  0.7637  1.1385
10031TIP3    H251509   1.984   0.536   2.062  0.2598  1.0445 -0.6946
10032TIP3   OH251510   4.977   3.454   1.532 -0.7626 -0.3426  0.1590
10032TIP3    H151511   5.043   3.502   1.482 -0.7790 -1.1276 -0.6186
10032TIP3    H251512   4.895   3.498   1.510 -0.6461 -0.0797  0.2474
10033TIP3   OH251513   5.583   0.036  16.580 -0.3539  0.4146  0.2723
10033TIP3    H151514   5.586   0.079  16.495 -2.8513  0.4679  0.1602
10033TIP3    H251515   5.674   0.030  16.608  0.6347 -0.7893 -2.9788
10034TIP3   OH251516   1.882   2.981   4.887 -0.3352  0.1355 -0.6909
10034TIP3    H151517   1.976   2.993   4.899 -0.4074 -1.0511  1.1369
10034TIP3    H251518   1.859   2.907   4.942 -1.5971 -2.4243 -4.4510
10035TIP3   OH251519   6.312   0.434  12.395 -0.1077  0.0636 -0.2028
10035TIP3    H151520   6.381   0.499  12.414  1.9372 -1.4745 -2.0887
10035TIP3    H251521   6.292   0.447  12.303  0.3082 -1.9401 -0.5956
10036TIP3   OH251522   5.749   2.208  13.579 -0.2940 -0.0329 -0.5325
10036TIP3    H151523   5.677   2.256  13.537  1.4097  1.7866 -1.4276
10036TIP3    H251524   5.715   2.185  13.665 -2.2930 -0.0448 -1.2888
10037TIP3   OH251525   3.224   3.424  14.414  0.0512  0.3437 -0.6611
10037TIP3    H151526   3.284   3.364  14.370 -0.1799 -0.1597 -0.2882
10037TIP3    H251527   3.277   3.502  14.432  0.5704 -0.0692 -0.4052
10038TIP3   OH251528   3.262   3.307   1.524  0.0578 -0.5255 -0.1379
10038TIP3    H151529   3.341   3.358   1.541 -1.4020  1.3810  1.0441
10038TIP3    H251530   3.294   3.228   1.480  2.4472  0.9531 -1.1490
10039TIP3   OH251531   3.514   3.673  12.188 -0.5163  0.3609  0.1336
10039TIP3    H151532   3.444   3.622  12.229 -0.7121 -0.1617 -0.8132
10039TIP3    H251533   3.568   3.607  12.144  0.2256  0.8160  0.3603
10040TIP3   OH251534   4.141   5.365  14.622  0.1918  0.3498 -0.6856
10040TIP3    H151535   4.154   5.392  14.531 -0.6607  0.9489 -0.6342
10040TIP3    H251536   4.131   5.447  14.670 -0.3943  0.0028 -0.2095
10041TIP3   OH251537   2.789   5.425  13.441 -0.2435 -0.0733 -0.6353
10041TIP3    H151538   2.748   5.504  13.405  2.0185  0.5894 -1.8423
10041TIP3    H251539   2.805   5.369  13.365 -0.7083 -1.1804  0.0666
10042TIP3   OH251540   1.698   2.164   5.474 -0.1276 -0.0909  0.3800
10042TIP3    H151541   1.611   2.164   5.514  0.1123 -0.4514  0.9186
10042TIP3    H251542   1.741   2.242   5.510 -1.1536  1.6321 -1.9914
10043TIP3   OH251543   4.569   6.286  14.837  0.2436 -0.0201 -0.2279
10043TIP3    H151544   4.642   6.268  14.779 -0.6222 -3.1715 -0.4209
10043TIP3    H251545   4.491   6.258  14.788 -0.8453  0.7480  1.0139
10044TIP3   OH251546   1.756   6.411  15.564  0.5106 -0.4071 -0.2279
10044TIP3    H151547   1.803   6.484  15.524 -0.6834  0.0626 -0.7975
10044TIP3    H251548   1.676   6.403  15.512 -1.4370  0.6860  2.4815
10045TIP3   OH251549   4.229   4.018  12.291 -0.0999  0.2530 -0.6266
10045TIP3    H151550   4.165   4.084  12.318  0.6837  0.0701  1.8445
10045TIP3    H251551   4.177   3.951  12.247 -1.4500  0.6385  0.3416
10046TIP3   OH251552   5.356   0.020   0.423 -0.2071 -0.1555  0.0886
10046TIP3    H151553   5.325  -0.066   0.448 -0.5307  0.0936  0.5499
10046TIP3    H251554   5.421   0.004   0.354 -0.3582 -0.7531  0.0899
10047TIP3   OH251555   2.069   4.575   5.033  0.1213 -0.2461 -0.0580
10047TIP3    H151556   2.037   4.641   5.095 -0.5157 -1.6871  1.1926
10047TIP3    H251557   2.065   4.493   5.082  2.3756 -0.9979 -1.0653
10048TIP3   OH251558   4.908   3.515  16.535  0.2104  0.2748 -0.5023
10048TIP3    H151559   4.906   3.519  16.631  2.5132 -0.2327 -0.4232
10048TIP3    H251560   4.815   3.512  16.510 -0.4077 -0.1278  1.7154
10049TIP3   OH251561   2.463   5.212  14.262  0.0569 -0.1586 -0.1137
10049TIP3    H151562   2.494   5.301  14.276  1.1652 -0.8525  2.2930
10049TIP3    H251563   2.512   5.181  14.186 -1.0532  1.5560 -1.5807
10050TIP3   OH251564   6.085   6.289   4.791  0.2306 -0.2274  0.3489
10050TIP3    H151565   6.006   6.341   4.802  0.4060 -0.2915  2.0653
10050TIP3    H251566   6.062   6.222   4.726 -1.0937 -0.1933  0.7789
10051TIP3   OH251567   6.129   0.748   3.604  0.1505 -0.0197  0.7577
10051TIP3    H151568   6.155   0.698   3.681 -1.2132 -0.6243  0.8392
10051TIP3    H251569   6.047   0.791   3.629 -0.2650 -0.1639 -0.3269
10052TIP3   OH251570   3.085   1.698  12.771 -0.3880  0.3372  0.3737
10052TIP3    H151571   3.054   1.762  12.835 -1.2337  2.0323 -1.6621
10052TIP3    H251572   3.113   1.751  12.696  2.7911 -1.4496  0.2052
10053TIP3   OH251573   5.877   3.724  11.494 -0.4255 -0.1062  0.1689
10053TIP3    H151574   5.828   3.719  11.411 -0.4172 -0.1930  0.1701
10053TIP3    H251575   5.959   3.679  11.476 -1.6329 -2.7323  1.1076
10054TIP3   OH251576   6.783   2.880  14.558  0.4144  0.3722  0.3960
10054TIP3    H151577   6.745   2.967  14.553  0.2747  0.1567 -3.0581
10054TIP3    H251578   6.718   2.822  14.519  1.6005 -0.9235  0.2709
10055TIP3   OH251579   5.250   5.405  12.105 -0.1070 -0.0432  0.0085
10055TIP3    H151580   5.225   5.320  12.142  1.8912  0.4688  2.6493
10055TIP3    H251581   5.345   5.399  12.092  0.1890  2.0933  1.0628
10056TIP3   OH251582   3.052   2.801  15.258  0.5324  0.4888  0.8252
10056TIP3    H151583   3.015   2.881  15.295 -0.3042  1.7240 -2.5024
10056TIP3    H251584   3.138   2.828  15.225  0.7041 -0.2699  0.6507
10057TIP3   OH251585   1.011   4.504  12.590  0.0170 -0.0235 -0.1837
10057TIP3    H151586   0.992   4.557  12.668  1.4808  1.2397 -0.6427
10057TIP3    H251587   0.945   4.531  12.526 -0.5924 -0.3607  0.2958
10058TIP3   OH251588   4.701   4.288   6.204 -0.8101  0.2780  0.4179
10058TIP3    H151589   4.647   4.302   6.126  1.4472 -1.2058 -1.4909
10058TIP3    H251590   4.657   4.218   6.252 -1.3983  0.1113 -0.3496
10059TIP3   OH251591   1.885   3.406   0.153  0.3772 -0.0564 -0.4964
10059TIP3    H151592   1.956   3.467   0.137  0.2908 -0.2159 -1.5309
10059TIP3    H251593   1.899   3.375   0.243  1.8173 -0.3570 -0.8204
10060TIP3   OH251594   3.892   6.440   5.816 -0.2355 -0.3254 -0.4095
10060TIP3    H151595   3.869   6.378   5.884 -0.5411 -0.1710 -0.3698
10060TIP3    H251596   3.821   6.504   5.816 -0.5916 -0.7113 -1.3447
10061TIP3   OH251597   4.952   4.116   0.172  0.1579  0.3310  0.1347
10061TIP3    H151598   4.922   4.031   0.202  1.5880 -1.3566 -2.9756
10061TIP3    H251599   4.876   4.173   0.180 -1.1468 -1.5239  1.1812
10062TIP3   OH251600   4.763   1.617  15.386 -0.9632 -0.0341  0.7312
10062TIP3    H151601   4.692   1.648  15.329 -1.7269 -0.5476  1.3931
10062TIP3    H251602   4.723   1.609  15.472  0.4402  1.6846  1.5663
10063TIP3   OH251603   6.586   0.179   0.178 -0.1015 -0.4815 -0.5486
10063TIP3    H151604   6.546   0.260   0.210 -0.5994  0.1171 -2.5964
10063TIP3    H251605   6.641   0.207   0.105  0.4490 -1.8842 -0.6886
10064TIP3   OH251606   3.868   5.594   0.595  0.1199  0.0340 -0.0675
10064TIP3    H151607   3.802   5.533   0.627  0.7288 -0.9170 -0.6087
10064TIP3    H251608   3.922   5.614   0.672 -0.4257  0.3424  0.2368
10065TIP3   OH251609   3.850   1.828  17.219 -0.0383 -0.2568  0.0379
10065TIP3    H151610   3.885   1.773  17.290  1.2376  0.7461  0.1885
10065TIP3    H251611   3.815   1.905  17.264 -0.4329 -0.2334 -0.3105
10066TIP3   OH251612   4.261   1.856   5.698 -0.2544 -0.0264 -0.4906
10066TIP3    H151613   4.305   1.903   5.768  1.1376 -3.7579  1.2712
10066TIP3    H251614   4.308   1.882   5.618  1.2968  0.5836  0.5949
10067TIP3   OH251615   3.757   5.944   2.605 -0.2020  0.2533  0.1112
10067TIP3    H151616   3.693   5.884   2.569 -1.0603  1.5471 -0.5756
10067TIP3    H251617   3.835   5.933   2.550 -0.3280 -0.2602  0.0344
10068TIP3   OH251618   6.214   4.981   3.322  0.2088  0.5827 -0.6091
10068TIP3    H151619   6.246   5.066   3.354 -0.9987  0.3091  1.3809
10068TIP3    H251620   6.133   5.002   3.275 -0.1565  0.5193 -0.0093
10069TIP3   OH251621   5.047   4.736  13.754 -0.0467 -0.0101 -0.1292
10069TIP3    H151622   4.961   4.694  13.748 -0.0289  0.0206 -0.5939
10069TIP3    H251623   5.053   4.791  13.676 -0.1874  1.0893  0.6253
10070TIP3   OH251624   4.584   3.902   6.052 -0.3673  0.2722 -0.1848
10070TIP3    H151625   4.659   3.863   6.097 -0.4721 -2.1543 -2.0394
10070TIP3    H251626   4.519   3.832   6.046 -2.0783  1.8211 -0.2257
10071TIP3   OH251627   5.246   2.917  13.348  0.0836  0.0990  0.1563
10071TIP3    H151628   5.290   2.982  13.403 -1.2293  0.8928  0.2806
10071TIP3    H251629   5.198   2.969  13.284  0.4555 -0.8016 -0.8675
10072TIP3   OH251630   3.101   3.520  12.405  0.2294 -0.5013  0.5677
10072TIP3    H151631   3.160   3.581  12.359 -0.3107 -0.8188 -0.5514
10072TIP3    H251632   3.129   3.525  12.496  0.5167  1.0728  0.4149
10073TIP3   OH251633   3.709   1.745  11.784 -0.0245  0.0701  0.1134
10073TIP3    H151634   3.685   1.670  11.838  1.0242 -0.0542  0.4180
10073TIP3    H251635   3.784   1.784  11.828  1.1634 -0.3219 -1.5030
10074TIP3   OH251636   3.376   4.526  14.672 -0.6228  0.0699 -0.0529
10074TIP3    H151637   3.326   4.446  14.655 -0.2799  0.2599 -2.1705
10074TIP3    H251638   3.466   4.503  14.650 -0.4833  0.9581 -0.4372
10075TIP3   OH251639   3.613   6.736  13.447 -0.5165 -0.5388 -0.4417
10075TIP3    H151640   3.699   6.765  13.474 -0.3603  0.1006 -1.5835
10075TIP3    H251641   3.557   6.752  13.523  0.4409 -1.3566  0.4511
10076TIP3   OH251642   2.160   0.593  10.859 -0.2531  0.5859 -0.1654
10076TIP3    H151643   2.152   0.504  10.824 -0.1861  0.2954  0.5318
10076TIP3    H251644   2.114   0.648  10.796 -1.3056 -0.0994 -0.0207
10077TIP3   OH251645   6.729   6.097  16.385 -0.1929  0.1943  0.2525
10077TIP3    H151646   6.803   6.064  16.435  0.6304  0.6024 -0.6882
10077TIP3    H251647   6.761   6.104  16.295 -1.5100 -0.0788 -0.2578
10078TIP3   OH251648   4.791   2.458   2.271  0.2355 -0.3551  0.2399
10078TIP3    H151649   4.804   2.446   2.177 -0.0781  2.7468 -0.2251
10078TIP3    H251650   4.702   2.426   2.287  0.4059 -1.1929 -0.4506
10079TIP3   OH251651   5.307   6.224  13.460 -0.7459 -0.2091 -0.4452
10079TIP3    H151652   5.244   6.265  13.520  0.1491  0.9421 -0.2951
10079TIP3    H251653   5.328   6.292  13.396 -1.1332 -1.2050 -1.6539
10080TIP3   OH251654   5.788   0.203   1.975 -0.1408 -0.3506  0.2017
10080TIP3    H151655   5.706   0.214   2.023 -0.1067 -0.8203  0.3638
10080TIP3    H251656   5.854   0.188   2.042  0.3230  1.3791  0.1654
10081TIP3   OH251657   4.984   5.758   4.868 -0.1645 -0.3269 -0.0697
10081TIP3    H151658   5.066   5.735   4.824  0.2854 -0.3672  0.7808
10081TIP3    H251659   4.916   5.722   4.812  0.3893  0.0004 -0.9616
10082TIP3   OH251660   3.731   1.540   3.342  0.5340  0.2939 -0.2187
10082TIP3    H151661   3.727   1.568   3.251  1.6600  0.7194 -0.1492
10082TIP3    H251662   3.782   1.608   3.386 -2.0697  1.3608  1.2450
10083TIP3   OH251663   4.047   1.745   2.012  0.3397  0.5611 -0.3068
10083TIP3    H151664   4.034   1.650   2.010 -0.6365  0.6522  1.0676
10083TIP3    H251665   4.113   1.758   2.080  0.8885  0.8277 -0.8884
10084TIP3   OH251666   1.532   2.782   2.905 -0.3129 -0.2838  0.6342
10084TIP3    H151667   1.539   2.690   2.932  0.6965 -0.9311 -1.6918
10084TIP3    H251668   1.438   2.799   2.904 -0.5650 -1.5964  0.1644
10085TIP3   OH251669   6.760   3.429  17.148  0.1396 -0.3700  0.2251
10085TIP3    H151670   6.729   3.489  17.081  0.0366 -1.7232 -0.9664
10085TIP3    H251671   6.690   3.428  17.213 -1.0919 -1.2410 -1.0675
10086TIP3   OH251672   6.297   4.022   0.248 -0.0502 -0.3338 -0.3839
10086TIP3    H151673   6.293   4.035   0.343 -2.3521  0.3471 -0.5453
10086TIP3    H251674   6.357   4.090   0.218 -1.3128  1.1383  0.3207
10087TIP3   OH251675   6.312   4.371   3.498  0.2413  0.0076 -0.5057
10087TIP3    H151676   6.333   4.422   3.577  0.7621 -2.1868  0.8385
10087TIP3    H251677   6.226   4.333   3.516  0.4806 -0.7179 -0.8661
10088TIP3   OH251678   1.193   0.324  17.032  0.1362 -0.1175  0.0650
10088TIP3    H151679   1.149   0.408  17.042  1.9174  0.7454  0.9397
10088TIP3    H251680   1.196   0.288  17.120  1.4887  0.0220  0.0934
10089TIP3   OH251681   5.380   5.210   5.639  0.0412  0.0405 -0.0510
10089TIP3    H151682   5.404   5.204   5.731 -0.7607  0.6025  0.2003
10089TIP3    H251683   5.453   5.168   5.593  0.0168 -1.0786  0.8884
10090TIP3   OH251684   3.647   5.120  13.777  0.4140  0.0671  0.6219
10090TIP3    H151685   3.732   5.085  13.803  1.3974 -0.5349 -3.0198
10090TIP3    H251686   3.586   5.047  13.792  0.9851 -0.3514  0.9342
10091TIP3   OH251687   5.019   2.416  17.120 -0.0017 -0.2167 -0.2252
10091TIP3    H151688   5.065   2.406  17.204  0.1111 -0.1624 -0.2821
10091TIP3    H251689   5.029   2.508  17.098  2.6998 -0.8403 -1.8673
10092TIP3   OH251690   1.430   4.912   4.292  0.4247  0.2110  0.1199
10092TIP3    H151691   1.427   5.000   4.254 -1.9860 -1.3300 -3.4231
10092TIP3    H251692   1.503   4.869   4.248  0.9153  0.0418  1.0722
10093TIP3   OH251693   4.654   5.014   3.804 -0.2210  0.1617 -0.3596
10093TIP3    H151694   4.584   4.949   3.816 -0.7850  0.8141 -0.0682
10093TIP3    H251695   4.667   5.017   3.709 -0.2331 -0.3394 -0.3778
10094TIP3   OH251696   1.259   4.705   1.861  0.1140  0.8212 -0.0230
10094TIP3    H151697   1.223   4.662   1.783  1.4241  0.4557 -0.4308
10094TIP3    H251698   1.336   4.654   1.884  0.3559  1.5731  0.8768
10095TIP3   OH251699   6.663   0.966   2.640  0.0411 -0.0739 -0.0805
10095TIP3    H151700   6.584   0.979   2.692 -0.4573 -1.6465 -0.4162
10095TIP3    H251701   6.631   0.954   2.550  0.6673 -0.5581 -0.2428
10096TIP3   OH251702   0.745   5.526  13.344  0.3050 -0.5200  0.5873
10096TIP3    H151703   0.682   5.498  13.411  0.7108 -1.4544  0.5688
10096TIP3    H251704   0.738   5.460  13.275 -0.0819  0.4182 -0.2894
10097TIP3   OH251705   2.760   1.931   3.072  0.0726  0.6037 -0.3110
10097TIP3    H151706   2.832   1.870   3.058  0.5445  0.6399  1.7818
10097TIP3    H251707   2.746   1.930   3.167 -2.2282  1.1175 -0.6218
10098TIP3   OH251708   0.901   0.110   6.313 -0.3460  0.0376 -0.0251
10098TIP3    H151709   0.857   0.186   6.350 -0.3986 -0.0845  0.1649
10098TIP3    H251710   0.983   0.103   6.362  0.3874  0.9032 -1.1067
10099TIP3   OH251711   1.737   1.688   5.357 -0.3824 -0.3613  0.1253
10099TIP3    H151712   1.725   1.595   5.377 -2.1340 -0.1707  0.0478
10099TIP3    H251713   1.681   1.733   5.420 -1.5516  0.5090 -1.5054
10100TIP3   OH251714   3.465   6.026   1.161  0.3197 -0.1149 -0.4858
10100TIP3    H151715   3.456   6.073   1.078  0.1264  0.5491 -0.0934
10100TIP3    H251716   3.378   5.991   1.178  1.1546 -3.3600 -2.3671
10101TIP3   OH251717   4.879   4.155  11.896  0.1465 -0.0630 -0.4558
10101TIP3    H151718   4.796   4.164  11.849 -0.0312 -0.4071 -0.2074
10101TIP3    H251719   4.874   4.070  11.938  1.2245 -0.7313 -1.6271
10102TIP3   OH251720   4.606   0.340  15.177  0.7748 -0.0029  0.6811
10102TIP3    H151721   4.590   0.249  15.202  2.7634 -0.9070 -1.1326
10102TIP3    H251722   4.636   0.383  15.257 -3.6517  0.0264  2.4427
10103TIP3   OH251723   6.476   2.227  13.218  0.1343  0.5049 -0.1465
10103TIP3    H151724   6.417   2.293  13.256 -0.7630  0.5665 -1.5922
10103TIP3    H251725   6.420   2.177  13.159  0.7562 -1.7523  1.1577
10104TIP3   OH251726   5.018   6.762  15.814  0.3885  0.6819  0.0405
10104TIP3    H151727   4.924   6.742  15.814  0.5784 -0.1995  0.1112
10104TIP3    H251728   5.061   6.681  15.786  1.2095  0.6736  1.2782
10105TIP3   OH251729   0.241   2.104   2.430  0.2667  0.0415  0.0164
10105TIP3    H151730   0.334   2.122   2.418 -0.0850 -0.5104 -4.9524
10105TIP3    H251731   0.238   2.010   2.451  0.8628  0.1691  0.6781
10106TIP3   OH251732   5.765   2.332  11.272  0.5598  0.0302  1.0978
10106TIP3    H151733   5.845   2.294  11.237  0.6571  0.2494  1.0823
10106TIP3    H251734   5.752   2.412  11.220 -1.5400 -1.7764 -1.2909
10107TIP3   OH251735   1.631   3.707   2.649  0.3285 -0.1522  0.0875
10107TIP3    H151736   1.620   3.626   2.697 -0.1214  0.2596  0.6877
10107TIP3    H251737   1.726   3.721   2.645  0.4099 -0.8000 -0.1767
10108TIP3   OH251738   2.063   1.495   0.460 -0.1313 -0.2306 -0.4059
10108TIP3    H151739   2.041   1.416   0.509 -1.0871  0.7837  0.8218
10108TIP3    H251740   2.021   1.483   0.375  0.7391 -1.5692 -0.6716
10109TIP3   OH251741   2.827   2.519  11.110  0.7183  0.1547  0.1236
10109TIP3    H151742   2.869   2.470  11.039  1.6219  0.8947  0.1522
10109TIP3    H251743   2.800   2.601  11.070 -1.1016 -0.4827 -0.0020
10110TIP3   OH251744   0.235   4.994   5.735  0.0144 -0.3332 -0.2478
10110TIP3    H151745   0.276   4.967   5.653 -1.1480  0.6138 -1.1642
10110TIP3    H251746   0.188   4.916   5.766  1.1163 -0.9231 -0.0641
10111TIP3   OH251747   3.406   6.147  10.819  0.1665  0.1242  0.6573
10111TIP3    H151748   3.493   6.158  10.780 -0.2147  1.0825  0.0471
10111TIP3    H251749   3.370   6.236  10.820  0.0647  0.0738  3.0023
10112TIP3   OH251750   6.695   6.638  15.648  0.3264 -0.5375 -0.1990
10112TIP3    H151751   6.676   6.726  15.617 -0.9214 -0.8330 -0.2716
10112TIP3    H251752   6.729   6.651  15.737  0.2657  0.0248 -0.2583
10113TIP3   OH251753   2.850   6.035  15.448  0.3257 -0.1131 -0.0413
10113TIP3    H151754   2.928   6.065  15.401  0.3330 -1.6160 -1.0435
10113TIP3    H251755   2.805   5.978  15.385 -1.1211  0.0377  0.8318
10114TIP3   OH251756   0.928   1.524  15.801  0.3677 -0.8611 -0.5293
10114TIP3    H151757   0.877   1.455  15.759  0.1353 -0.0194 -1.6654
10114TIP3    H251758   0.877   1.550  15.877  0.7602 -2.3690  0.2572
10115TIP3   OH251759   3.658   6.122  14.301 -0.2981 -0.3433 -0.0212
10115TIP3    H151760   3.635   6.104  14.210 -1.3707 -2.2106  0.5840
10115TIP3    H251761   3.585   6.088  14.352  0.7948 -0.3446  1.6033
10116TIP3   OH251762   5.064   0.698  11.591  0.2469  0.3819 -0.7366
10116TIP3    H151763   5.093   0.776  11.543 -1.1606  2.1476  1.1722
10116TIP3    H251764   5.122   0.695  11.668  0.5919 -0.7479 -1.0296
10117TIP3   OH251765   3.934   4.190  11.199  0.1112 -0.0764  0.6011
10117TIP3    H151766   3.984   4.216  11.122 -0.1831  0.8190  0.7065
10117TIP3    H251767   3.863   4.255  11.206 -1.1736 -1.4151  0.3557
10118TIP3   OH251768   6.514   3.950   5.383 -0.0195  0.6116  0.0624
10118TIP3    H151769   6.594   3.920   5.426  0.3162 -0.9943 -1.6118
10118TIP3    H251770   6.447   3.889   5.414  0.5692 -1.7101 -2.9732
10119TIP3   OH251771   5.177   4.361   5.700 -0.0845 -0.2358  0.1794
10119TIP3    H151772   5.170   4.274   5.740 -0.6671 -0.0881  0.4044
10119TIP3    H251773   5.101   4.409   5.733 -0.4532 -0.0387 -0.9313
10120TIP3   OH251774   0.938   5.246  14.925 -0.0499 -0.2391 -0.2895
10120TIP3    H151775   0.846   5.237  14.951  0.4519 -1.5652  1.1163
10120TIP3    H251776   0.969   5.322  14.973  0.1873 -1.1634  1.0432
10121TIP3   OH251777   4.570   0.116   4.972  0.2412  0.4156  0.2885
10121TIP3    H151778   4.528   0.201   4.960 -1.0248 -0.0763  1.0728
10121TIP3    H251779   4.554   0.095   5.064  0.9081 -0.4780  0.2008
10122TIP3   OH251780   0.525   5.772   2.659  0.0001 -0.1495 -0.4062
10122TIP3    H151781   0.558   5.683   2.648  0.4769 -0.0175 -0.0655
10122TIP3    H251782   0.603   5.825   2.674 -0.3168  0.2561 -0.1753
10123TIP3   OH251783   2.889   1.449   0.795  0.5729 -0.4331 -0.0568
10123TIP3    H151784   2.909   1.365   0.836  0.2823 -0.4064  0.1392
10123TIP3    H251785   2.931   1.515   0.851  1.2562 -0.4821 -0.5056
10124TIP3   OH251786   6.595   6.031   0.511 -0.4612  0.0641  0.3789
10124TIP3    H151787   6.513   6.080   0.510  0.2249  1.1978 -1.4281
10124TIP3    H251788   6.659   6.093   0.545 -0.1527 -0.5413  0.9224
10125TIP3   OH251789   6.538   2.757  15.975  0.1107  0.0740 -0.2947
10125TIP3    H151790   6.565   2.698  15.905 -1.6455 -0.8056 -0.2554
10125TIP3    H251791   6.598   2.738  16.047  0.2675 -0.8786 -0.6714
10126TIP3   OH251792   0.435   3.043  15.549  0.1666  0.3520  0.5064
10126TIP3    H151793   0.366   2.983  15.522  2.3169 -1.6993 -0.5668
10126TIP3    H251794   0.477   3.001  15.624  0.1910  1.6379  1.2352
10127TIP3   OH251795   0.509   1.771  14.485  0.3717  0.2847 -0.0265
10127TIP3    H151796   0.520   1.751  14.577  0.5628  0.9458  0.1011
10127TIP3    H251797   0.477   1.862  14.484  1.4582  0.6674 -0.6447
10128TIP3   OH251798   3.589   4.365   0.862 -0.3499  1.0986 -0.4118
10128TIP3    H151799   3.631   4.413   0.934 -0.3644  0.8448 -0.2331
10128TIP3    H251800   3.512   4.325   0.902  0.2272  0.0719 -0.3146
10129TIP3   OH251801   3.063   6.404  10.699  0.5927  0.1005  0.4056
10129TIP3    H151802   3.149   6.368  10.676  0.8998  0.5361  0.8884
10129TIP3    H251803   3.074   6.499  10.691 -0.3519  0.0931 -1.3443
10130TIP3   OH251804   0.754   3.615  15.270  0.1497 -0.3636 -0.3954
10130TIP3    H151805   0.679   3.608  15.328 -0.7021 -0.8133 -1.5292
10130TIP3    H251806   0.821   3.658  15.322 -0.0465 -2.1855  1.4480
10131TIP3   OH251807   3.470   1.020   3.367 -0.0073  0.4087 -0.3314
10131TIP3    H151808   3.380   1.017   3.399 -0.4090 -0.1345 -1.4746
10131TIP3    H251809   3.516   1.077   3.429 -0.7822 -0.5086  1.1152
10132TIP3   OH251810   0.153   3.995   4.345 -0.2956  0.1852 -0.0376
10132TIP3    H151811   0.212   4.027   4.413 -1.4031  1.4862  0.3450
10132TIP3    H251812   0.094   4.069   4.329 -1.1056 -0.7056 -1.2073
10133TIP3   OH251813   6.286   1.489   5.461 -0.1089  0.0994 -0.5106
10133TIP3    H151814   6.214   1.428   5.445  0.8232 -1.2823  0.3775
10133TIP3    H251815   6.317   1.467   5.549 -0.8797  3.0471  0.5652
10134TIP3   OH251816   2.143   2.441  16.697  0.6523 -0.5470  0.0342
10134TIP3    H151817   2.050   2.423  16.703  0.5096 -0.1949 -0.9332
10134TIP3    H251818   2.185   2.368  16.742  0.0743 -2.9294 -3.0802
10135TIP3   OH251819   0.138   0.392   5.410  0.5596 -0.0487  0.1329
10135TIP3    H151820   0.190   0.468   5.437  0.2773 -0.1686  1.0118
10135TIP3    H251821   0.184   0.317   5.448  0.5291 -0.2751 -0.2730
10136TIP3   OH251822   5.517   1.618  16.638  0.3394  0.2506 -0.4466
10136TIP3    H151823   5.606   1.582  16.643  0.1410 -0.0824  0.8081
10136TIP3    H251824   5.527   1.709  16.668  0.0269 -0.2170  1.1412
10137TIP3   OH251825   1.307   0.435   1.519 -0.0476 -0.2603 -0.0615
10137TIP3    H151826   1.238   0.369   1.520  1.0120 -1.3822  0.3952
10137TIP3    H251827   1.310   0.469   1.608 -0.8254  0.6740 -0.3778
10138TIP3   OH251828   0.395   4.692   4.532 -0.2115  0.1139  0.2543
10138TIP3    H151829   0.466   4.754   4.517 -1.0221  1.6965  2.8089
10138TIP3    H251830   0.420   4.645   4.611 -1.8308  0.4411  0.9832
10139TIP3   OH251831   4.947   0.700   0.300  0.1175 -0.4012 -0.4700
10139TIP3    H151832   4.957   0.651   0.219  1.8769 -0.3288 -0.3049
10139TIP3    H251833   5.009   0.660   0.361 -0.1755  0.4519  0.4184
10140TIP3   OH251834   6.770   5.201  13.622 -0.1245 -0.0346 -0.7226
10140TIP3    H151835   6.725   5.208  13.538  0.2621 -1.4415 -1.0573
10140TIP3    H251836   6.730   5.126  13.665  1.3028 -0.7998 -0.6802
10141TIP3   OH251837   3.682   3.832  11.180 -0.6403 -0.5210 -0.2095
10141TIP3    H151838   3.616   3.833  11.249 -0.7774  1.3975 -0.3619
10141TIP3    H251839   3.633   3.838  11.098 -0.3694 -1.0520 -0.4199
10142TIP3   OH251840   2.736   4.166   5.574  0.0115  0.3154  0.1887
10142TIP3    H151841   2.667   4.112   5.535  0.8722 -0.7599  0.1278
10142TIP3    H251842   2.691   4.244   5.604 -1.1942 -0.2540 -0.1054
10143TIP3   OH251843   3.833   0.630   2.993 -0.6140  0.1457 -0.0898
10143TIP3    H151844   3.818   0.646   2.900  0.3818  0.2699 -0.2452
10143TIP3    H251845   3.776   0.692   3.039  0.7463  1.8646 -0.6569
10144TIP3   OH251846   1.681   5.236  16.220  0.3311 -0.2164 -0.4420
10144TIP3    H151847   1.727   5.288  16.286  1.0752 -0.7363 -0.5535
10144TIP3    H251848   1.654   5.300  16.154 -0.3332  0.2933  0.3019
10145TIP3   OH251849   5.313   3.671   0.271  0.1253  0.2422  0.2624
10145TIP3    H151850   5.360   3.754   0.278  0.9543 -0.1746 -0.2332
10145TIP3    H251851   5.294   3.646   0.361 -0.1404  0.9825  0.4106
10146TIP3   OH251852   1.853   4.975   3.700 -0.0272 -0.0112 -0.6089
10146TIP3    H151853   1.791   5.043   3.725  0.2301 -0.3143  0.8737
10146TIP3    H251854   1.932   4.994   3.750 -0.1410 -1.7105  0.2489
10147TIP3   OH251855   5.363   3.642  12.807 -0.0087 -0.0908 -0.0358
10147TIP3    H151856   5.386   3.694  12.729 -0.3470  1.0052  0.5837
10147TIP3    H251857   5.353   3.553  12.774 -0.2031  0.3721 -1.2719
10148TIP3   OH251858   2.641   1.833  11.575  0.5541  0.1469 -0.1683
10148TIP3    H151859   2.678   1.795  11.495  2.0284  0.0784  0.5306
10148TIP3    H251860   2.579   1.768  11.607  1.8881 -0.9818  0.1553
10149TIP3   OH251861   5.470   1.624  12.483 -0.0368 -0.5465  0.5500
10149TIP3    H151862   5.514   1.705  12.507 -0.0494 -0.0290 -1.1367
10149TIP3    H251863   5.531   1.580  12.424 -1.8712  0.3453 -2.0950
10150TIP3   OH251864   6.194   4.613  15.486 -0.1058  0.2545 -0.5310
10150TIP3    H151865   6.161   4.664  15.560  1.6285  0.6923 -0.0372
10150TIP3    H251866   6.284   4.592  15.510 -0.8291 -3.1658 -0.6817
10151TIP3   OH251867   6.325   1.024   4.204  0.2768 -0.3281  0.1954
10151TIP3    H151868   6.413   0.987   4.196  0.3675 -0.3069  1.1164
10151TIP3    H251869   6.316   1.046   4.297  0.2304  2.0181 -0.3347
10152TIP3   OH251870   3.787   1.677  12.546  0.0955  0.1399 -0.4623
10152TIP3    H151871   3.873   1.691  12.585  0.1930 -1.4124 -0.0782
10152TIP3    H251872   3.739   1.626  12.611  0.0116 -1.8387 -2.0166
10153TIP3   OH251873   4.067   4.580  11.176  0.3006 -0.6234  0.2718
10153TIP3    H151874   4.048   4.552  11.087  4.3221 -1.5685 -0.3896
10153TIP3    H251875   4.075   4.675  11.170  1.9190 -0.8050 -0.6887
10154TIP3   OH251876   2.920   1.752   4.898 -0.0483  0.1072 -0.6136
10154TIP3    H151877   2.929   1.823   4.962 -0.2660 -1.4719  1.2269
10154TIP3    H251878   2.998   1.698   4.911 -0.8986 -1.1248 -0.5381
10155TIP3   OH251879   5.558   6.467  16.527  0.0956 -0.1859 -0.4307
10155TIP3    H151880   5.477   6.516  16.518  0.5886  0.8190  0.4161
10155TIP3    H251881   5.559   6.438  16.618 -0.0846 -1.5861 -0.8698
10156TIP3   OH251882   1.343   3.552   6.009  0.4194 -0.4426 -0.2083
10156TIP3    H151883   1.433   3.522   5.996  1.0492  0.1436  2.3903
10156TIP3    H251884   1.322   3.599   5.928  2.3776 -0.7432 -0.9340
10157TIP3   OH251885   4.671   1.417   0.655 -1.0123 -0.6549 -0.4598
10157TIP3    H151886   4.682   1.360   0.579 -2.7051 -0.8902 -0.5457
10157TIP3    H251887   4.600   1.477   0.631 -0.9754 -0.1635  0.6017
10158TIP3   OH251888   0.190   5.696  14.119  0.1373  0.1894 -0.0733
10158TIP3    H151889   0.097   5.671  14.113  0.0536  0.5914 -0.4845
10158TIP3    H251890   0.211   5.688  14.212 -0.6994  1.4585  0.2396
10159TIP3   OH251891   4.772   4.690  11.879 -0.0687 -0.5462  0.0350
10159TIP3    H151892   4.811   4.604  11.863 -1.2608 -0.8453 -1.3888
10159TIP3    H251893   4.830   4.731  11.943  3.4367 -0.3768 -3.0551
10160TIP3   OH251894   5.288   4.651   0.903 -0.3744 -0.4457  0.2603
10160TIP3    H151895   5.356   4.703   0.859  0.0244 -0.7470  0.5187
10160TIP3    H251896   5.220   4.640   0.837  0.0305 -0.5264 -0.1459
10161TIP3   OH251897   3.638   3.832  14.844 -0.0272 -0.2206  0.4239
10161TIP3    H151898   3.681   3.917  14.833 -0.0951 -0.4728 -2.1327
10161TIP3    H251899   3.687   3.789  14.914  2.5895  0.3264 -1.0282
10162TIP3   OH251900   5.583   6.486   4.953 -0.2301 -0.1270 -0.1761
10162TIP3    H151901   5.568   6.452   5.041  0.2707 -0.6996 -0.3069
10162TIP3    H251902   5.506   6.540   4.934 -0.0618  0.4792  0.8384
10163TIP3   OH251903   5.296   6.488   5.361 -0.5982 -0.6998  0.1127
10163TIP3    H151904   5.386   6.514   5.381 -0.4936  0.7304 -1.9395
10163TIP3    H251905   5.298   6.463   5.269 -2.4571  0.2340 -0.2285
10164TIP3   OH251906   5.364   6.117   1.185 -0.0234 -0.3518  0.1294
10164TIP3    H151907   5.429   6.187   1.181 -0.6675  0.2842  0.6154
10164TIP3    H251908   5.321   6.129   1.270 -1.2453 -0.3318 -0.4861
10165TIP3   OH251909   4.747   1.236   6.898 -0.6607 -0.0342 -0.1133
10165TIP3    H151910   4.843   1.237   6.896 -0.6580 -0.7545 -2.0753
10165TIP3    H251911   4.723   1.171   6.832 -2.5014 -0.2711  0.7549
10166TIP3   OH251912   5.979   0.566   4.071 -0.0691  0.4822  0.3402
10166TIP3    H151913   5.950   0.602   4.155  0.0327 -0.1936  0.6673
10166TIP3    H251914   5.909   0.589   4.010 -1.9661 -2.2003  1.3854
10167TIP3   OH251915   5.072   1.960  14.995 -0.2938  0.2500 -0.5172
10167TIP3    H151916   5.065   1.866  14.980 -4.4143  0.3256  0.4063
10167TIP3    H251917   5.117   1.967  15.080 -0.0608 -0.8507 -0.5361
10168TIP3   OH251918   0.840   6.551  10.773 -0.5083  0.1604 -0.0367
10168TIP3    H151919   0.815   6.632  10.816  0.3265  0.8602 -0.8325
10168TIP3    H251920   0.780   6.544  10.698 -0.9861 -0.2817  0.3861
10169TIP3   OH251921   3.352   1.159  13.707 -0.0385 -0.2422 -0.4457
10169TIP3    H151922   3.346   1.183  13.614  0.4189 -0.3082 -0.4938
10169TIP3    H251923   3.311   1.232  13.753 -0.7102 -0.4363 -0.7297
10170TIP3   OH251924   4.409   1.265   3.397  0.5444  0.4903  0.3200
10170TIP3    H151925   4.397   1.301   3.484 -0.4576 -1.6581  1.1014
10170TIP3    H251926   4.352   1.319   3.341  0.9040  1.6306  1.0322
10171TIP3   OH251927   1.881   4.553   0.712  0.1970  0.4234 -0.1215
10171TIP3    H151928   1.899   4.460   0.701 -1.2311 -0.0267  1.2106
10171TIP3    H251929   1.962   4.589   0.750 -0.1829 -0.7756  1.8567
10172TIP3   OH251930   5.403   3.059   2.020 -0.2304 -0.6991 -0.2363
10172TIP3    H151931   5.370   3.004   1.948 -0.6368  0.8316 -1.2627
10172TIP3    H251932   5.327   3.074   2.076 -0.8181  0.9956 -1.4135
10173TIP3   OH251933   3.893   6.568   2.662  0.1491 -0.6717  0.3405
10173TIP3    H151934   3.989   6.572   2.668  0.2049 -0.1929 -0.8026
10173TIP3    H251935   3.866   6.660   2.661 -0.2717 -0.8037 -0.1849
10174TIP3   OH251936   5.494   3.695  13.295 -0.1463 -0.2439 -0.5742
10174TIP3    H151937   5.440   3.774  13.299 -1.8343 -1.4525  2.6837
10174TIP3    H251938   5.565   3.717  13.236 -0.2973  3.9371  0.6542
10175TIP3   OH251939   2.649   0.028  14.607  0.2486  0.0819 -0.0253
10175TIP3    H151940   2.698   0.107  14.631 -0.1644  0.2363  0.3088
10175TIP3    H251941   2.558   0.051  14.623  0.2494 -1.0204  1.6298
10176TIP3   OH251942   6.703   2.083  14.807  0.3804  0.6987  0.2784
10176TIP3    H151943   6.619   2.069  14.764  0.5320  1.7533 -0.3956
10176TIP3    H251944   6.690   2.161  14.861  0.6562  0.3155  0.9036
10177TIP3   OH251945   3.258   2.235  12.640 -0.3188  0.3825 -0.1599
10177TIP3    H151946   3.294   2.157  12.598 -0.7677 -0.3106  0.7318
10177TIP3    H251947   3.223   2.204  12.723 -3.3485  0.9377 -1.1624
10178TIP3   OH251948   2.041   1.906  15.569  0.0787  0.0400  0.5012
10178TIP3    H151949   2.100   1.843  15.610  0.9174  0.7193  0.3589
10178TIP3    H251950   1.953   1.875  15.590  0.4938 -0.7533  1.0629
10179TIP3   OH251951   4.533   4.193   4.763 -0.1787  0.1126  0.4387
10179TIP3    H151952   4.616   4.226   4.728 -0.5085  0.5591  0.0805
10179TIP3    H251953   4.558   4.113   4.810  0.7860  1.4614  2.2701
10180TIP3   OH251954   5.856   2.668  11.646 -0.2690 -0.2084  0.3258
10180TIP3    H151955   5.777   2.619  11.670 -0.7134  0.9465  1.2667
10180TIP3    H251956   5.844   2.688  11.553 -0.5086 -1.0979  0.1654
10181TIP3   OH251957   5.375   4.611   5.334 -0.0130 -0.3046  0.2615
10181TIP3    H151958   5.367   4.695   5.379 -1.5640  0.4470 -1.3505
10181TIP3    H251959   5.344   4.547   5.398 -0.8032  0.5808  0.7798
10182TIP3   OH251960   3.609   4.072   1.468  0.5159 -0.0321 -0.0833
10182TIP3    H151961   3.610   4.034   1.556 -2.0197 -0.9900 -0.4097
10182TIP3    H251962   3.618   4.166   1.483 -1.5570 -0.0217  1.3503
10183TIP3   OH251963   6.682   4.288  13.193 -0.0566 -0.1342 -0.1279
10183TIP3    H151964   6.657   4.378  13.175 -0.1096 -0.0669  0.2612
10183TIP3    H251965   6.700   4.249  13.107 -0.2051  0.1960 -0.3080
10184TIP3   OH251966   5.914   2.701  14.490  0.0212 -0.1600  0.1190
10184TIP3    H151967   5.933   2.795  14.494  0.3055 -0.1678 -0.8114
10184TIP3    H251968   5.995   2.662  14.457  0.2117 -0.8472  1.3646
10185TIP3   OH251969   0.847   4.769   1.447  0.2919  0.6143 -0.0340
10185TIP3    H151970   0.799   4.727   1.518 -2.1052  1.1909 -1.2337
10185TIP3    H251971   0.796   4.849   1.429  2.4782  1.9500 -0.4779
10186TIP3   OH251972   5.880   2.627  16.550 -0.4279 -0.2468 -0.2297
10186TIP3    H151973   5.803   2.638  16.606  0.6897  3.2502  0.7607
10186TIP3    H251974   5.855   2.666  16.467 -0.8994 -2.3680 -1.1329
10187TIP3   OH251975   6.711   0.093   2.928  0.2840  0.0534  0.0293
10187TIP3    H151976   6.715   0.187   2.944 -0.1765  0.2970 -1.2786
10187TIP3    H251977   6.637   0.063   2.981  0.6707  0.3504  0.7500
10188TIP3   OH251978   5.150   4.977  16.741  0.2361 -0.4974 -0.1680
10188TIP3    H151979   5.082   4.976  16.809  0.7213 -1.2636  0.3110
10188TIP3    H251980   5.208   5.048  16.766 -0.3947  0.1857 -0.5973
10189TIP3   OH251981   2.735   3.131  16.126 -0.0454  0.5241  0.1577
10189TIP3    H151982   2.767   3.166  16.209 -1.0221  0.2705  0.6441
10189TIP3    H251983   2.786   3.178  16.060  0.7782  0.6855  0.8929
10190TIP3   OH251984   1.944   1.629   0.788  0.3716 -0.0453  0.8784
10190TIP3    H151985   2.038   1.611   0.787  0.2716 -0.6578  1.8689
10190TIP3    H251986   1.914   1.601   0.702  0.7546 -1.7964  1.2925
10191TIP3   OH251987   3.371   3.047  14.437 -0.1056  0.1655 -0.1808
10191TIP3    H151988   3.280   3.058  14.467  0.3034  2.3239  0.2919
10191TIP3    H251989   3.396   2.961  14.471 -1.7305 -0.1370  0.3219
10192TIP3   OH251990   5.015   5.281  11.163 -0.5234  0.2972 -0.0359
10192TIP3    H151991   5.047   5.346  11.225 -0.3696  1.3854 -1.2446
10192TIP3    H251992   5.084   5.275  11.097 -0.7740 -0.7078 -0.2135
10193TIP3   OH251993   1.362   3.796   5.562  0.1400  0.0107  0.1245
10193TIP3    H151994   1.357   3.884   5.523 -0.4439 -0.0165  0.1287
10193TIP3    H251995   1.435   3.754   5.517 -0.0726  0.2296 -0.4342
10194TIP3   OH251996   6.134   2.712  13.926 -0.2504 -0.3573 -0.3465
10194TIP3    H151997   6.073   2.646  13.959 -0.6079 -0.2895 -0.8606
10194TIP3    H251998   6.155   2.683  13.837 -3.5695  2.3130 -2.1286
10195TIP3   OH251999   3.625   3.012  11.425  0.0374 -0.2195 -0.4907
10195TIP3    H152000   3.609   2.921  11.400  0.7931  0.1790 -2.5271
10195TIP3    H252001   3.602   3.063  11.347  3.3500  0.9909 -0.7601
10196TIP3   OH252002   5.064   3.874   4.819 -0.2313  0.3540  0.4680
10196TIP3    H152003   5.122   3.799   4.821  1.1520  1.4240  4.0847
10196TIP3    H252004   4.994   3.853   4.881 -0.8205  1.2784  0.1357
10197TIP3   OH252005   0.397   6.468   1.806 -0.3858  0.2184 -0.5051
10197TIP3    H152006   0.414   6.437   1.717 -0.8013  0.4505 -0.6672
10197TIP3    H252007   0.453   6.414   1.862  0.5503  0.6686 -0.9908
10198TIP3   OH252008   1.710   4.293   5.739  0.6194  0.3882 -0.0992
10198TIP3    H152009   1.690   4.221   5.798  1.3179 -1.1273 -1.6342
10198TIP3    H252010   1.806   4.290   5.731  0.8351  2.7378  1.3323
10199TIP3   OH252011   5.906   1.412   3.666  0.2511 -0.0685 -0.2709
10199TIP3    H152012   5.897   1.323   3.632 -1.3409 -0.3852  0.9079
10199TIP3    H252013   5.927   1.400   3.758  0.9221  0.7905 -0.3067
10200TIP3   OH252014   6.608   4.486   1.866  0.1374  0.1470  0.9716
10200TIP3    H152015   6.528   4.508   1.818  0.0934 -0.2745  0.8506
10200TIP3    H252016   6.643   4.409   1.821  0.6594  0.3859  0.9734
10201TIP3   OH252017   0.805   5.460  11.739 -0.2426 -0.3926 -0.5216
10201TIP3    H152018   0.793   5.415  11.823  0.1747 -2.1204 -1.3628
10201TIP3    H252019   0.793   5.552  11.760 -0.5431 -0.8274  1.3692
10202TIP3   OH252020   0.970   1.566  12.726  0.2216  0.1084 -0.5016
10202TIP3    H152021   1.014   1.599  12.805  1.5908  0.4909 -1.4138
10202TIP3    H252022   0.910   1.636  12.701 -0.0196  0.0998  0.0340
10203TIP3   OH252023   2.912   3.875  11.345  0.4753 -0.2679 -0.2168
10203TIP3    H152024   2.915   3.928  11.266 -1.6259 -1.7910 -1.3492
10203TIP3    H252025   2.821   3.879  11.375  0.4949 -2.3643  0.2434
10204TIP3   OH252026   0.927   3.205  13.063  0.1878  0.4297  0.5203
10204TIP3    H152027   0.850   3.248  13.098  0.2985  1.1784 -0.1458
10204TIP3    H252028   0.933   3.235  12.972  0.5763 -0.5577  0.2072
10205TIP3   OH252029   0.369   3.759   3.708  0.0647 -0.0188 -0.2185
10205TIP3    H152030   0.446   3.747   3.764  0.8364 -2.5836 -1.7441
10205TIP3    H252031   0.304   3.800   3.765  1.4233 -0.9438  2.0699
10206TIP3   OH252032   5.084   4.294   4.827 -0.3476 -0.2681 -0.0684
10206TIP3    H152033   5.067   4.383   4.799  0.2767  0.1184  0.7493
10206TIP3    H252034   5.016   4.241   4.785  0.6680  0.2540 -2.4313
10207TIP3   OH252035   0.126   1.714   1.900 -0.7348  0.1422 -0.4361
10207TIP3    H152036   0.166   1.801   1.897 -1.3696  0.4344 -0.5640
10207TIP3    H252037   0.043   1.728   1.945 -1.0196 -0.3239 -0.8152
10208TIP3   OH252038   2.018   0.019   1.981  0.5630 -0.1348  0.5240
10208TIP3    H152039   2.029   0.075   2.058 -0.6169  1.3215 -0.3383
10208TIP3    H252040   2.087  -0.047   1.989  1.0468  0.5660  2.3253
10209TIP3   OH252041   4.877   6.633   3.798  0.3893 -0.1809 -0.2679
10209TIP3    H152042   4.808   6.622   3.733  0.1261 -2.0541  0.3203
10209TIP3    H252043   4.957   6.606   3.753  0.1119 -2.1167  0.3763
10210TIP3   OH252044   1.684   4.437  11.415  0.9915 -0.1371 -0.4382
10210TIP3    H152045   1.637   4.396  11.488  0.9243  0.1526 -0.3195
10210TIP3    H252046   1.665   4.380  11.340 -3.1094  2.2751 -1.3696
10211TIP3   OH252047   6.045   3.317   1.317 -0.1598 -0.5364 -0.1809
10211TIP3    H152048   5.978   3.380   1.290 -0.2953 -1.2015 -1.4245
10211TIP3    H252049   6.123   3.370   1.333 -0.1523 -0.0936 -1.6215
10212TIP3   OH252050   3.473   4.294  15.759 -0.1964 -0.1836 -0.5986
10212TIP3    H152051   3.390   4.268  15.798 -0.7388  3.4520  0.7654
10212TIP3    H252052   3.460   4.281  15.665 -1.4308 -1.8897 -0.2292
10213TIP3   OH252053   5.087   0.967  14.671 -0.3562  0.4551  0.5202
10213TIP3    H152054   5.130   0.972  14.756  0.6747  0.6969 -0.0039
10213TIP3    H252055   4.995   0.952  14.691  0.2648 -2.0982  1.6251
10214TIP3   OH252056   1.758   4.790   4.739 -0.4361  0.1400  0.0793
10214TIP3    H152057   1.778   4.766   4.649 -0.3573  0.1022  0.1072
10214TIP3    H252058   1.687   4.730   4.764  1.0200 -1.3532  0.7636
10215TIP3   OH252059   0.633   0.370  14.096 -0.1595 -0.2779  0.0548
10215TIP3    H152060   0.682   0.355  14.177  1.9835 -0.5667 -1.2349
10215TIP3    H252061   0.655   0.460  14.071 -1.0560 -0.0816 -0.0421
10216TIP3   OH252062   2.965   5.694   2.785  0.8354 -0.0904  0.2651
10216TIP3    H152063   3.046   5.644   2.796 -0.0589 -1.5052  0.5470
10216TIP3    H252064   2.901   5.648   2.838 -0.1529  1.0672  0.1028
10217TIP3   OH252065   1.416   2.428   6.352  0.7537 -0.1740  0.2516
10217TIP3    H152066   1.370   2.452   6.432 -0.9847 -2.2972 -0.0723
10217TIP3    H252067   1.496   2.481   6.353 -0.9651  2.4443  1.5803
10218TIP3   OH252068   2.186   3.246   0.549 -0.0585  0.2632 -0.6722
10218TIP3    H152069   2.200   3.199   0.467  2.3631 -0.3392  0.0459
10218TIP3    H252070   2.200   3.180   0.617  1.5285  1.5844  0.3067
10219TIP3   OH252071   0.283   4.592   3.131  0.1194 -0.0982 -0.0209
10219TIP3    H152072   0.228   4.539   3.188 -0.7426  0.6918 -0.1087
10219TIP3    H252073   0.368   4.595   3.176 -0.7216  0.9994  1.5307
10220TIP3   OH252074   4.868   6.334   1.053 -0.8875 -0.2724 -0.3511
10220TIP3    H152075   4.858   6.240   1.039 -1.1779 -0.5019  1.2395
10220TIP3    H252076   4.915   6.365   0.976 -0.3515 -1.8057 -0.6673
10221TIP3   OH252077   3.793   1.686   1.847  0.6963 -1.0198  0.6889
10221TIP3    H152078   3.782   1.640   1.764  0.3229  1.7299 -0.8446
10221TIP3    H252079   3.887   1.686   1.863  0.8567 -0.6697 -0.2578
10222TIP3   OH252080   3.662   1.023   1.714 -0.0172  0.4841 -0.1601
10222TIP3    H152081   3.703   1.032   1.628  1.0051  2.3029  0.4854
10222TIP3    H252082   3.602   1.097   1.720 -0.1518  0.3169  0.6561
10223TIP3   OH252083   5.371   4.275  16.734 -0.2153 -0.2193  0.4786
10223TIP3    H152084   5.284   4.236  16.722  0.3063 -0.6406 -2.2131
10223TIP3    H252085   5.432   4.206  16.708  0.9613  0.1054  2.2591
10224TIP3   OH252086   1.592   5.341  15.405  0.7577 -0.1851 -0.2412
10224TIP3    H152087   1.562   5.360  15.316 -0.6468 -3.1711 -0.4570
10224TIP3    H252088   1.547   5.405  15.460 -0.5231 -0.0995 -1.3750
10225TIP3   OH252089   3.980   2.903   6.458 -0.6054  0.3083 -0.2068
10225TIP3    H152090   3.961   2.812   6.478 -0.6281  0.2198 -0.6264
10225TIP3    H252091   3.895   2.947   6.462 -0.6559  0.2301 -0.4299
10226TIP3   OH252092   0.594   4.892   0.838 -0.0418  0.0122  0.2594
10226TIP3    H152093   0.521   4.831   0.851 -1.1505  0.6554 -2.7555
10226TIP3    H252094   0.558   4.978   0.861 -0.8705  0.6077 -3.1009
10227TIP3   OH252095   6.163   5.622  12.688  0.0548  0.1956  0.3589
10227TIP3    H152096   6.131   5.661  12.770 -0.7301  1.0721 -0.3505
10227TIP3    H252097   6.147   5.690  12.622 -0.8184 -1.1355 -0.8059
10228TIP3   OH252098   1.823   3.463   1.871  0.1089  0.6766 -0.5252
10228TIP3    H152099   1.800   3.431   1.783 -1.0963  1.1197 -0.3891
10228TIP3    H252100   1.784   3.398   1.930  1.7246 -0.1256 -0.3284
10229TIP3   OH252101   0.493   1.056   4.668 -0.5505  0.2106  0.7909
10229TIP3    H152102   0.498   0.976   4.721 -1.1954  0.0634  0.6325
10229TIP3    H252103   0.584   1.086   4.663 -0.2570 -0.6752  0.6047
10230TIP3   OH252104   3.849   4.755   3.006  0.0858 -0.5457  0.3527
10230TIP3    H152105   3.925   4.729   2.954  0.5689  0.1484  0.6969
10230TIP3    H252106   3.774   4.743   2.947  0.5036 -0.8623 -0.1176
10231TIP3   OH252107   0.511   1.706   4.112  0.1854 -0.0932  0.2864
10231TIP3    H152108   0.497   1.648   4.187 -0.1833  0.9971  1.0720
10231TIP3    H252109   0.519   1.794   4.150 -0.6708  0.5577 -0.9908
10232TIP3   OH252110   0.609   5.276  11.371 -0.4096 -0.1369 -0.2205
10232TIP3    H152111   0.614   5.284  11.276  1.2630 -0.3102 -0.1622
10232TIP3    H252112   0.599   5.183  11.388  2.9761 -0.5237 -0.1223
10233TIP3   OH252113   3.717   6.126   0.910 -0.0958  0.3310 -0.0901
10233TIP3    H152114   3.717   6.209   0.861 -0.6289  0.1257 -0.4302
10233TIP3    H252115   3.769   6.146   0.988 -0.4938  1.0831 -0.0076
10234TIP3   OH252116   2.850   3.397   1.122  0.6872 -0.0178 -0.1649
10234TIP3    H152117   2.864   3.418   1.214 -1.8644  1.0042  0.0405
10234TIP3    H252118   2.869   3.478   1.075  0.3022 -0.0388 -0.3606
10235TIP3   OH252119   4.347   3.224  12.904 -0.0163 -0.6543  0.3446
10235TIP3    H152120   4.373   3.258  12.818 -1.6403  1.2930  0.5946
10235TIP3    H252121   4.364   3.130  12.898  0.9883 -0.3779 -1.6936
10236TIP3   OH252122   1.975   1.165   4.406  0.0803  0.2376 -0.3333
10236TIP3    H152123   2.018   1.111   4.473  0.0203  0.3350 -0.2165
10236TIP3    H252124   1.908   1.215   4.453  1.9740  2.4997  0.0725
10237TIP3   OH252125   3.804   4.168  11.721 -0.2862 -0.4914  0.3417
10237TIP3    H152126   3.884   4.139  11.766 -0.2699 -2.2533 -0.7776
10237TIP3    H252127   3.829   4.250  11.679  1.6306 -2.1007 -1.8019
10238TIP3   OH252128   1.191   2.515   1.942 -0.5440 -0.1854 -0.4356
10238TIP3    H152129   1.260   2.458   1.978  1.0384  1.9138 -0.0511
10238TIP3    H252130   1.239   2.581   1.892 -2.2807  1.4508  0.0270
10239TIP3   OH252131   3.361   4.845  15.567 -0.2640  0.0225 -0.6968
10239TIP3    H152132   3.350   4.881  15.479  1.6478 -1.5378 -1.6304
10239TIP3    H252133   3.388   4.920  15.620  1.0419  0.5395 -2.0215
10240TIP3   OH252134   1.952   1.208   0.044  0.6456 -0.4081  0.1347
10240TIP3    H152135   1.881   1.164  -0.004 -0.4926  1.2052  0.2994
10240TIP3    H252136   1.956   1.295   0.005  1.4367  0.0545  1.2461
10241TIP3   OH252137   2.715   4.932   3.958  0.8979  0.0785 -0.1934
10241TIP3    H152138   2.620   4.935   3.963  0.8575  3.4511 -1.8574
10241TIP3    H252139   2.733   4.871   3.886  0.0513 -1.6159  1.0134
10242TIP3   OH252140   2.654   3.696   2.412  0.0080 -0.1998 -0.8652
10242TIP3    H152141   2.579   3.730   2.363 -1.5223 -0.3119  1.3169
10242TIP3    H252142   2.635   3.602   2.422 -0.2760  0.0245  0.8823
10243TIP3   OH252143   4.678   5.098  13.726  0.0802 -0.1969 -0.1595
10243TIP3    H152144   4.688   5.137  13.639 -0.6635 -1.1290 -0.6776
10243TIP3    H252145   4.605   5.144  13.765  0.6742  0.5021  0.1362
10244TIP3   OH252146   6.329   0.661  15.126  0.2532 -0.4589 -0.0375
10244TIP3    H152147   6.275   0.603  15.180  1.2109 -1.5342 -0.2014
10244TIP3    H252148   6.307   0.637  15.036  1.4086 -1.3118 -0.1057
10245TIP3   OH252149   3.965   2.147   5.812  0.2992  0.3974 -0.3050
10245TIP3    H152150   3.880   2.174   5.779  0.0536 -0.1697 -0.1590
10245TIP3    H252151   3.961   2.165   5.906  0.7120  1.2972 -0.4581
10246TIP3   OH252152   2.239   1.739   1.261  0.1606 -0.1921  0.8714
10246TIP3    H152153   2.187   1.819   1.252  0.6559  0.3287  2.5049
10246TIP3    H252154   2.320   1.767   1.304  1.0384 -1.3005 -0.0108
10247TIP3   OH252155   5.159   0.069  14.661  0.1702 -0.2472 -0.6610
10247TIP3    H152156   5.118   0.009  14.599 -0.1731 -2.1258  1.3714
10247TIP3    H252157   5.087   0.116  14.702  0.3877  0.8296 -1.4735
10248TIP3   OH252158   5.475   3.725  15.530 -0.5915 -0.0600  0.5402
10248TIP3    H152159   5.472   3.790  15.459 -1.8468 -0.0441  0.5949
10248TIP3    H252160   5.386   3.724  15.565  0.0687  0.1086  2.2810
10249TIP3   OH252161   3.608   2.609   0.170  0.2861  0.4360  0.0084
10249TIP3    H152162   3.674   2.593   0.103 -0.8303 -1.5573 -0.6534
10249TIP3    H252163   3.649   2.582   0.252 -0.0616 -1.7934 -0.5381
10250TIP3   OH252164   6.654   0.245  17.151 -0.5639  0.6241 -0.0514
10250TIP3    H152165   6.650   0.332  17.111  1.0386  1.0014  0.5713
10250TIP3    H252166   6.727   0.202  17.107 -3.0914 -1.4755 -2.3791
10251TIP3   OH252167   1.163   3.961  10.700 -0.4241  0.1233 -0.3270
10251TIP3    H152168   1.103   3.944  10.627 -0.5440 -1.2069  0.0736
10251TIP3    H252169   1.209   3.878  10.713  1.2188  1.0124 -0.3606
10252TIP3   OH252170   3.202   3.677  12.113  0.5385 -0.3314  0.3827
10252TIP3    H152171   3.274   3.672  12.050 -0.8725  0.8345 -1.3801
10252TIP3    H252172   3.151   3.597  12.097 -0.6995  0.7395 -1.0706
10253TIP3   OH252173   4.273   4.755  11.924  0.2623  0.6346 -0.0545
10253TIP3    H152174   4.235   4.799  12.000 -1.4810 -0.1626 -0.4374
10253TIP3    H252175   4.202   4.752  11.860  1.1645 -0.3394 -1.0331
10254TIP3   OH252176   2.605   5.270   1.765  0.1097  0.1394  0.0394
10254TIP3    H152177   2.537   5.282   1.699  0.1299 -1.1158 -0.2275
10254TIP3    H252178   2.558   5.238   1.842  0.5007 -1.6185 -0.4359
10255TIP3   OH252179   1.036   4.675  13.664 -0.2471  0.0619  0.1390
10255TIP3    H152180   1.028   4.741  13.734 -1.9208  0.6144 -0.5435
10255TIP3    H252181   0.967   4.699  13.601  1.5448 -0.1359 -1.9512
10256TIP3   OH252182   3.509   1.468   1.605 -0.9325 -0.4675  0.3791
10256TIP3    H152183   3.489   1.562   1.609 -0.2697 -0.3473  0.9751
10256TIP3    H252184   3.487   1.443   1.515  0.7166  0.6833 -0.3742
10257TIP3   OH252185   0.584   2.685   1.284  0.5636  0.1851 -0.2195
10257TIP3    H152186   0.519   2.615   1.284  0.9016 -0.1375 -0.1411
10257TIP3    H252187   0.656   2.649   1.336  1.3195  0.0476 -1.3428
10258TIP3   OH252188   1.135   1.619  14.116 -0.1029 -0.2557 -0.9411
10258TIP3    H152189   1.136   1.639  14.022 -1.2536  1.6979 -0.5772
10258TIP3    H252190   1.185   1.690  14.156  2.5720 -2.4491 -0.2719
10259TIP3   OH252191   1.457   5.521   2.414  0.2550  0.1377  0.0545
10259TIP3    H152192   1.520   5.527   2.486 -0.9060 -0.8364  1.1594
10259TIP3    H252193   1.509   5.496   2.338  1.4481  0.9076  0.6104
10260TIP3   OH252194   0.859   3.742   5.760  0.1522 -0.5715  0.1812
10260TIP3    H152195   0.905   3.781   5.834  1.7383 -2.9908  0.5223
10260TIP3    H252196   0.924   3.741   5.690  0.6498 -3.9663  0.6394
10261TIP3   OH252197   5.889   0.751   0.375  0.6005  0.4084  0.3057
10261TIP3    H152198   5.975   0.716   0.350  0.4762 -0.0296  0.4790
10261TIP3    H252199   5.827   0.696   0.328  0.4465  1.6041 -0.9084
10262TIP3   OH252200   3.986   2.876   0.043 -0.5565  0.0262 -0.4508
10262TIP3    H152201   4.034   2.797   0.021 -1.7294 -0.0374 -2.8708
10262TIP3    H252202   4.050   2.931   0.089  0.1733 -2.3825  1.5244
10263TIP3   OH252203   2.179   1.430  17.139  0.0359 -0.5847  0.6270
10263TIP3    H152204   2.086   1.449  17.130  0.4741  1.7356  0.6783
10263TIP3    H252205   2.208   1.413  17.049  0.0934  1.4967  0.2099
10264TIP3   OH252206   0.861   1.595   4.202  0.2713  0.0539  0.1192
10264TIP3    H152207   0.944   1.599   4.155 -0.4118  0.9729 -1.0470
10264TIP3    H252208   0.833   1.504   4.195  0.8827 -0.1248 -0.0039
10265TIP3   OH252209   6.247   4.177   4.777 -0.7131  0.2830 -0.2822
10265TIP3    H152210   6.162   4.136   4.793 -0.2366 -2.5406 -4.3060
10265TIP3    H252211   6.307   4.129   4.834 -1.4055  0.6911  0.8150
10266TIP3   OH252212   4.353   2.219  12.519 -0.1036  0.1322  0.0214
10266TIP3    H152213   4.331   2.134  12.480  1.7799 -0.3720  0.0029
10266TIP3    H252214   4.380   2.198  12.608 -0.4274  0.8269  0.2865
10267TIP3   OH252215   0.395   0.162   3.091 -0.8688  0.6250 -0.3099
10267TIP3    H152216   0.464   0.228   3.076 -0.0940 -0.3404 -1.0617
10267TIP3    H252217   0.313   0.211   3.083 -0.2831  1.6427 -0.1707
10268TIP3   OH252218   5.657   1.143   1.406  0.2250  0.0345  0.1059
10268TIP3    H152219   5.739   1.150   1.358  0.3334 -0.9358  0.1414
10268TIP3    H252220   5.590   1.175   1.344  0.1640 -2.6162 -1.2748
10269TIP3   OH252221   3.674   6.730  11.723  0.2496 -0.3116  0.0097
10269TIP3    H152222   3.675   6.687  11.808 -1.0020 -0.2885  0.0430
10269TIP3    H252223   3.591   6.777  11.720  1.0513  1.0997 -0.5335
10270TIP3   OH252224   6.451   3.566  12.744 -0.1318  0.5796  0.2130
10270TIP3    H152225   6.437   3.586  12.836 -2.9165 -1.3025  0.2407
10270TIP3    H252226   6.428   3.647  12.698  0.2230  1.1854  1.0956
10271TIP3   OH252227   1.283   2.983   3.774  0.9256  0.2122 -0.4098
10271TIP3    H152228   1.249   3.066   3.740  0.2046  0.5310  1.0537
10271TIP3    H252229   1.205   2.931   3.791  1.4013 -1.0268 -1.9358
10272TIP3   OH252230   2.783   6.091   1.064 -0.0609 -0.5101  0.1933
10272TIP3    H152231   2.804   6.142   0.985 -1.5930 -0.5295 -0.2451
10272TIP3    H252232   2.755   6.157   1.128 -1.1085 -0.6955 -0.0611
10273TIP3   OH252233   5.379   4.823  14.988 -0.4696  0.5203  0.0159
10273TIP3    H152234   5.395   4.764  15.062  1.4545  0.6366 -0.2774
10273TIP3    H252235   5.302   4.786  14.944  0.3349 -1.4600  0.1881
10274TIP3   OH252236   6.079   1.306  13.396  0.1873  0.2766  0.5742
10274TIP3    H152237   6.009   1.372  13.397 -1.3265 -1.2598 -0.3662
10274TIP3    H252238   6.049   1.239  13.457 -1.1065 -2.2911 -2.7437
10275TIP3   OH252239   2.363   2.438  16.113  0.3664  0.5186  0.0644
10275TIP3    H152240   2.391   2.528  16.097 -0.5644  0.7473 -0.2880
10275TIP3    H252241   2.417   2.385  16.054  1.5934  0.7544  0.9697
10276TIP3   OH252242   2.117   0.400  11.433 -0.4568 -0.7292  0.1798
10276TIP3    H152243   2.024   0.387  11.452 -0.7214  1.6744  0.6960
10276TIP3    H252244   2.118   0.463  11.360  0.7483 -1.4809 -0.4612
10277TIP3   OH252245   1.060   1.817  15.849  0.2122 -0.2290 -0.1720
10277TIP3    H152246   1.011   1.770  15.782 -1.7067  2.3070 -0.6008
10277TIP3    H252247   1.005   1.814  15.927  1.6066 -1.5456  0.8129
10278TIP3   OH252248   0.184   3.363  10.440 -1.0119 -0.0022  0.0699
10278TIP3    H152249   0.120   3.309  10.485 -0.5718  0.4301  1.2155
10278TIP3    H252250   0.144   3.451  10.439 -0.9294  0.0322 -0.1999
10279TIP3   OH252251   6.017   2.018  14.772  0.3929  0.4217  0.2981
10279TIP3    H152252   5.955   1.946  14.783  2.0234 -0.9326  0.8014
10279TIP3    H252253   6.065   1.996  14.692 -0.0401  1.6820 -0.3294
10280TIP3   OH252254   3.150   1.142  11.823  0.0811 -0.3643 -0.2259
10280TIP3    H152255   3.081   1.156  11.888  0.8605  1.1295  0.3128
10280TIP3    H252256   3.175   1.050  11.833  0.4119 -0.0746  1.8281
10281TIP3   OH252257   4.572   4.377  11.398  0.3134  0.4661 -0.0282
10281TIP3    H152258   4.519   4.360  11.476  1.1826 -0.1271  0.4467
10281TIP3    H252259   4.615   4.461  11.417 -0.3972  0.9166 -0.3868
10282TIP3   OH252260   2.572   5.316  16.047  0.6092  0.1517  0.6476
10282TIP3    H152261   2.605   5.403  16.068  1.0988  0.4286 -1.1377
10282TIP3    H252262   2.489   5.333  16.000 -0.6125 -0.4387  2.5425
10283TIP3   OH252263   0.401   4.906   3.586  0.1605  0.0463  0.2127
10283TIP3    H152264   0.483   4.928   3.541 -0.7949  1.6884 -0.7850
10283TIP3    H252265   0.425   4.900   3.678  1.8649 -1.9031 -0.3179
10284TIP3   OH252266   3.659   5.662   0.402  0.0794 -0.0662 -0.8085
10284TIP3    H152267   3.606   5.708   0.466  1.0586  0.5719 -0.4407
10284TIP3    H252268   3.739   5.638   0.450  0.6047 -0.0231 -1.6488
10285TIP3   OH252269   4.861   4.192   2.701  0.0671 -0.0567 -0.0195
10285TIP3    H152270   4.956   4.183   2.693  0.0047 -0.3420 -0.4986
10285TIP3    H252271   4.847   4.230   2.787  0.7221  1.6769 -0.6580
10286TIP3   OH252272   3.534   1.306  15.431 -0.1493  0.4885  0.6661
10286TIP3    H152273   3.495   1.389  15.403  2.0336  1.5687  0.7398
10286TIP3    H252274   3.517   1.301  15.525 -2.3553 -0.3260  0.2588
10287TIP3   OH252275   5.517   5.856  17.126  0.0790 -0.6504 -0.0209
10287TIP3    H152276   5.422   5.850  17.111  0.4161 -0.5461 -2.4491
10287TIP3    H252277   5.538   5.948  17.106  0.5687 -0.4782  1.2952
10288TIP3   OH252278   2.361   1.789   0.701  0.4792 -0.3136  0.0597
10288TIP3    H152279   2.431   1.832   0.750  1.5219 -1.3815 -0.4604
10288TIP3    H252280   2.358   1.836   0.617  0.7471 -0.4282 -0.0148
10289TIP3   OH252281   2.434   5.307  16.766 -0.0089 -0.6348  0.5033
10289TIP3    H152282   2.507   5.252  16.738  0.7619 -0.6440  2.4906
10289TIP3    H252283   2.471   5.394  16.774 -0.3350 -0.5463  1.0437
10290TIP3   OH252284   4.988   6.566  13.161  0.0736 -0.0707  0.5740
10290TIP3    H152285   4.936   6.518  13.225  2.8662 -0.0140  2.9836
10290TIP3    H252286   5.026   6.498  13.106  0.5793 -0.3552  1.2678
10291TIP3   OH252287   1.862   2.664  13.734 -0.3042  0.6545  0.2272
10291TIP3    H152288   1.923   2.734  13.710 -1.6817  1.6144 -0.5751
10291TIP3    H252289   1.788   2.677  13.675 -0.2108 -2.0241 -0.5344
10292TIP3   OH252290   0.711   0.734  12.125 -0.1180 -0.0537  0.3931
10292TIP3    H152291   0.690   0.724  12.218 -1.8045  0.8187  0.1340
10292TIP3    H252292   0.673   0.819  12.101 -1.0215 -0.9253 -1.4267
10293TIP3   OH252293   3.647   6.718  15.070 -0.0582 -0.5736  0.3325
10293TIP3    H152294   3.676   6.685  15.155 -0.2778  1.2541  1.1457
10293TIP3    H252295   3.626   6.810  15.086 -1.0695 -0.4617 -1.4809
10294TIP3   OH252296   5.980   2.477  16.047 -0.1843  0.2639 -0.3221
10294TIP3    H152297   5.987   2.565  16.084 -2.0069  1.2759 -2.2266
10294TIP3    H252298   6.002   2.488  15.954 -0.9372 -1.1649 -0.6896
10295TIP3   OH252299   1.698   3.828   0.638  0.1708  0.4575 -0.4011
10295TIP3    H152300   1.751   3.863   0.566  0.2698  0.8303 -0.1532
10295TIP3    H252301   1.750   3.846   0.717  1.6774 -3.0756 -0.5312
10296TIP3   OH252302   3.156   0.516   3.302  0.1574 -0.5534 -0.1127
10296TIP3    H152303   3.132   0.473   3.220 -0.9185 -0.5886  0.2181
10296TIP3    H252304   3.145   0.449   3.369 -0.0172 -0.2107  0.2025
10297TIP3   OH252305   0.907   5.963  12.849 -0.4039 -0.5903 -0.3310
10297TIP3    H152306   0.814   5.954  12.831 -0.6664 -0.7454  1.0900
10297TIP3    H252307   0.916   6.050  12.888  0.3807  0.3753 -2.5246
10298TIP3   OH252308   3.227   1.479   0.007  0.8233 -0.2802  0.0506
10298TIP3    H152309   3.158   1.531  -0.035 -0.0586 -0.4641  1.2232
10298TIP3    H252310   3.192   1.390   0.007  0.9610 -0.3364  0.8513
10299TIP3   OH252311   4.545   5.333  13.375  0.7940 -0.5082 -0.0694
10299TIP3    H152312   4.562   5.239  13.385 -2.4285 -1.0338  1.0144
10299TIP3    H252313   4.491   5.339  13.296 -1.0805  0.1609  1.2508
10300TIP3   OH252314   3.399   2.685   2.549  0.1865 -0.6548 -0.0487
10300TIP3    H152315   3.364   2.766   2.512  2.0835 -0.0807 -0.6852
10300TIP3    H252316   3.353   2.674   2.632 -0.8214  0.5368 -0.4377
10301TIP3   OH252317   3.054   1.767  13.773 -0.9643  0.5631  0.0077
10301TIP3    H152318   2.959   1.780  13.778 -1.5756 -1.8523 -3.2116
10301TIP3    H252319   3.083   1.832  13.709 -0.3787  1.4873  1.2021
10302TIP3   OH252320   5.373   2.466  17.203  0.0081 -0.3725  0.1438
10302TIP3    H152321   5.465   2.449  17.223 -0.4198 -1.5859  1.1552
10302TIP3    H252322   5.346   2.530  17.268  0.4866  1.0108 -0.9994
10303TIP3   OH252323   5.802   0.857  10.440  0.1217 -0.6023  0.1715
10303TIP3    H152324   5.715   0.865  10.477  0.4490  0.0675  0.8139
10303TIP3    H252325   5.845   0.788  10.491  0.4298  0.0287  0.7740
10304TIP3   OH252326   3.853   5.894  16.410 -0.3357  0.0259 -0.1158
10304TIP3    H152327   3.769   5.891  16.363  0.5219  1.1316 -1.7707
10304TIP3    H252328   3.910   5.945  16.353  0.9223  0.8914  1.8595
10305TIP3   OH252329   2.064   2.681   4.900  0.1622  0.2047 -0.0175
10305TIP3    H152330   1.976   2.710   4.923 -1.4361 -1.9665 -3.0788
10305TIP3    H252331   2.093   2.745   4.834  0.0828 -0.2298 -0.4722
10306TIP3   OH252332   2.113   0.870  11.269 -0.4676  0.2667  0.1268
10306TIP3    H152333   2.031   0.919  11.269 -1.2058 -0.9552  0.2492
10306TIP3    H252334   2.181   0.937  11.277 -1.2551  1.6043 -3.2839
10307TIP3   OH252335   0.830   6.334  13.298  0.4965  0.4253 -0.3965
10307TIP3    H152336   0.758   6.378  13.253  1.6975  1.1253 -1.6404
10307TIP3    H252337   0.793   6.250  13.325 -1.2363  1.3773  0.2998
10308TIP3   OH252338   0.144   1.086   1.511  0.4511 -0.1748 -0.0073
10308TIP3    H152339   0.226   1.096   1.463  0.7522  1.5776  0.8263
10308TIP3    H252340   0.169   1.094   1.603 -0.7037  0.7753  0.2312
10309TIP3   OH252341   4.610   3.510  16.463 -0.0728 -0.0951  0.5012
10309TIP3    H152342   4.552   3.455  16.410  0.2091 -0.1206  0.2191
10309TIP3    H252343   4.595   3.599  16.431 -0.7900  0.0394  1.1978
10310TIP3   OH252344   1.178   1.879  12.218 -0.1445 -0.3415  0.3786
10310TIP3    H152345   1.175   1.825  12.297 -2.2446  0.5511  0.9430
10310TIP3    H252346   1.198   1.967  12.249 -1.6021  0.1392  0.0051
10311TIP3   OH252347   5.163   2.909   4.288 -0.1051 -0.0432 -0.2505
10311TIP3    H152348   5.095   2.973   4.306  0.2260  0.0087  0.9101
10311TIP3    H252349   5.236   2.960   4.255  1.0839  0.5769  3.0991
10312TIP3   OH252350   5.523   2.167   5.707 -0.2049  0.4671  0.0142
10312TIP3    H152351   5.494   2.222   5.634  0.7838  0.9419 -0.0348
10312TIP3    H252352   5.572   2.096   5.665  1.3225  1.3474  0.2676
10313TIP3   OH252353   0.571   5.031  16.720 -0.2497  0.1357  0.3436
10313TIP3    H152354   0.609   4.943  16.714  0.3404  0.3421  0.9229
10313TIP3    H252355   0.511   5.026  16.794 -0.8115  0.0086 -0.1156
10314TIP3   OH252356   0.755   5.443   5.603  0.4110 -0.0065  0.0566
10314TIP3    H152357   0.791   5.395   5.529 -0.2859  0.6800 -0.7482
10314TIP3    H252358   0.725   5.375   5.663 -0.1050 -0.5899 -0.8390
10315TIP3   OH252359   5.895   2.994   6.368 -0.4355  0.2440 -0.0458
10315TIP3    H152360   5.956   2.980   6.296  1.0174  0.7907  1.0448
10315TIP3    H252361   5.930   3.071   6.414 -1.5222  0.1065  1.0338
10316TIP3   OH252362   3.602   2.321   5.313 -0.2761  0.4721  0.1786
10316TIP3    H152363   3.653   2.341   5.234 -0.0271  0.9865  0.4613
10316TIP3    H252364   3.650   2.249   5.354 -0.5924 -0.0181 -0.3113
10317TIP3   OH252365   0.645   0.687  15.845 -0.3188  0.1902  0.5883
10317TIP3    H152366   0.657   0.703  15.751 -2.6347 -2.4923 -0.2454
10317TIP3    H252367   0.728   0.711  15.885  1.8216 -1.6636 -2.5835
10318TIP3   OH252368   5.160   6.272  16.492 -0.0913  0.3572 -0.0399
10318TIP3    H152369   5.164   6.340  16.425 -0.5785  1.0292  0.6025
10318TIP3    H252370   5.177   6.319  16.574  1.7883 -0.6717  0.1867
10319TIP3   OH252371   5.498   3.428  16.444  0.3745 -0.1249  0.6361
10319TIP3    H152372   5.568   3.363  16.444  2.0396  1.6097 -0.9936
10319TIP3    H252373   5.477   3.441  16.352 -1.7577 -0.2184  1.0769
10320TIP3   OH252374   1.337   5.489  13.293 -0.8042  0.4673  0.5118
10320TIP3    H152375   1.319   5.413  13.238  1.2706 -0.7814  1.5189
10320TIP3    H252376   1.340   5.563  13.233 -1.1600 -0.4884 -0.6933
10321TIP3   OH252377   5.557   1.021   3.405 -0.0521 -0.4130  0.1506
10321TIP3    H152378   5.516   1.097   3.446  0.9262 -0.1831  0.7325
10321TIP3    H252379   5.500   0.999   3.332  0.0992  1.4380 -0.5585
10322TIP3   OH252380   6.244   2.325   2.084  0.7996  0.6705  0.4727
10322TIP3    H152381   6.237   2.349   1.991 -5.3947  2.6563  1.2612
10322TIP3    H252382   6.190   2.247   2.093 -1.3803  2.4033  2.9524
10323TIP3   OH252383   4.506   0.647   2.796 -0.1373  0.1388 -0.1888
10323TIP3    H152384   4.558   0.598   2.731  0.3607 -1.5034  1.4105
10323TIP3    H252385   4.551   0.631   2.879  0.3622  3.8258  0.3242
10324TIP3   OH252386   4.716   0.208  16.637  0.0885 -0.5372 -0.4438
10324TIP3    H152387   4.729   0.296  16.672  1.4020 -0.2887 -1.5370
10324TIP3    H252388   4.804   0.173  16.626 -0.3902 -1.5265 -1.1980
10325TIP3   OH252389   2.438   0.325   1.014 -0.0854 -0.1675  0.1025
10325TIP3    H152390   2.524   0.363   0.993 -0.5033  0.1847 -1.0049
10325TIP3    H252391   2.456   0.264   1.086  0.7410  1.4782  1.3436
10326TIP3   OH252392   2.732   3.942  11.982 -0.1740  0.5427  0.1344
10326TIP3    H152393   2.812   3.974  12.024 -0.6637  3.4002 -1.0270
10326TIP3    H252394   2.683   4.021  11.959 -2.8304 -1.1272 -0.1904
10327TIP3   OH252395   6.441   6.745   6.653 -0.2020 -0.1345  0.2226
10327TIP3    H152396   6.490   6.824   6.677 -0.1907  0.2049 -0.8902
10327TIP3    H252397   6.501   6.673   6.674  0.8621  0.2856 -1.2849
10328TIP3   OH252398   1.512   3.522   3.055  0.1873  0.1794 -0.1236
10328TIP3    H152399   1.515   3.598   2.996 -0.6168  1.0133  0.8927
10328TIP3    H252400   1.442   3.543   3.117  0.2755 -1.1961  0.4498
10329TIP3   OH252401   3.503   1.145   5.231  0.0555  0.2741  0.1761
10329TIP3    H152402   3.574   1.082   5.245  0.0152  0.3360  0.6353
10329TIP3    H252403   3.488   1.184   5.316 -1.1788 -0.4143  0.2846
10330TIP3   OH252404   1.304   2.101  16.283 -0.7233 -0.3727 -0.0778
10330TIP3    H152405   1.281   2.112  16.191  0.1016 -0.6448 -0.3297
10330TIP3    H252406   1.247   2.161  16.330 -0.6516  0.3067 -0.8336
10331TIP3   OH252407   3.417   4.634   0.316 -0.7815 -0.0068  0.1459
10331TIP3    H152408   3.327   4.607   0.301 -0.8142 -0.4118  1.0203
10331TIP3    H252409   3.468   4.583   0.253 -1.0323 -0.7757  0.5585
10332TIP3   OH252410   2.714   1.518  12.762  0.1460 -0.2157  0.5193
10332TIP3    H152411   2.634   1.467  12.775  0.1864 -0.7332 -1.1884
10332TIP3    H252412   2.784   1.459  12.791 -0.0130 -0.0779  1.2046
10333TIP3   OH252413   6.055   3.023  11.138  0.1930  0.1488  0.0100
10333TIP3    H152414   6.074   2.939  11.180  1.7631 -0.2535 -1.4732
10333TIP3    H252415   5.961   3.035  11.150  0.1319 -1.3251  1.1249
10334TIP3   OH252416   0.949   6.568   1.970 -0.3393  0.3207  0.4654
10334TIP3    H152417   0.857   6.552   1.948 -0.4108  1.1350  0.1546
10334TIP3    H252418   0.960   6.529   2.057 -1.5271  2.0095  1.3988
10335TIP3   OH252419   1.042   4.416  11.936  0.0115 -0.0620  0.2381
10335TIP3    H152420   1.075   4.408  11.847 -0.7262 -2.6312  0.1745
10335TIP3    H252421   0.948   4.397  11.930 -0.7083  2.8512  1.1021
10336TIP3   OH252422   2.855   3.698  13.275  0.0031  0.1477  0.0379
10336TIP3    H152423   2.857   3.793  13.285 -2.1747  0.3428 -0.9550
10336TIP3    H252424   2.829   3.684  13.184  0.5741 -1.4035  0.0967
10337TIP3   OH252425   1.247   0.684   1.119 -0.0354 -0.1210 -0.7654
10337TIP3    H152426   1.296   0.671   1.199 -2.0559  0.0213  0.5378
10337TIP3    H252427   1.310   0.667   1.049  2.0119  0.7940  0.8238
10338TIP3   OH252428   2.496   3.104   1.970  0.0284 -0.3289  0.5865
10338TIP3    H152429   2.536   3.190   1.984 -0.0125 -0.3214  0.6637
10338TIP3    H252430   2.563   3.053   1.924 -0.4700  0.1872 -0.7428
10339TIP3   OH252431   6.186   6.160   5.875  0.5102 -0.1843  0.2000
10339TIP3    H152432   6.262   6.214   5.856  0.5955 -0.2528  0.3377
10339TIP3    H252433   6.220   6.089   5.929  0.2454  0.1071  0.7570
10340TIP3   OH252434   6.634   4.949  11.116  0.5210  0.5836  0.2390
10340TIP3    H152435   6.705   4.907  11.068 -0.5871  1.2261 -2.0318
10340TIP3    H252436   6.624   4.897  11.196  1.1886 -1.6077 -1.0714
10341TIP3   OH252437   0.919   3.837   3.771  0.1237  0.1166 -0.2576
10341TIP3    H152438   1.008   3.804   3.759  0.5273  1.4773 -1.1386
10341TIP3    H252439   0.875   3.769   3.822  1.6912 -0.5239  0.2756
10342TIP3   OH252440   0.603   1.592   0.697  0.6029 -0.0074 -0.5508
10342TIP3    H152441   0.554   1.639   0.630  2.3157  1.2254 -0.9764
10342TIP3    H252442   0.603   1.651   0.772  0.7013 -0.3838 -0.2522
10343TIP3   OH252443   1.409   1.724   4.549  0.1788  0.3324 -0.2023
10343TIP3    H152444   1.498   1.729   4.515  1.2738 -0.3792  2.4016
10343TIP3    H252445   1.378   1.815   4.549  1.4618  0.7849  0.2385
10344TIP3   OH252446   2.801   5.331   5.704 -0.1967 -0.1121  0.4875
10344TIP3    H152447   2.826   5.252   5.753 -0.4425  2.2967  4.6951
10344TIP3    H252448   2.878   5.351   5.650  0.6279 -2.0449  0.8922
10345TIP3   OH252449   5.557   3.355   2.617 -0.1700 -0.0308 -0.4890
10345TIP3    H152450   5.622   3.367   2.548 -1.0980  3.7545 -0.8047
10345TIP3    H252451   5.592   3.405   2.691 -1.2310 -0.5779  0.4007
10346TIP3   OH252452   2.032   2.322   1.448  0.1203  0.3081 -0.1520
10346TIP3    H152453   2.064   2.412   1.452 -1.5404  0.8619  1.4087
10346TIP3    H252454   2.103   2.269   1.483  0.4705  1.1905  0.4775
10347TIP3   OH252455   5.451   0.800  11.584  0.3051  0.4461 -0.3898
10347TIP3    H152456   5.414   0.862  11.647  0.1056  0.2189 -0.2803
10347TIP3    H252457   5.382   0.734  11.573  0.3593  0.4595 -0.8066
10348TIP3   OH252458   3.894   1.072   0.158  0.3842 -0.0926 -0.4498
10348TIP3    H152459   3.832   1.028   0.217 -0.8361 -1.3911 -2.5877
10348TIP3    H252460   3.851   1.154   0.134 -0.6783 -1.0823 -2.0866
10349TIP3   OH252461   4.628   3.411   3.320  0.3222  0.0283  0.2056
10349TIP3    H152462   4.633   3.358   3.240  0.0668 -0.2650  0.3813
10349TIP3    H252463   4.640   3.501   3.290 -0.6798  0.0051 -0.2863
10350TIP3   OH252464   2.757   6.421  10.433  0.2199 -0.2456  0.0262
10350TIP3    H152465   2.774   6.493  10.372 -0.0409  0.3182  0.6105
10350TIP3    H252466   2.709   6.356  10.382  0.2720  0.0910 -0.4504
10351TIP3   OH252467   5.122   1.942  11.747 -0.4146 -0.2838  0.4432
10351TIP3    H152468   5.204   1.947  11.698 -0.5486 -0.6704  0.1762
10351TIP3    H252469   5.126   2.016  11.808 -0.5764  0.6301 -0.6446
10352TIP3   OH252470   1.193   5.083   1.319 -0.0900 -0.1159  0.2120
10352TIP3    H152471   1.232   5.109   1.236 -0.2581 -0.9961 -0.1356
10352TIP3    H252472   1.250   5.122   1.385  0.3848  0.0648 -0.3065
10353TIP3   OH252473   1.899   1.293  11.082 -0.5750 -0.0174  0.1845
10353TIP3    H152474   1.900   1.205  11.120 -2.6646  0.7081  2.0548
10353TIP3    H252475   1.922   1.350  11.155  0.1286  1.0369 -0.8539
10354TIP3   OH252476   3.543   0.664   2.584  0.1956  0.1531 -0.4103
10354TIP3    H152477   3.482   0.596   2.612 -1.0702  0.5391 -2.1802
10354TIP3    H252478   3.497   0.712   2.515  0.8874  3.0832  1.0674
10355TIP3   OH252479   3.710   2.665  15.233  0.0621  0.0248 -0.2975
10355TIP3    H152480   3.667   2.587  15.198  1.1661 -0.3299 -0.8564
10355TIP3    H252481   3.798   2.663  15.196  0.2770  1.2334  0.1397
10356TIP3   OH252482   0.752   6.460   5.405  0.7351 -0.0267  0.4668
10356TIP3    H152483   0.714   6.541   5.371  0.3655 -0.8931 -1.2425
10356TIP3    H252484   0.813   6.431   5.337  0.4811 -1.4350  0.8129
10357TIP3   OH252485   3.195   3.028   3.085  0.0902  0.0492  1.4417
10357TIP3    H152486   3.157   3.112   3.112 -2.1186 -0.2681 -0.4979
10357TIP3    H252487   3.259   3.052   3.018  1.6054  0.4042  3.0038
10358TIP3   OH252488   3.153   1.194  15.826  0.2893 -0.4109  0.3319
10358TIP3    H152489   3.061   1.206  15.803  0.5747 -0.0334 -0.6538
10358TIP3    H252490   3.166   1.099  15.822 -0.0009 -0.4493  0.2479
10359TIP3   OH252491   3.988   1.596   5.490 -0.2513  0.1942 -0.0606
10359TIP3    H152492   3.965   1.689   5.486 -0.0697  0.2274 -0.4462
10359TIP3    H252493   3.941   1.562   5.565  0.6745  0.8885  0.8590
10360TIP3   OH252494   1.300   6.355   2.867  0.0156  0.1427 -0.5854
10360TIP3    H152495   1.359   6.294   2.823  1.2786  0.1201  1.1265
10360TIP3    H252496   1.234   6.299   2.908  1.1755 -0.0739  0.9869
10361TIP3   OH252497   0.511   3.832   6.271 -0.2022  0.4624  0.0085
10361TIP3    H152498   0.545   3.755   6.316 -1.0809  1.0544  1.7187
10361TIP3    H252499   0.585   3.894   6.272  0.0162  0.2043 -0.0293
10362TIP3   OH252500   6.780   3.115  13.681  0.5028 -0.2277  0.4281
10362TIP3    H152501   6.778   3.152  13.592 -2.3618  2.4598  1.5248
10362TIP3    H252502   6.873   3.102  13.699  1.2077  0.2578 -2.5496
10363TIP3   OH252503   4.433   1.364  12.061 -0.2072 -0.2821 -0.1834
10363TIP3    H152504   4.437   1.376  11.966 -0.0455  1.4247  0.0111
10363TIP3    H252505   4.466   1.447  12.096 -0.4206 -0.8433  1.3595
10364TIP3   OH252506   0.337   3.161   2.672  0.1482  0.3220 -0.3857
10364TIP3    H152507   0.419   3.208   2.684  0.3659  0.0877 -0.9295
10364TIP3    H252508   0.310   3.181   2.582  0.4030 -0.8260 -0.7320
10365TIP3   OH252509   5.409   2.714   4.530 -0.4089 -0.1047 -0.7797
10365TIP3    H152510   5.462   2.783   4.490 -0.4671  0.8721  0.7821
10365TIP3    H252511   5.319   2.748   4.527 -0.3688  0.1248  0.4612
10366TIP3   OH252512   0.809   3.864   0.631  0.4851  0.7528 -0.1325
10366TIP3    H152513   0.811   3.769   0.643 -1.0830  0.6115 -0.9202
10366TIP3    H252514   0.894   3.885   0.592  0.5612 -0.4244 -0.6108
10367TIP3   OH252515   3.243   5.410   0.752  0.4423  0.1189  0.4751
10367TIP3    H152516   3.176   5.343   0.759  1.2996 -0.8438 -0.3729
10367TIP3    H252517   3.264   5.415   0.658  2.1359 -0.1971  0.8103
10368TIP3   OH252518   5.811   1.810  12.839 -0.5182  0.4778 -0.8780
10368TIP3    H152519   5.892   1.765  12.817 -1.2239 -0.4860 -1.5549
10368TIP3    H252520   5.816   1.823  12.934 -0.0865 -0.5958 -0.7483
10369TIP3   OH252521   1.867   3.787   4.963  0.7475 -0.5951 -0.3388
10369TIP3    H152522   1.936   3.743   4.913  0.8868 -1.5586  0.6701
10369TIP3    H252523   1.787   3.773   4.911  0.9154 -1.4561 -0.3724
10370TIP3   OH252524   4.010   3.356   2.003 -0.1937  0.4061 -0.4482
10370TIP3    H152525   4.067   3.416   1.957 -1.6205  1.3746 -1.0016
10370TIP3    H252526   4.062   3.325   2.077  0.9468  1.4430 -0.8054
10371TIP3   OH252527   2.662   2.673   5.603  0.4599 -0.0346 -0.0875
10371TIP3    H152528   2.664   2.643   5.694 -0.0862 -1.1013 -0.4219
10371TIP3    H252529   2.628   2.763   5.609 -0.9813 -0.6043  0.6405
10372TIP3   OH252530   4.280   2.443  13.196 -0.0912  0.3209 -0.0865
10372TIP3    H152531   4.206   2.447  13.136 -0.0308  0.4303 -0.1527
10372TIP3    H252532   4.356   2.470  13.144  0.2814 -1.4262 -0.4718
10373TIP3   OH252533   5.357   4.286  16.989  0.2285  0.2270 -0.4463
10373TIP3    H152534   5.358   4.303  16.895 -2.2499 -0.3151 -0.6065
10373TIP3    H252535   5.264   4.276  17.010  0.7492  0.5563  2.0980
10374TIP3   OH252536   5.763   6.483  16.351 -0.0883  0.2895 -0.1782
10374TIP3    H152537   5.687   6.474  16.408  1.0001 -0.3483  1.1931
10374TIP3    H252538   5.740   6.434  16.272 -1.4614  0.8973 -0.1670
10375TIP3   OH252539   4.301   4.136  10.721 -0.2763  0.4176  0.4285
10375TIP3    H152540   4.208   4.156  10.716 -0.7422 -1.5517  0.9800
10375TIP3    H252541   4.339   4.208  10.772 -1.1291  2.3147 -1.5452
10376TIP3   OH252542   0.003   1.394  12.984  0.2649 -0.3243  0.0689
10376TIP3    H152543   0.020   1.315  12.933  1.9425 -0.1645  0.3554
10376TIP3    H252544   0.087   1.415  13.024 -0.2050  1.5313  0.1069
10377TIP3   OH252545   4.913   4.543  11.547  0.2776 -0.1099 -0.0146
10377TIP3    H152546   4.899   4.573  11.457 -1.8615  0.6120  0.5161
10377TIP3    H252547   4.880   4.615  11.601  1.0942 -0.7424  1.3385
10378TIP3   OH252548   5.258   1.921   6.497  0.4868 -0.1102 -0.2155
10378TIP3    H152549   5.311   1.900   6.420  1.1607 -2.6768  0.9202
10378TIP3    H252550   5.181   1.865   6.489 -0.5742  1.2961 -0.1802
10379TIP3   OH252551   2.734   0.535   5.189 -0.1688  0.2297 -0.1933
10379TIP3    H152552   2.664   0.517   5.126 -0.5461 -0.9468  0.5431
10379TIP3    H252553   2.807   0.480   5.161  0.2125  0.9223 -0.5487
10380TIP3   OH252554   2.116   2.387   6.495 -0.1611 -0.3577 -0.4469
10380TIP3    H152555   2.159   2.462   6.534 -0.4876 -1.8010  2.8277
10380TIP3    H252556   2.029   2.419   6.471  0.1377  0.6319 -0.2381
10381TIP3   OH252557   5.927   5.712  16.129  0.4294  0.1814  0.9158
10381TIP3    H152558   5.985   5.701  16.054  1.1578  0.4520  1.4295
10381TIP3    H252559   5.922   5.625  16.169  0.2578  0.0976  0.7115
10382TIP3   OH252560   2.844   1.550  12.346  0.5979 -0.1198  0.3121
10382TIP3    H152561   2.906   1.619  12.324  0.8585 -0.9293 -1.6780
10382TIP3    H252562   2.892   1.493  12.406  0.8024  0.7446  0.9789
10383TIP3   OH252563   5.632   3.441   1.540 -0.0373 -0.0170 -0.3725
10383TIP3    H152564   5.618   3.430   1.634 -1.8100 -0.0747 -0.6285
10383TIP3    H252565   5.617   3.354   1.503 -0.2828  0.2184 -0.8265
10384TIP3   OH252566   2.721   0.364  15.685  0.5026  0.0151  0.0585
10384TIP3    H152567   2.741   0.274  15.712  0.5040  0.1803  0.5987
10384TIP3    H252568   2.775   0.419  15.742  0.7805  0.3472 -0.5200
10385TIP3   OH252569   5.737   2.729   5.770  0.1392  0.6746 -0.0430
10385TIP3    H152570   5.684   2.763   5.842 -0.7540  0.2500 -0.4875
10385TIP3    H252571   5.702   2.642   5.753  0.4569  0.6998 -0.8719
10386TIP3   OH252572   0.461   5.037  11.487 -0.3611 -0.3024 -0.5764
10386TIP3    H152573   0.487   4.948  11.511  1.3902  0.0255 -1.1790
10386TIP3    H252574   0.478   5.089  11.564 -0.4330 -0.3092 -0.5554
10387TIP3   OH252575   0.723   2.440   6.147  0.3472  0.1084  0.1852
10387TIP3    H152576   0.722   2.452   6.052 -1.2844  1.8832  0.3849
10387TIP3    H252577   0.693   2.350   6.160 -0.5580  0.2202 -0.9612
10388TIP3   OH252578   6.300   0.796   5.817  0.4151 -0.2443  0.3051
10388TIP3    H152579   6.348   0.730   5.768  1.3985  0.1042  0.7970
10388TIP3    H252580   6.316   0.775   5.909 -1.0810 -0.6447  0.4943
10389TIP3   OH252581   1.460   4.780  12.001  0.2991  0.2279 -0.4129
10389TIP3    H152582   1.509   4.861  11.991  2.8836 -1.3831 -1.5232
10389TIP3    H252583   1.513   4.727  12.061  0.9439 -2.2353 -3.0313
10390TIP3   OH252584   2.617   6.065  14.799  0.6293  0.1804 -0.1895
10390TIP3    H152585   2.615   6.154  14.833  1.7870 -0.0074  0.3900
10390TIP3    H252586   2.544   6.021  14.842  0.2069  0.7771 -0.2927
10391TIP3   OH252587   1.177   3.744   0.529  0.3615  0.4042  0.2009
10391TIP3    H152588   1.166   3.836   0.554 -0.0019  0.5517 -0.4720
10391TIP3    H252589   1.140   3.739   0.440  0.9440 -0.2570 -0.0088
10392TIP3   OH252590   3.204   1.337   1.294 -0.3745  0.2417 -0.1400
10392TIP3    H152591   3.244   1.378   1.218  0.7886  0.4020  0.5498
10392TIP3    H252592   3.227   1.394   1.368 -0.2349 -0.6914  0.5554
10393TIP3   OH252593   5.462   0.283   4.969 -0.2460  0.3443  0.2924
10393TIP3    H152594   5.517   0.204   4.966  2.0942  1.9474  0.0019
10393TIP3    H252595   5.376   0.253   4.941  0.4007 -2.2934  1.0086
10394TIP3   OH252596   4.408   3.042  15.581  0.4458  0.0449 -0.5075
10394TIP3    H152597   4.350   3.110  15.615  0.3286  0.3266 -1.2475
10394TIP3    H252598   4.373   2.960  15.616 -1.3029  0.0603 -2.1137
10395TIP3   OH252599   6.135   2.458   5.644  0.2249 -0.1965  0.0408
10395TIP3    H152600   6.208   2.399   5.660 -1.3422 -2.0828  0.5260
10395TIP3    H252601   6.136   2.519   5.717  0.9389 -0.5832  0.3544
10396TIP3   OH252602   4.401   1.970  11.796 -0.1710  0.2842 -0.4079
10396TIP3    H152603   4.357   1.898  11.751  0.5483  0.1074 -0.8163
10396TIP3    H252604   4.493   1.962  11.772  0.4846 -0.6756  2.2021
10397TIP3   OH252605   5.681   2.847  13.101  0.1792 -0.2522  0.4658
10397TIP3    H152606   5.639   2.933  13.095 -1.1676 -0.9940 -1.2116
10397TIP3    H252607   5.611   2.785  13.080  2.4732 -1.4615 -4.5138
10398TIP3   OH252608   6.562   4.799   5.613  0.1424 -0.0384  0.0070
10398TIP3    H152609   6.523   4.800   5.525 -1.0522 -0.9071  0.5153
10398TIP3    H252610   6.628   4.868   5.610 -1.2776  1.3264 -0.9566
10399TIP3   OH252611   5.813   6.608  10.914 -0.8885  0.1499  0.5331
10399TIP3    H152612   5.854   6.592  10.829 -0.6404 -0.5095  0.7754
10399TIP3    H252613   5.862   6.682  10.950 -1.4438  0.8768 -0.1928
10400TIP3   OH252614   5.054   4.245  14.028  0.0595  0.1352  0.3467
10400TIP3    H152615   4.968   4.265  13.993  0.5367 -2.2748 -2.3638
10400TIP3    H252616   5.112   4.312  13.990 -0.1257  0.0121 -0.1526
10401TIP3   OH252617   3.193   6.663   2.630 -0.2437  0.6616  0.1395
10401TIP3    H152618   3.249   6.586   2.621 -0.8426 -0.0031  2.0440
10401TIP3    H252619   3.244   6.724   2.683 -1.6387 -0.2840  2.6065
10402TIP3   OH252620   5.318   1.239   6.312 -0.0433  0.3333  0.8197
10402TIP3    H152621   5.301   1.166   6.253  1.0871  1.6245 -1.1563
10402TIP3    H252622   5.359   1.199   6.389 -1.6196 -1.3810  0.8007
10403TIP3   OH252623   1.082   4.403   4.713 -0.4811  0.2748  0.3117
10403TIP3    H152624   1.064   4.317   4.676 -0.8211  0.3440  0.3120
10403TIP3    H252625   0.995   4.440   4.733 -0.3702  0.9214 -0.3741
10404TIP3   OH252626   3.901   6.449  11.939 -0.1368 -0.7278 -0.0903
10404TIP3    H152627   3.993   6.447  11.967 -0.0547 -0.1645 -0.2970
10404TIP3    H252628   3.851   6.443  12.020  0.0974  1.8405  0.2765
10405TIP3   OH252629   3.999   2.867   1.598 -0.3213 -0.2091 -0.5092
10405TIP3    H152630   3.921   2.908   1.636  0.7206  0.8431  0.5491
10405TIP3    H252631   4.050   2.941   1.565  0.7608 -0.8003 -0.1708
10406TIP3   OH252632   0.218   2.006   0.701 -0.3838 -0.1478 -0.0424
10406TIP3    H152633   0.277   1.935   0.676  0.2139  0.1841  0.4004
10406TIP3    H252634   0.222   2.008   0.797 -1.9566 -0.8298  0.0636
10407TIP3   OH252635   4.675   6.315   1.924  0.1007  0.6285  0.3690
10407TIP3    H152636   4.693   6.345   1.835  1.3618  1.2104  0.7974
10407TIP3    H252637   4.612   6.378   1.958  0.1855  0.8457  0.1277
10408TIP3   OH252638   1.159   2.307  14.559  0.4289 -0.0639  0.1525
10408TIP3    H152639   1.143   2.398  14.583  1.1886 -0.3165  1.7047
10408TIP3    H252640   1.201   2.312  14.473 -0.3827  0.9993 -0.1928
10409TIP3   OH252641   3.503   4.736   1.299 -0.4291 -0.1858 -0.3742
10409TIP3    H152642   3.411   4.758   1.315 -1.1440 -1.8101 -2.0844
10409TIP3    H252643   3.529   4.794   1.227  0.1348  0.8152  0.6191
10410TIP3   OH252644   6.695   2.045   0.948  0.0074  0.1619 -0.1797
10410TIP3    H152645   6.773   2.081   0.907  0.3466  0.3592  0.6385
10410TIP3    H252646   6.724   2.016   1.034 -0.0792 -2.7549 -1.0670
10411TIP3   OH252647   1.352   2.631   1.590 -0.4435  0.0789  0.4784
10411TIP3    H152648   1.325   2.539   1.588  2.9349 -0.9505 -0.0521
10411TIP3    H252649   1.334   2.663   1.502  0.7488 -0.7880 -0.0816
10412TIP3   OH252650   2.259   1.781   5.009 -0.4414  0.2121  0.4429
10412TIP3    H152651   2.226   1.692   4.999 -1.4027  0.4243  1.7622
10412TIP3    H252652   2.228   1.826   4.931 -0.1562 -0.5269 -0.1141
10413TIP3   OH252653   3.192   5.554   5.669  0.0681  0.4787  0.3413
10413TIP3    H152654   3.175   5.628   5.612 -1.8301  0.2135  0.5525
10413TIP3    H252655   3.263   5.585   5.727  0.6108  1.4356 -0.8171
10414TIP3   OH252656   1.451   6.078   3.355  0.3594  0.0516  0.4122
10414TIP3    H152657   1.371   6.050   3.400  1.0933 -0.3358  1.5069
10414TIP3    H252658   1.427   6.159   3.312 -0.5359  0.1261  1.0310
10415TIP3   OH252659   4.684   0.694   0.469  0.2291  0.7995  0.4282
10415TIP3    H152660   4.754   0.759   0.476 -0.5861  1.5375  1.8219
10415TIP3    H252661   4.657   0.678   0.559 -0.0127 -1.0267  0.0568
10416TIP3   OH252662   2.254   6.260  16.658 -0.1869  0.6437 -0.4294
10416TIP3    H152663   2.221   6.190  16.715  0.0918 -0.6816 -1.8540
10416TIP3    H252664   2.246   6.339  16.711 -1.4269 -0.3136  0.8789
10417TIP3   OH252665   1.294   5.788   5.591 -0.2139 -0.3260  0.0138
10417TIP3    H152666   1.364   5.851   5.608  0.4139 -1.4013  1.4499
10417TIP3    H252667   1.214   5.834   5.618  0.3111 -0.3987  1.6829
10418TIP3   OH252668   4.482   6.419   2.794  0.2641 -0.2239  0.0880
10418TIP3    H152669   4.436   6.464   2.723 -1.0793  0.5859  1.4377
10418TIP3    H252670   4.563   6.470   2.806  0.2280 -0.0309 -0.4874
10419TIP3   OH252671   1.649   5.213   3.473  0.3017  0.0081 -0.2028
10419TIP3    H152672   1.730   5.228   3.424  0.1808  1.2469 -0.0402
10419TIP3    H252673   1.674   5.221   3.565  0.2404 -0.8583 -0.1095
10420TIP3   OH252674   1.802   2.780  12.522  0.0982  0.8844  0.0705
10420TIP3    H152675   1.796   2.864  12.569  2.0492  1.1417 -0.1068
10420TIP3    H252676   1.872   2.733  12.567  0.5558  0.2726 -1.2609
10421TIP3   OH252677   6.129   1.183   2.205 -1.1063 -0.1368  0.5010
10421TIP3    H152678   6.060   1.154   2.145  1.7062 -0.9054 -2.4637
10421TIP3    H252679   6.191   1.110   2.208  0.8491  1.4959  1.1747
10422TIP3   OH252680   1.452   4.769   1.275 -0.1325 -0.1983  0.6961
10422TIP3    H152681   1.386   4.806   1.333  0.2237 -3.5587  3.4258
10422TIP3    H252682   1.531   4.820   1.293 -0.7240  0.5687  1.1346
10423TIP3   OH252683   0.445   0.692   5.953  0.1734  0.2087  0.1585
10423TIP3    H152684   0.392   0.620   5.919  0.2549 -0.0702  0.6204
10423TIP3    H252685   0.470   0.664   6.041 -0.4072  1.1243  0.6201
10424TIP3   OH252686   4.181   5.010   3.765  0.1057 -0.4811  0.1772
10424TIP3    H152687   4.219   4.933   3.721 -0.6934  1.0149 -3.3278
10424TIP3    H252688   4.086   4.994   3.762 -0.0991  0.9292 -1.1691
10425TIP3   OH252689   2.873   0.972   2.660 -0.2034 -0.0556  0.5201
10425TIP3    H152690   2.925   0.985   2.739 -1.0027 -0.3210  1.0991
10425TIP3    H252691   2.827   0.889   2.675 -1.4244  0.5889  0.3794
10426TIP3   OH252692   2.148   3.985  17.227  0.6958 -0.1771 -0.8164
10426TIP3    H152693   2.112   3.900  17.201 -1.5296  0.2014  0.8277
10426TIP3    H252694   2.127   4.043  17.154 -1.5341 -0.1328 -0.2028
10427TIP3   OH252695   0.163   1.401  14.697 -0.4705 -0.0304  0.1972
10427TIP3    H152696   0.179   1.382  14.605 -0.3162 -1.0165  0.4141
10427TIP3    H252697   0.229   1.465  14.721 -0.2766 -0.0511 -0.2808
10428TIP3   OH252698   0.595   2.495   6.469 -0.1035 -0.4915  0.0569
10428TIP3    H152699   0.598   2.400   6.481  0.1862 -0.4222  0.5216
10428TIP3    H252700   0.653   2.530   6.536  0.0469 -0.0015 -0.3256
10429TIP3   OH252701   4.456   0.573   3.397 -0.3751  0.1340 -0.2829
10429TIP3    H152702   4.382   0.634   3.396 -0.7836 -0.3132  1.0618
10429TIP3    H252703   4.416   0.488   3.378 -0.5370 -0.4176  2.3392
10430TIP3   OH252704   6.450   4.537   1.053 -0.0069  0.1017 -0.0519
10430TIP3    H152705   6.490   4.453   1.032  0.4466 -0.2388  2.1448
10430TIP3    H252706   6.513   4.581   1.110 -1.6348  0.5950  1.4086
10431TIP3   OH252707   2.533   2.921   0.826  0.2238  0.3771  0.1241
10431TIP3    H152708   2.454   2.868   0.836 -0.2066  0.4243 -2.5735
10431TIP3    H252709   2.589   2.869   0.768  1.3708  1.2196  0.4576
10432TIP3   OH252710   3.539   2.756  11.404 -0.3784  0.2900 -0.1847
10432TIP3    H152711   3.545   2.689  11.335 -1.7124  0.2322 -0.2608
10432TIP3    H252712   3.446   2.780  11.406 -0.2448  0.7348  1.1831
10433TIP3   OH252713   5.276   5.296   5.378 -0.2115  0.4096 -0.0843
10433TIP3    H152714   5.348   5.275   5.319 -1.7357 -0.2729 -1.7865
10433TIP3    H252715   5.296   5.249   5.459  0.2593 -1.3988 -1.2216
10434TIP3   OH252716   6.192   3.021   1.629 -0.0303  0.3485 -0.3398
10434TIP3    H152717   6.187   3.010   1.534  0.0221 -2.1385 -0.0818
10434TIP3    H252718   6.106   3.057   1.653 -1.0645 -1.6075 -1.0181
10435TIP3   OH252719   4.993   0.606  15.494  0.3753  0.1726 -0.0308
10435TIP3    H152720   4.963   0.574  15.409 -0.9253 -0.7977  0.7637
10435TIP3    H252721   5.086   0.585  15.496  0.5701  0.8544 -1.5011
10436TIP3   OH252722   4.500   0.503  17.117  0.4495 -0.5673  0.2742
10436TIP3    H152723   4.529   0.443  17.048 -0.0613 -2.1384  1.4139
10436TIP3    H252724   4.540   0.469  17.197 -0.7095 -0.0112  1.0956
10437TIP3   OH252725   6.199   3.886   4.692 -0.2598 -0.1606 -0.0027
10437TIP3    H152726   6.158   3.822   4.633  1.8633 -0.8820 -0.7339
10437TIP3    H252727   6.133   3.955   4.702 -0.8936 -0.3099 -2.7397
10438TIP3   OH252728   3.096   3.847   0.477  0.1781  0.2158 -0.2696
10438TIP3    H152729   3.149   3.880   0.404 -1.2592  0.6174 -1.1526
10438TIP3    H252730   3.088   3.922   0.536 -0.1245  0.4143 -0.5588
10439TIP3   OH252731   2.851   3.390   4.278 -0.0234 -0.2471 -0.1143
10439TIP3    H152732   2.774   3.396   4.221  0.6333 -0.5450 -1.0450
10439TIP3    H252733   2.817   3.402   4.366 -1.1730 -0.5922 -0.5067
10440TIP3   OH252734   4.510   0.952  11.048  0.1332 -0.1404  0.1619
10440TIP3    H152735   4.417   0.936  11.028  1.1054 -5.2376 -0.9395
10440TIP3    H252736   4.555   0.938  10.965  1.9677  2.1904  0.7131
10441TIP3   OH252737   0.175   3.517   1.309 -0.4226 -0.5184  0.5238
10441TIP3    H152738   0.082   3.512   1.288  0.0115  0.2565 -1.7544
10441TIP3    H252739   0.201   3.604   1.280  0.8732 -0.4530  1.8169
10442TIP3   OH252740   4.182   6.042  14.469 -0.7183 -0.6428  0.2481
10442TIP3    H152741   4.188   6.003  14.556 -1.5211  1.4442  1.2597
10442TIP3    H252742   4.104   6.098  14.473  0.0469  0.5602 -1.3741
10443TIP3   OH252743   0.614   5.583   6.413 -0.3158  0.1687  0.0916
10443TIP3    H152744   0.675   5.623   6.475  0.1346 -0.1930 -0.1170
10443TIP3    H252745   0.548   5.541   6.468 -1.4187  2.1427  0.3118
10444TIP3   OH252746   4.497   6.015   5.359 -0.3228  0.6504 -0.6171
10444TIP3    H152747   4.521   5.933   5.315 -1.8676  1.7385 -3.6157
10444TIP3    H252748   4.546   6.083   5.311 -2.1841  1.8904 -0.8086
10445TIP3   OH252749   4.277   0.085  14.573 -0.4108  0.2915 -0.1317
10445TIP3    H152750   4.272   0.179  14.553  0.9969  0.1935 -0.9570
10445TIP3    H252751   4.188   0.053  14.555 -1.3486  1.7341  1.6776
10446TIP3   OH252752   6.116   5.393   2.241 -0.1755  0.1954  0.5287
10446TIP3    H152753   6.033   5.417   2.201  0.2765  0.2099 -0.4276
10446TIP3    H252754   6.095   5.322   2.301 -1.0389  0.8909  1.0663
10447TIP3   OH252755   6.316   0.184  14.796 -0.2579 -0.0308  0.5515
10447TIP3    H152756   6.391   0.124  14.788 -0.5121 -0.7681  3.4272
10447TIP3    H252757   6.277   0.184  14.708  2.2014 -0.8069 -0.6054
10448TIP3   OH252758   5.594   4.256  12.584 -0.6810 -0.9929  0.3426
10448TIP3    H152759   5.603   4.199  12.660 -0.5405 -2.3808 -0.6922
10448TIP3    H252760   5.533   4.210  12.526 -1.0743  0.2205 -0.2122
10449TIP3   OH252761   2.158   3.186  16.320  0.1444  0.0514 -0.7024
10449TIP3    H152762   2.197   3.151  16.400  1.2464  0.3412 -1.1012
10449TIP3    H252763   2.099   3.117  16.289 -1.3572  0.4872  1.0961
10450TIP3   OH252764   0.491   0.051   2.619  0.6505 -0.0023  0.3187
10450TIP3    H152765   0.484   0.073   2.712  0.6445 -0.6838  0.4839
10450TIP3    H252766   0.576   0.008   2.611  0.2030 -0.8853  0.2055
10451TIP3   OH252767   4.069   5.038   2.736  0.5682 -0.0680  0.1296
10451TIP3    H152768   4.081   4.957   2.786  2.3874  0.3732  0.4404
10451TIP3    H252769   4.043   5.103   2.802  1.8482  0.2457  0.3363
10452TIP3   OH252770   3.408   4.709  13.859 -0.4128 -0.0790  0.2007
10452TIP3    H152771   3.456   4.673  13.934  1.8659  0.5342 -0.8957
10452TIP3    H252772   3.335   4.649  13.845 -0.7724 -0.2961  2.7979
10453TIP3   OH252773   6.333   2.364  12.270  0.6559 -0.2904  0.1523
10453TIP3    H152774   6.257   2.421  12.257  2.0102  1.5187 -0.0950
10453TIP3    H252775   6.374   2.359  12.184  2.2778  0.9259  0.8234
10454TIP3   OH252776   4.887   1.329  14.094 -0.5215  0.3592  0.1692
10454TIP3    H152777   4.833   1.398  14.132 -0.2743 -0.2246  1.5980
10454TIP3    H252778   4.969   1.333  14.142 -0.7453 -1.3520  0.7173
10455TIP3   OH252779   4.356   3.650  13.645 -0.0074 -0.2354 -0.5829
10455TIP3    H152780   4.358   3.565  13.688 -1.0311  0.2365  0.4148
10455TIP3    H252781   4.448   3.678  13.643  0.1827 -0.7849  0.2313
10456TIP3   OH252782   4.244   5.412  16.936 -0.2229 -0.1031 -0.1534
10456TIP3    H152783   4.268   5.332  16.984 -1.9664 -0.0922  0.7799
10456TIP3    H252784   4.322   5.433  16.885  0.4875 -2.0500  0.0729
10457TIP3   OH252785   5.892   4.375   5.148 -0.0559 -0.2198  0.1762
10457TIP3    H152786   5.797   4.373   5.141  0.0776 -0.9568 -1.6354
10457TIP3    H252787   5.916   4.466   5.132 -0.4135 -0.1448  0.0614
10458TIP3   OH252788   6.490   5.258   5.599  0.2209 -0.1632 -0.4093
10458TIP3    H152789   6.421   5.210   5.644  1.4922 -1.6536  0.0030
10458TIP3    H252790   6.570   5.236   5.647  1.0437  1.2429 -1.0985
10459TIP3   OH252791   0.905   3.487   3.574  0.6414  0.3980 -0.3991
10459TIP3    H152792   0.940   3.406   3.610  2.3671  0.3009 -2.2654
10459TIP3    H252793   0.821   3.498   3.619 -0.3091 -3.1662 -1.1264
10460TIP3   OH252794   4.809   2.444  11.566  0.3004  0.2208  0.0167
10460TIP3    H152795   4.771   2.380  11.627 -1.0277 -0.7577 -1.7842
10460TIP3    H252796   4.902   2.422  11.563  0.4678  0.5770  2.0208
10461TIP3   OH252797   3.921   3.818   1.558  0.5528 -0.3227 -0.5734
10461TIP3    H152798   3.850   3.793   1.618  0.6294 -1.3015 -0.8838
10461TIP3    H252799   3.956   3.735   1.527  2.0997  0.1515 -0.1229
10462TIP3   OH252800   5.394   4.157  16.356 -0.3111  0.4115 -0.7451
10462TIP3    H152801   5.388   4.085  16.292 -1.0287  0.7881 -1.1127
10462TIP3    H252802   5.441   4.120  16.430  0.8194  0.0603 -1.6354
10463TIP3   OH252803   1.065   4.232  14.298 -0.6204 -0.1565 -0.4887
10463TIP3    H152804   1.153   4.196  14.307 -0.9605 -0.8026  0.4089
10463TIP3    H252805   1.008   4.155  14.300 -1.2429  0.3047 -0.3602
10464TIP3   OH252806   0.309   6.150   3.938 -1.2096 -0.2064  0.2588
10464TIP3    H152807   0.223   6.174   3.972 -2.1424 -1.1127 -1.3925
10464TIP3    H252808   0.301   6.159   3.843  0.7294  0.3592  0.1271
10465TIP3   OH252809   6.127   2.936   5.600 -1.0437  0.4473  0.3123
10465TIP3    H152810   6.193   2.993   5.562 -1.9479  0.4447 -1.2887
10465TIP3    H252811   6.087   2.987   5.670  1.0691  0.2228  1.7354
10466TIP3   OH252812   5.418   0.584  13.519  0.1126  0.3551 -0.0203
10466TIP3    H152813   5.389   0.499  13.488  1.0685 -0.0696  0.2401
10466TIP3    H252814   5.402   0.643  13.445  4.0443 -0.9716 -2.0474
10467TIP3   OH252815   1.974   1.624  13.045  0.6218 -0.7198  0.2714
10467TIP3    H152816   1.988   1.673  13.127  0.3134 -0.3916  0.1275
10467TIP3    H252817   1.935   1.541  13.074 -0.5130 -0.1604  0.3727
10468TIP3   OH252818   2.293   5.892   0.586 -0.7557  0.5108  0.4621
10468TIP3    H152819   2.207   5.858   0.561 -1.1067  1.9066 -0.2142
10468TIP3    H252820   2.278   5.934   0.671 -1.0779  2.0894 -0.3570
10469TIP3   OH252821   2.996   5.363  16.998  0.6061 -0.3506 -0.3994
10469TIP3    H152822   2.954   5.284  16.963  1.0166 -1.3095  1.2405
10469TIP3    H252823   3.010   5.419  16.921  0.3812 -1.8994 -1.5850
10470TIP3   OH252824   0.561   5.002   4.746 -0.3726  0.7542 -0.6870
10470TIP3    H152825   0.522   5.055   4.677  1.2789  2.3034 -0.4814
10470TIP3    H252826   0.656   5.006   4.730 -0.1303 -1.1243  0.0718
10471TIP3   OH252827   1.869   2.057  14.976  0.2391 -0.5509 -0.2354
10471TIP3    H152828   1.880   2.082  14.884  0.4837 -1.8590 -0.5659
10471TIP3    H252829   1.813   1.980  14.973  0.7618 -0.9594  0.6817
10472TIP3   OH252830   5.032   6.199  14.654 -0.7368 -0.4058 -0.5680
10472TIP3    H152831   4.989   6.275  14.693  0.7846 -0.1522  0.6476
10472TIP3    H252832   5.109   6.236  14.610 -0.5234 -1.1245 -0.7980
10473TIP3   OH252833   0.184   0.601  15.338 -0.2808  0.1074 -0.0380
10473TIP3    H152834   0.110   0.637  15.387 -0.0869  0.0997  0.2627
10473TIP3    H252835   0.223   0.677  15.295  0.9113  0.4753  1.6402
10474TIP3   OH252836   0.890   6.142  14.359 -0.0904 -0.0876 -0.4684
10474TIP3    H152837   0.981   6.172  14.355 -0.6777  2.1675  2.1540
10474TIP3    H252838   0.877   6.097  14.275  2.8167  1.3073 -1.7641
10475TIP3   OH252839   1.179   4.651   3.193 -0.0527  0.0977 -0.3309
10475TIP3    H152840   1.116   4.601   3.141  1.7878 -2.0509 -0.5503
10475TIP3    H252841   1.264   4.632   3.153  1.1874 -0.1625  2.3474
10476TIP3   OH252842   4.308   1.241  15.518  0.5940  0.0301 -0.1243
10476TIP3    H152843   4.361   1.169  15.553  0.3273  0.0713  0.3708
10476TIP3    H252844   4.217   1.214  15.535  0.4694  0.1555 -0.5836
10477TIP3   OH252845   2.724   3.629   2.068 -0.5752 -0.0694 -0.8495
10477TIP3    H152846   2.628   3.627   2.070 -0.5703  0.2177 -0.1235
10477TIP3    H252847   2.745   3.690   1.997 -0.9482  1.1596  0.0694
10478TIP3   OH252848   4.328   3.797  15.340 -0.3149 -0.1288  0.5925
10478TIP3    H152849   4.332   3.810  15.435 -0.1414  1.1795  0.4195
10478TIP3    H252850   4.236   3.811  15.318 -0.7506 -2.4971  0.8365
10479TIP3   OH252851   0.614   4.199  13.762 -0.3609  0.3669  0.1194
10479TIP3    H152852   0.561   4.213  13.841  0.3651 -2.3636  1.1290
10479TIP3    H252853   0.654   4.113  13.774  1.7885  0.9965 -2.0935
10480TIP3   OH252854   6.368   5.603  13.263  0.1442 -0.0967 -0.5634
10480TIP3    H152855   6.372   5.552  13.182 -1.2207  0.7229 -1.1613
10480TIP3    H252856   6.276   5.627  13.271  0.7532  2.1783 -0.2351
10481TIP3   OH252857   5.090   5.449  12.959 -0.1687  0.0366 -0.4313
10481TIP3    H152858   5.177   5.450  12.998  0.0897  1.8707 -1.0045
10481TIP3    H252859   5.104   5.480  12.869 -0.9951 -2.4703 -1.4729
10482TIP3   OH252860   6.641   5.299  16.136 -0.5879 -0.5771 -0.5580
10482TIP3    H152861   6.717   5.316  16.081 -0.4182 -1.6189 -0.6485
10482TIP3    H252862   6.570   5.284  16.075 -0.9383  0.6489 -0.4717
10483TIP3   OH252863   6.624   0.174   6.663  0.2988  0.3068  0.0340
10483TIP3    H152864   6.682   0.177   6.739  0.0199  1.1038  0.2232
10483TIP3    H252865   6.660   0.238   6.602  0.4104 -0.1918 -0.4254
10484TIP3   OH252866   5.967   3.268   3.597  0.5123 -0.0636  0.6105
10484TIP3    H152867   6.003   3.222   3.521  1.1451  0.9073  0.3033
10484TIP3    H252868   6.021   3.239   3.670 -1.1251 -2.2368  0.9926
10485TIP3   OH252869   0.336   2.934  10.717  0.7225 -0.6335  0.2322
10485TIP3    H152870   0.375   2.848  10.698 -0.3475 -0.7874 -1.3368
10485TIP3    H252871   0.351   2.985  10.638  0.3076  0.2511  0.7168
10486TIP3   OH252872   0.037   3.551   2.680  0.8554 -0.1404 -0.0157
10486TIP3    H152873   0.058   3.617   2.745  0.9373  1.8736 -2.0170
10486TIP3    H252874   0.074   3.470   2.714  2.2646  1.1865  1.6580
10487TIP3   OH252875   3.823   5.381  12.439  0.2387  0.0073 -0.1329
10487TIP3    H152876   3.755   5.396  12.504 -0.6711 -0.3230 -1.0031
10487TIP3    H252877   3.834   5.466  12.397 -0.0029 -0.0707 -0.3506
10488TIP3   OH252878   6.441   3.793  13.462 -0.7782  0.3331 -0.2524
10488TIP3    H152879   6.361   3.807  13.513 -0.3697  2.3241 -0.0983
10488TIP3    H252880   6.410   3.769  13.375 -1.5350  0.5812 -0.0574
10489TIP3   OH252881   3.504   3.071  15.024  0.2614 -0.4557 -0.0801
10489TIP3    H152882   3.460   3.080  15.108  0.1028 -2.5936  0.1059
10489TIP3    H252883   3.463   3.136  14.967 -0.8893 -0.2413  0.9888
10490TIP3   OH252884   6.199   4.770  13.139  0.0275 -0.4123 -0.3245
10490TIP3    H152885   6.239   4.691  13.176  0.4072 -0.3510 -0.6050
10490TIP3    H252886   6.110   4.743  13.116 -0.5634 -0.1855  1.5799
10491TIP3   OH252887   6.701   3.749  15.198 -0.4739  0.3379  0.4981
10491TIP3    H152888   6.739   3.720  15.281  0.6492 -0.7444 -0.3885
10491TIP3    H252889   6.738   3.837  15.184  0.9004 -0.2890  0.1596
10492TIP3   OH252890   3.873   3.910   1.037  0.3396 -0.2130 -0.1173
10492TIP3    H152891   3.801   3.873   0.986  0.2847  1.0119 -0.9409
10492TIP3    H252892   3.843   3.905   1.128 -0.5401 -0.2428 -0.4053
10493TIP3   OH252893   0.928   2.355   3.138  0.3074  0.3503 -0.1209
10493TIP3    H152894   0.917   2.278   3.082 -0.5066  0.5949 -0.3016
10493TIP3    H252895   0.996   2.406   3.095 -1.1132  1.1133 -1.5477
10494TIP3   OH252896   5.897   1.235   4.297 -0.1055 -0.6246  0.2556
10494TIP3    H152897   5.906   1.273   4.385  1.2995 -1.5524  0.5245
10494TIP3    H252898   5.953   1.289   4.242  0.9357 -1.5498  0.4041
10495TIP3   OH252899   6.713   6.577   3.166 -0.0663  0.1709 -0.2182
10495TIP3    H152900   6.673   6.661   3.144 -1.0346 -0.5557 -1.2706
10495TIP3    H252901   6.687   6.562   3.257 -2.2331 -0.2998 -0.8888
10496TIP3   OH252902   5.226   4.499   2.147  0.5417  0.5607  0.4097
10496TIP3    H152903   5.139   4.496   2.106  0.4183 -0.4429  0.7504
10496TIP3    H252904   5.283   4.534   2.078 -0.0876  1.0029  0.1074
10497TIP3   OH252905   5.665   1.510  12.863  0.3801 -0.1608 -0.2790
10497TIP3    H152906   5.713   1.568  12.921 -1.5638  1.2027  0.0236
10497TIP3    H252907   5.580   1.553  12.851 -1.2204 -3.0711  0.1600
10498TIP3   OH252908   0.694   0.235   5.621 -0.2282  0.4316 -0.5753
10498TIP3    H152909   0.761   0.277   5.675 -0.2680  0.1103 -0.2748
10498TIP3    H252910   0.741   0.206   5.543  0.3227 -1.2465  0.3598
10499TIP3   OH252911   6.155   3.152  16.121 -0.3443 -0.0701 -0.1160
10499TIP3    H152912   6.210   3.217  16.164 -1.9298  0.8816  0.5275
10499TIP3    H252913   6.196   3.068  16.141  0.2127  0.5316  1.3178
10500TIP3   OH252914   3.414   4.591  11.717 -0.0677  0.3286  0.1233
10500TIP3    H152915   3.395   4.665  11.775  0.4645 -0.2682  1.0664
10500TIP3    H252916   3.331   4.544  11.710 -0.2726  0.7111 -0.0478
10501TIP3   OH252917   3.613   3.591  13.142 -0.1940  0.0988 -0.0768
10501TIP3    H152918   3.533   3.544  13.119 -1.1546  1.1561  1.0214
10501TIP3    H252919   3.584   3.680  13.162  1.1431  0.2959  1.0755
10502TIP3   OH252920   3.638   1.866   0.755  0.0324  0.2233 -0.0130
10502TIP3    H152921   3.551   1.902   0.740 -2.5185 -4.5028  2.3669
10502TIP3    H252922   3.643   1.853   0.850  3.0404 -0.2976 -0.1942
10503TIP3   OH252923   2.306   2.265  17.082  0.3201  0.3689  0.4900
10503TIP3    H152924   2.349   2.308  17.155 -0.7513  0.9224  0.8091
10503TIP3    H252925   2.236   2.214  17.122  0.1116  0.1922 -0.0979
10504TIP3   OH252926   1.629   0.502  14.033  0.0612 -0.2758  0.3223
10504TIP3    H152927   1.701   0.441  14.054  0.0847 -1.0534 -1.8870
10504TIP3    H252928   1.634   0.569  14.101  2.7491 -0.4383  0.3612
10505TIP3   OH252929   3.546   0.539  12.357 -0.0523 -0.1833  0.4295
10505TIP3    H152930   3.625   0.522  12.306  0.9760  2.5025  1.0561
10505TIP3    H252931   3.542   0.468  12.420  0.7062 -1.4805 -0.9504
10506TIP3   OH252932   4.261   0.807  12.657  0.0394  0.5149 -0.2300
10506TIP3    H152933   4.258   0.867  12.583 -0.4248  0.2823 -0.4070
10506TIP3    H252934   4.235   0.722  12.620  0.2167  0.3086  0.1130
10507TIP3   OH252935   4.942   4.814   2.810  0.2867 -0.2038  0.3977
10507TIP3    H152936   4.945   4.720   2.793  0.0339 -0.0837 -0.3461
10507TIP3    H252937   4.904   4.822   2.897 -0.6444 -0.7482  0.0387
10508TIP3   OH252938   3.736   6.354  17.068 -0.4627  0.7768  0.5531
10508TIP3    H152939   3.813   6.299  17.051 -0.7199  0.5788 -0.0135
10508TIP3    H252940   3.772   6.436  17.101  0.2207  1.8500 -2.6401
10509TIP3   OH252941   4.723   6.116   4.466  0.5736  0.6745 -0.4964
10509TIP3    H152942   4.735   6.053   4.538  1.5812  0.8917 -0.4623
10509TIP3    H252943   4.667   6.184   4.503  0.9023  0.6704  0.0123
10510TIP3   OH252944   1.099   4.005  12.116 -0.0398 -0.5380 -0.2203
10510TIP3    H152945   1.125   4.077  12.059 -0.9588  0.5972  0.7581
10510TIP3    H252946   1.176   3.988  12.171  0.2321 -0.4119 -0.5641
10511TIP3   OH252947   2.145   5.303  15.184 -0.2461  0.5800  0.7132
10511TIP3    H152948   2.060   5.347  15.180 -0.6035 -0.0117  1.6980
10511TIP3    H252949   2.126   5.217  15.221  0.8897  0.6920  1.5704
10512TIP3   OH252950   2.522   6.348  13.770 -0.3947  0.0134  0.0705
10512TIP3    H152951   2.599   6.327  13.717  0.1038 -0.1274  0.8502
10512TIP3    H252952   2.482   6.263  13.789 -0.3937  0.0416  0.1972
10513TIP3   OH252953   1.535   2.695  16.628  0.1099 -0.2858  0.0146
10513TIP3    H152954   1.591   2.693  16.550  0.6244 -1.9629  0.4067
10513TIP3    H252955   1.448   2.670  16.596 -0.0804  0.7440 -0.3089
10514TIP3   OH252956   1.173   2.377  15.595  0.0009 -0.0864  0.3654
10514TIP3    H152957   1.078   2.364  15.588 -0.0491  0.6310 -0.3451
10514TIP3    H252958   1.210   2.307  15.541 -0.1740  0.6441 -0.7112
10515TIP3   OH252959   4.267   1.122   0.044 -0.4839  0.3078 -0.3131
10515TIP3    H152960   4.245   1.214   0.057  0.6297  0.3665  1.3652
10515TIP3    H252961   4.232   1.078   0.122 -0.0209 -0.5167 -0.5632
10516TIP3   OH252962   5.324   5.769  13.275  0.1114 -0.2046 -0.2329
10516TIP3    H152963   5.407   5.721  13.276 -1.4228 -2.9601 -0.4769
10516TIP3    H252964   5.326   5.820  13.194  2.0498  0.6880  0.3509
10517TIP3   OH252965   0.809   4.359  12.851 -0.6162  0.4411  0.1928
10517TIP3    H152966   0.788   4.267  12.867  1.3305  0.0684  0.7044
10517TIP3    H252967   0.759   4.382  12.773  0.7657 -1.7435 -1.3646
10518TIP3   OH252968   5.464   1.664   2.144 -0.1614  0.6818 -0.0315
10518TIP3    H152969   5.403   1.657   2.070  1.3722 -2.6360 -1.0599
10518TIP3    H252970   5.549   1.679   2.104  0.1617  2.5293  1.2744
10519TIP3   OH252971   3.231   4.328  14.585  0.1863 -0.2044 -0.5843
10519TIP3    H152972   3.207   4.301  14.496  0.1972  1.3823 -1.0909
10519TIP3    H252973   3.148   4.357  14.624  0.1145 -1.2686  0.0725
10520TIP3   OH252974   4.961   3.448  13.515 -0.0575  0.6910  0.4221
10520TIP3    H152975   5.015   3.402  13.450  0.7309 -1.5234  2.5555
10520TIP3    H252976   4.878   3.401  13.513  0.2017  0.1896  1.4944
10521TIP3   OH252977   0.161   1.044  16.143 -0.7999  0.3250 -0.4808
10521TIP3    H152978   0.124   0.960  16.116  0.2873 -0.6797  1.0715
10521TIP3    H252979   0.256   1.030  16.142 -0.5669  1.8272 -1.0969
10522TIP3   OH252980   2.114   4.085   0.249 -0.2526  0.0721 -0.4363
10522TIP3    H152981   2.115   4.056   0.158 -0.5991 -0.6997 -0.1922
10522TIP3    H252982   2.067   4.168   0.247 -1.3199 -0.5387 -0.7809
10523TIP3   OH252983   4.175   2.060  16.691 -0.2139 -0.3097 -0.2101
10523TIP3    H152984   4.170   2.131  16.627  2.7728 -0.5598 -0.7985
10523TIP3    H252985   4.165   1.980  16.639  0.0871 -0.4492 -0.0542
10524TIP3   OH252986   0.720   0.573  16.974 -0.1373 -0.0508  0.2794
10524TIP3    H152987   0.741   0.665  16.960  1.7604 -0.3860  0.7888
10524TIP3    H252988   0.701   0.566  17.068  1.3308 -0.4560  0.5641
10525TIP3   OH252989   0.432   4.430  11.509 -0.3630 -0.6010 -0.3932
10525TIP3    H152990   0.420   4.476  11.427  2.5924 -0.1206 -0.5820
10525TIP3    H252991   0.464   4.343  11.484 -0.9465 -1.0003  0.2034
10526TIP3   OH252992   6.780   3.243  13.449 -0.0102 -0.0329 -0.2652
10526TIP3    H152993   6.685   3.258  13.443  0.0615 -0.1500 -2.0941
10526TIP3    H252994   6.818   3.312  13.395  0.8615 -0.8291 -0.6866
10527TIP3   OH252995   2.294   0.240  13.839  0.0331  0.1067  0.4290
10527TIP3    H152996   2.224   0.278  13.892 -0.3069 -0.7759  0.6210
10527TIP3    H252997   2.327   0.167  13.891  1.7072  1.0351  0.7356
10528TIP3   OH252998   6.414   5.650  12.604  0.6081  0.0245  0.0779
10528TIP3    H152999   6.322   5.639  12.625  0.8514 -0.9709  0.6121
10528TIP3    H253000   6.434   5.740  12.631  0.1482 -0.2275  1.2806
10529TIP3   OH253001   4.669   4.291  15.073  0.1167 -0.3066 -0.2959
10529TIP3    H153002   4.606   4.219  15.083  0.6797 -0.8784 -0.8364
10529TIP3    H253003   4.753   4.247  15.061  0.3222  0.4395 -1.6142
10530TIP3   OH253004   4.453   2.910  13.199 -0.2076 -0.2876 -0.1827
10530TIP3    H153005   4.414   2.997  13.209 -1.3598 -0.4404 -2.8288
10530TIP3    H253006   4.439   2.889  13.107 -0.4485 -3.5322  0.5698
10531TIP3   OH253007   6.167   5.009   6.040  0.4809 -0.1422 -0.2387
10531TIP3    H153008   6.187   4.990   6.131 -0.2299  0.9339  0.1613
10531TIP3    H253009   6.147   5.103   6.039 -0.0123 -0.2440 -1.4054
10532TIP3   OH253010   1.070   5.758  16.124 -0.3236  0.2901  0.1934
10532TIP3    H153011   1.063   5.682  16.068  0.6861  0.7829 -0.5958
10532TIP3    H253012   1.119   5.728  16.201  2.3495  0.7801 -1.2785
10533TIP3   OH253013   3.572   2.660   4.896  0.1906  0.1477  0.1522
10533TIP3    H153014   3.513   2.706   4.955  0.5272  0.5944  0.1427
10533TIP3    H253015   3.520   2.642   4.818  0.5499  2.0178 -0.5314
10534TIP3   OH253016   0.337   1.088   0.244 -0.3746  0.2391  0.1991
10534TIP3    H153017   0.400   1.077   0.173  0.5064  0.7852  0.8877
10534TIP3    H253018   0.390   1.103   0.322 -1.3706  3.0669  0.4007
10535TIP3   OH253019   6.400   2.098   3.870  0.6207 -0.0910 -0.0562
10535TIP3    H153020   6.459   2.139   3.807 -0.0509 -0.0178 -0.6363
10535TIP3    H253021   6.447   2.021   3.901  0.0453 -1.3856 -2.2981
10536TIP3   OH253022   4.207   5.897   6.240  0.0379  0.3866  0.0542
10536TIP3    H153023   4.284   5.853   6.275 -0.1844  0.5537  0.7708
10536TIP3    H253024   4.177   5.840   6.169  0.0910 -0.3205  0.5871
10537TIP3   OH253025   3.899   5.203  15.120  0.3442 -0.0757  0.5552
10537TIP3    H153026   3.988   5.168  15.130  0.7543  0.7335 -0.1002
10537TIP3    H253027   3.844   5.126  15.109  1.1267 -0.5510 -0.1771
10538TIP3   OH253028   3.039   5.036   3.789  0.4983  0.0180 -0.9840
10538TIP3    H153029   2.971   5.099   3.766  0.4540  0.5243  0.4830
10538TIP3    H253030   2.993   4.952   3.794 -0.0266  0.3624  0.0258
10539TIP3   OH253031   0.112   3.524  16.478 -0.0390 -0.0094  0.1664
10539TIP3    H153032   0.070   3.444  16.510  1.1331 -0.1029  1.5099
10539TIP3    H253033   0.193   3.494  16.436 -0.9677  0.2289 -1.8346
10540TIP3   OH253034   0.716   1.266   1.199 -0.1352  0.6352 -0.3993
10540TIP3    H153035   0.674   1.213   1.131  0.0828 -0.5970  0.4235
10540TIP3    H253036   0.644   1.313   1.240 -0.6522 -1.0098  0.6001
10541TIP3   OH253037   1.174   2.989  11.961 -0.0342 -0.2449  0.2547
10541TIP3    H153038   1.128   2.908  11.940  1.3761 -0.7420 -0.9445
10541TIP3    H253039   1.263   2.977  11.928  1.1644  0.4854  3.0368
10542TIP3   OH253040   5.299   1.189  12.517  0.4191 -0.3927 -0.1539
10542TIP3    H153041   5.382   1.185  12.469 -0.0479 -0.2597 -0.9794
10542TIP3    H253042   5.324   1.210  12.606  1.3486 -1.2668 -0.2036
10543TIP3   OH253043   0.094   5.474  13.374  0.2802  0.6108 -0.5105
10543TIP3    H153044   0.043   5.528  13.436 -0.9772 -0.4408 -0.5891
10543TIP3    H253045   0.032   5.407  13.346  2.3247 -2.0248  1.0355
10544TIP3   OH253046   2.343   3.806  15.876  0.5978  0.3608  0.3982
10544TIP3    H153047   2.267   3.864  15.883  0.9914  0.9210  0.0508
10544TIP3    H253048   2.306   3.721  15.850  0.2293  0.9954 -1.1891
10545TIP3   OH253049   4.766   5.806  10.680  0.0456 -0.0814  0.3478
10545TIP3    H153050   4.734   5.742  10.743  1.3004 -0.6233  0.4527
10545TIP3    H253051   4.845   5.842  10.720 -0.9836  1.9854  0.5596
10546TIP3   OH253052   5.335   5.597  12.394  0.2885 -0.2171  0.3267
10546TIP3    H153053   5.257   5.624  12.443 -0.7297 -1.8541 -0.3302
10546TIP3    H253054   5.347   5.665  12.328 -1.4228 -0.6379 -0.4461
10547TIP3   OH253055   3.848   3.333  12.955 -0.0834  0.1523 -0.1523
10547TIP3    H153056   3.922   3.313  13.013  1.3127 -0.1138 -2.0032
10547TIP3    H253057   3.888   3.359  12.872 -2.0677  0.4157 -1.0542
10548TIP3   OH253058   4.839   3.213   5.305  0.1435  0.1229 -0.1557
10548TIP3    H153059   4.753   3.255   5.294  0.4311  1.8184  3.2827
10548TIP3    H253060   4.891   3.246   5.232 -1.4771  0.8353 -1.0279
10549TIP3   OH253061   6.331   2.220  12.509  0.0864 -0.5328  0.5706
10549TIP3    H153062   6.243   2.184  12.524  0.4312 -1.4235  0.4343
10549TIP3    H253063   6.322   2.272  12.429  0.0297 -1.8392 -0.2923
10550TIP3   OH253064   5.515   2.098  15.807  0.1077 -0.3129  0.1782
10550TIP3    H153065   5.466   2.137  15.734  0.8314  0.0918 -0.1045
10550TIP3    H253066   5.448   2.070  15.869 -0.4044  2.9043  1.1680
10551TIP3   OH253067   6.758   3.743   5.791  0.3593  0.3914  0.4799
10551TIP3    H153068   6.786   3.679   5.855  0.3378  1.0181  1.1243
10551TIP3    H253069   6.718   3.692   5.721 -0.4636 -0.2418  1.3999
10552TIP3   OH253070   6.703   5.082   4.830 -0.5638  0.2980  0.2824
10552TIP3    H153071   6.761   5.107   4.902 -0.8306  1.1091  0.2112
10552TIP3    H253072   6.730   5.137   4.757  1.2858 -2.1357 -0.9601
10553TIP3   OH253073   6.433   3.061   6.227  0.3827 -0.4940  0.2562
10553TIP3    H153074   6.415   3.155   6.230  0.1706 -0.5456  0.5776
10553TIP3    H253075   6.522   3.052   6.261  1.0923 -0.2228 -1.4736
10554TIP3   OH253076   0.972   3.531  14.752 -0.3202 -0.3958  0.1491
10554TIP3    H153077   0.964   3.466  14.821  0.0732 -1.5852 -0.9068
10554TIP3    H253078   1.065   3.532  14.731 -0.3591  0.3362 -0.0069
10555TIP3   OH253079   4.226   0.753   3.735 -0.1222  0.5121 -0.1668
10555TIP3    H153080   4.186   0.787   3.815  2.5152 -0.3894  1.5647
10555TIP3    H253081   4.292   0.818   3.711  0.2857 -0.0657 -0.6402
10556TIP3   OH253082   2.169   3.880  15.061 -0.0388 -0.6519 -0.0688
10556TIP3    H153083   2.249   3.932  15.055 -0.9248  1.0263  1.9507
10556TIP3    H253084   2.199   3.789  15.064  1.5886 -0.2461 -2.5059
10557TIP3   OH253085   2.191   0.577   4.880 -0.4672 -0.0947  1.1966
10557TIP3    H153086   2.153   0.639   4.942  0.0852 -0.3492  1.8029
10557TIP3    H253087   2.155   0.492   4.906 -0.0532 -0.2354  1.3257
10558TIP3   OH253088   0.394   5.894  14.244  0.0743 -0.3101 -0.1632
10558TIP3    H153089   0.369   5.953  14.315 -0.5542  1.1973 -1.6270
10558TIP3    H253090   0.315   5.886  14.190 -0.5500 -4.1725  1.1262
10559TIP3   OH253091   2.941   4.714  12.994 -0.2534 -0.2390 -0.6407
10559TIP3    H153092   3.010   4.747  13.051  0.4269  0.4918 -1.8460
10559TIP3    H253093   2.897   4.793  12.961 -0.9661 -0.6622 -0.7218
10560TIP3   OH253094   3.589   6.341  16.850  0.7152 -0.5430 -0.5052
10560TIP3    H153095   3.649   6.346  16.924 -0.7498 -0.1236  0.6732
10560TIP3    H253096   3.592   6.428  16.810  1.1147 -0.6143 -0.6332
10561TIP3   OH253097   5.692   1.637   5.500  0.1038 -0.7225  0.4915
10561TIP3    H153098   5.756   1.694   5.456 -0.4594  0.6421  1.4036
10561TIP3    H253099   5.728   1.625   5.588  0.7521 -2.6745 -0.0133
10562TIP3   OH253100   4.235   5.451   1.429  0.3020 -0.2607 -0.3399
10562TIP3    H153101   4.145   5.437   1.455  0.0918  0.5506 -0.6024
10562TIP3    H253102   4.244   5.404   1.346  0.7997 -2.3220  0.8359
10563TIP3   OH253103   2.852   3.540   4.796 -0.1913 -0.1474 -0.3605
10563TIP3    H153104   2.878   3.632   4.784 -0.5727 -0.2301 -1.8136
10563TIP3    H253105   2.929   3.499   4.836  0.2446  0.6397 -0.3671
10564TIP3   OH253106   4.387   2.800  15.706 -0.5789  0.4004 -0.2828
10564TIP3    H153107   4.481   2.821  15.700 -0.7448  1.0215 -0.7504
10564TIP3    H253108   4.361   2.829  15.793 -0.1138 -0.6837  0.2244
10565TIP3   OH253109   3.208   2.544   4.398  0.0149 -0.2559 -0.3121
10565TIP3    H153110   3.299   2.547   4.369  0.4206 -1.5593  0.7918
10565TIP3    H253111   3.168   2.476   4.345 -0.5082  0.7802 -1.2757
10566TIP3   OH253112   2.414   5.808   5.236 -0.5041  0.2194 -0.4361
10566TIP3    H153113   2.476   5.881   5.238 -0.4387  0.1476  0.5976
10566TIP3    H253114   2.335   5.846   5.197  0.2642  0.2359 -2.0084
10567TIP3   OH253115   1.736   4.550   3.775  0.5695  0.3892 -0.2269
10567TIP3    H153116   1.733   4.628   3.721  0.9381  0.2758 -0.4138
10567TIP3    H253117   1.806   4.497   3.737 -1.5499 -1.3478 -1.8837
10568TIP3   OH253118   5.873   1.535  14.936 -0.5112 -0.3842  0.1823
10568TIP3    H153119   5.881   1.495  15.022 -3.1398  1.4512  1.3475
10568TIP3    H253120   5.822   1.472  14.885  0.8261 -1.3537  0.0224
10569TIP3   OH253121   2.314   2.682   2.925 -0.2831 -0.0113 -0.1741
10569TIP3    H153122   2.297   2.639   2.841 -1.0775  2.0751 -1.1026
10569TIP3    H253123   2.228   2.706   2.958  0.1333  0.5979  0.4799
10570TIP3   OH253124   2.749   1.715  12.595 -0.4560 -0.2431  0.2922
10570TIP3    H153125   2.777   1.648  12.533 -2.2280 -0.8860  0.1647
10570TIP3    H253126   2.718   1.666  12.671 -1.4586  0.4381  0.3265
10571TIP3   OH253127   4.651   1.721  14.556 -0.0210 -0.4302 -0.5209
10571TIP3    H153128   4.725   1.691  14.609  1.2418  1.6520 -1.0008
10571TIP3    H253129   4.612   1.791  14.608 -0.1842  0.0710 -1.3057
10572TIP3   OH253130   1.153   3.149   5.305  0.0786  0.1754 -0.1376
10572TIP3    H153131   1.105   3.196   5.237  1.3923  1.4434 -0.2052
10572TIP3    H253132   1.217   3.096   5.257 -0.3729 -0.5153  0.0151
10573TIP3   OH253133   1.469   1.669   6.087 -0.2628 -0.3864 -0.4865
10573TIP3    H153134   1.563   1.668   6.068  0.1402  0.6318  1.3232
10573TIP3    H253135   1.463   1.696   6.178 -2.3650  0.5942 -0.8699
10574TIP3   OH253136   2.094   1.095  13.443  0.0317  0.1503 -0.2423
10574TIP3    H153137   2.120   1.010  13.478 -0.5737 -0.5316 -1.4396
10574TIP3    H253138   2.176   1.137  13.418  0.0869 -1.7646 -3.4946
10575TIP3   OH253139   4.178   2.832  16.216 -0.1706  0.2123  0.0809
10575TIP3    H153140   4.083   2.831  16.222 -0.2291 -0.5175 -0.7656
10575TIP3    H253141   4.207   2.870  16.298 -1.1736 -0.2841  0.6756
10576TIP3   OH253142   0.043   6.254  12.616 -0.0847 -0.1062 -0.1594
10576TIP3    H153143   0.092   6.190  12.564 -0.0888 -1.3447  1.3362
10576TIP3    H253144  -0.013   6.299  12.552  0.2921 -1.2355 -1.3079
10577TIP3   OH253145   2.490   1.001  16.480  0.2359  0.0895 -0.2133
10577TIP3    H153146   2.398   0.978  16.477  0.8023 -2.3466  0.0915
10577TIP3    H253147   2.536   0.919  16.462  2.3418  1.2465 -0.2776
10578TIP3   OH253148   0.073   2.249  16.852  0.0744  0.1552  0.7059
10578TIP3    H153149   0.003   2.294  16.804 -0.6216  0.2011  1.7239
10578TIP3    H253150   0.033   2.165  16.878  1.1049 -0.7194 -0.5122
10579TIP3   OH253151   3.501   4.913   1.574 -0.3862 -0.1046  0.7159
10579TIP3    H153152   3.424   4.962   1.544  0.6138  0.9405 -0.1516
10579TIP3    H253153   3.497   4.919   1.670 -2.1527 -1.2669  0.7470
10580TIP3   OH253154   1.609   0.111   0.488 -0.4632 -0.1085  0.1119
10580TIP3    H153155   1.561   0.030   0.472 -0.2560 -0.6103  1.8845
10580TIP3    H253156   1.678   0.086   0.549  0.0276  1.2606  0.1332
10581TIP3   OH253157   2.929   5.644  14.320  0.5087  0.2586 -0.2893
10581TIP3    H153158   2.839   5.663  14.345  0.6826  1.1686 -0.3265
10581TIP3    H253159   2.975   5.727  14.332  1.1781 -0.0015 -1.0034
10582TIP3   OH253160   5.894   0.218  16.554 -0.1395  0.0306 -0.2537
10582TIP3    H153161   5.952   0.286  16.587 -0.1374 -0.0377 -0.1162
10582TIP3    H253162   5.823   0.265  16.511 -1.0756  0.1571  1.4015
10583TIP3   OH253163   6.201   0.645  15.818  0.0908  0.2201  0.0043
10583TIP3    H153164   6.269   0.641  15.884  2.1903  1.3953 -2.0008
10583TIP3    H253165   6.227   0.580  15.752 -0.4764  1.0196 -1.0253
10584TIP3   OH253166   0.106   3.287   2.787 -0.2814 -0.0434 -0.0517
10584TIP3    H153167   0.093   3.221   2.719 -1.5656 -0.7300  0.8468
10584TIP3    H253168   0.180   3.255   2.839  1.7331  1.2605 -2.0277
10585TIP3   OH253169   5.021   4.404  14.841  0.2189  0.3811  0.3957
10585TIP3    H153170   4.995   4.317  14.812  0.4537  0.5196 -0.2429
10585TIP3    H253171   5.104   4.421  14.796 -0.5538  1.5243 -0.6350
10586TIP3   OH253172   4.038   5.192  12.450  0.2533  0.3726 -0.1295
10586TIP3    H153173   3.969   5.256  12.462  0.4293  0.7492 -1.0943
10586TIP3    H253174   4.005   5.132  12.384  0.3419 -0.1680  0.3128
10587TIP3   OH253175   2.802   1.860   0.741 -0.9540  0.1549 -0.3023
10587TIP3    H153176   2.799   1.833   0.649 -0.7460  0.8129 -0.5066
10587TIP3    H253177   2.717   1.901   0.756 -0.8776  0.3059 -0.2836
10588TIP3   OH253178   0.370   2.050  11.007  0.2767  0.0037 -0.4575
10588TIP3    H153179   0.460   2.018  11.014  0.2970  0.2465  0.4893
10588TIP3    H253180   0.373   2.116  10.938  0.2437 -1.9730 -2.3942
10589TIP3   OH253181   0.602   4.155  15.387  0.2002 -0.5800 -0.5094
10589TIP3    H153182   0.690   4.121  15.374  0.8941  1.3406 -1.1707
10589TIP3    H253183   0.610   4.218  15.459 -1.3402 -2.8273  1.6933
10590TIP3   OH253184   2.361   4.464  12.980 -0.4304 -0.1329 -0.0198
10590TIP3    H153185   2.396   4.478  13.068 -1.4332  0.8237  0.2376
10590TIP3    H253186   2.270   4.438  12.994 -0.5193 -0.2480 -0.7709
10591TIP3   OH253187   5.181   1.998   1.832  0.3507 -0.5226  0.0803
10591TIP3    H153188   5.092   1.981   1.862 -0.0873  0.5056 -0.5825
10591TIP3    H253189   5.181   1.972   1.740  1.1566 -1.8979  0.4598
10592TIP3   OH253190   6.223   4.994  15.288  0.1602  0.5070  0.2988
10592TIP3    H153191   6.260   5.076  15.321  0.9597  0.0513  0.5543
10592TIP3    H253192   6.160   5.021  15.222  1.4248  1.3010 -0.6218
10593TIP3   OH253193   2.390   6.133   4.962  0.3670 -0.4031  0.1005
10593TIP3    H153194   2.392   6.224   4.931 -2.7029 -0.4399 -0.2998
10593TIP3    H253195   2.425   6.082   4.888  1.5629  0.3556  0.1153
10594TIP3   OH253196   1.421   2.428   4.763  0.0778  0.0314  0.2393
10594TIP3    H153197   1.429   2.504   4.821 -0.2341  0.8054 -0.7168
10594TIP3    H253198   1.507   2.387   4.766  0.4814  0.8593  0.1714
10595TIP3   OH253199   1.556   5.078  12.404  0.0870  0.2610  0.0811
10595TIP3    H153200   1.564   5.124  12.488  1.2105 -3.2600  2.0495
10595TIP3    H253201   1.463   5.081  12.383 -0.6312 -0.8667  2.7901
10596TIP3   OH253202   3.531   3.862  12.847  0.0986 -0.0093 -0.5571
10596TIP3    H153203   3.542   3.955  12.868 -1.3200  0.4240 -1.6546
10596TIP3    H253204   3.567   3.816  12.924  1.4962  1.4075 -0.3187
10597TIP3   OH253205   1.423   6.612   4.021  0.1545 -0.1536 -0.5727
10597TIP3    H153206   1.457   6.522   4.021  1.3420  0.2728 -1.3364
10597TIP3    H253207   1.492   6.662   3.977 -1.2198  0.8532 -1.6124
10598TIP3   OH253208   1.669   3.298   5.030 -0.3356 -0.0379  0.3507
10598TIP3    H153209   1.608   3.273   4.961 -0.0499 -1.6623  0.6599
10598TIP3    H253210   1.641   3.247   5.106  1.1638 -0.5543  0.5945
10599TIP3   OH253211   1.873   6.291   1.762  0.4572 -0.1627 -0.1448
10599TIP3    H153212   1.831   6.207   1.747  0.3087 -0.0512 -0.3518
10599TIP3    H253213   1.890   6.293   1.856 -0.6724  0.1072  0.0587
10600TIP3   OH253214   1.193   3.221   4.861  0.0294 -0.1084 -0.0496
10600TIP3    H153215   1.114   3.196   4.813  0.6736 -0.7521 -0.7810
10600TIP3    H253216   1.165   3.221   4.953 -0.6702 -0.9506 -0.2433
10601TIP3   OH253217   2.465   4.776  15.136  0.7041 -0.3039  0.0807
10601TIP3    H153218   2.454   4.871  15.128 -1.2291 -0.3148  2.0744
10601TIP3    H253219   2.430   4.741  15.054 -0.2134  0.6222  0.0654
10602TIP3   OH253220   6.012   2.157  15.572 -0.1109  0.4365  0.2429
10602TIP3    H153221   5.952   2.230  15.586  0.7424  1.0139  0.9053
10602TIP3    H253222   6.036   2.129  15.660  1.5784  1.0102 -0.0370
10603TIP3   OH253223   6.273   4.524   6.335 -0.1490  0.0247  0.0862
10603TIP3    H153224   6.277   4.439   6.379 -2.1269 -0.5992 -0.8928
10603TIP3    H253225   6.185   4.528   6.299  0.9260  1.1994 -2.5074
10604TIP3   OH253226   3.980   0.410  12.808 -0.0366  0.2627  0.0475
10604TIP3    H153227   4.017   0.472  12.870 -0.4540  1.4817 -0.9150
10604TIP3    H253228   4.055   0.378  12.758  0.5618 -2.0895  2.3415
10605TIP3   OH253229   0.112   4.163  11.986  0.4382  0.0816 -0.1654
10605TIP3    H153230   0.157   4.152  12.070  1.4405  0.5280 -0.6294
10605TIP3    H253231   0.166   4.113  11.924  1.4210  2.2545 -1.0974
10606TIP3   OH253232   1.959   2.654  15.983 -0.6402 -0.2652  0.6108
10606TIP3    H153233   1.958   2.567  15.944 -0.3763 -0.4460  1.0115
10606TIP3    H253234   1.908   2.644  16.063 -1.5715  0.2123  0.0868
10607TIP3   OH253235   4.108   2.352   3.497 -0.1440 -0.1680  0.0600
10607TIP3    H153236   4.124   2.322   3.587 -0.3674  0.8137  0.4417
10607TIP3    H253237   4.020   2.391   3.501  0.1392  0.5248 -0.4074
10608TIP3   OH253238   0.232   0.148   5.960  0.1961 -0.0368 -0.1116
10608TIP3    H153239   0.222   0.053   5.967 -1.4829  0.1375  0.1550
10608TIP3    H253240   0.270   0.162   5.873 -0.5160 -0.8978 -0.5717
10609TIP3   OH253241   6.130   3.517  10.718  0.6933  0.4332  0.3806
10609TIP3    H153242   6.095   3.601  10.748  0.9008  0.3527  0.8516
10609TIP3    H253243   6.053   3.467  10.693  0.6167  1.0527 -0.6656
10610TIP3   OH253244   5.878   2.704   0.071 -0.0576  0.5217  0.1513
10610TIP3    H153245   5.971   2.721   0.058 -0.1519  0.5854 -0.4425
10610TIP3    H253246   5.875   2.620   0.117  0.3853  1.6834  2.3526
10611TIP3   OH253247   2.648   6.146  12.335  0.4790 -0.4671 -0.3542
10611TIP3    H153248   2.652   6.225  12.388 -0.5160 -0.2592 -0.5869
10611TIP3    H253249   2.640   6.075  12.399  1.6322 -0.4162 -0.1333
10612TIP3   OH253250   0.577   6.511  14.716 -0.2114  0.1380  0.5915
10612TIP3    H153251   0.632   6.438  14.689 -0.1752  0.4749 -0.2410
10612TIP3    H253252   0.576   6.506  14.812 -0.0992 -0.8692  0.5457
10613TIP3   OH253253   1.464   3.615   1.277  0.4109 -0.6887 -0.0803
10613TIP3    H153254   1.396   3.611   1.211  0.5816  0.1390 -0.3070
10613TIP3    H253255   1.546   3.616   1.228  0.5726 -0.9968  0.1733
10614TIP3   OH253256   6.286   5.163   0.775  0.8964 -0.3681  0.2509
10614TIP3    H153257   6.221   5.122   0.718 -0.5369 -0.6100  2.0125
10614TIP3    H253258   6.235   5.197   0.849  2.5469  1.0973  0.7648
10615TIP3   OH253259   2.892   4.987  11.624  0.1681  0.2099  0.6992
10615TIP3    H153260   2.901   5.082  11.612  1.3732  0.2655  1.9210
10615TIP3    H253261   2.837   4.978  11.702  0.0125 -0.1052  0.5538
10616TIP3   OH253262   4.882   1.671  10.665  0.3238  0.1781 -0.1860
10616TIP3    H153263   4.845   1.583  10.673 -1.3375  0.7177 -1.5070
10616TIP3    H253264   4.820   1.728  10.710  1.5304  0.6612  0.9008
10617TIP3   OH253265   4.627   1.571   0.126 -0.5252 -0.2165  0.0124
10617TIP3    H153266   4.699   1.581   0.187 -0.7752 -1.2021  0.4702
10617TIP3    H253267   4.561   1.521   0.174 -2.0065  1.6691  0.0163
10618TIP3   OH253268   1.125   2.318   0.952 -0.2494 -0.4324  0.3672
10618TIP3    H153269   1.182   2.242   0.955 -0.8673 -1.0576 -2.3965
10618TIP3    H253270   1.172   2.385   1.002  1.6892 -1.6868  0.2918
10619TIP3   OH253271   6.117   0.951   5.000 -0.0001 -0.1939  0.0781
10619TIP3    H153272   6.180   0.889   4.966 -2.5648 -2.3477 -0.9219
10619TIP3    H253273   6.122   0.942   5.095  1.1385 -0.3637  0.0057
10620TIP3   OH253274   4.628   1.845  14.305  0.2250 -0.0487  0.2608
10620TIP3    H153275   4.628   1.788  14.382 -0.2046 -0.8016 -0.2898
10620TIP3    H253276   4.619   1.934  14.341  1.3868 -0.2860  1.1399
10621TIP3   OH253277   2.892   3.561   3.196 -0.0943 -0.0930 -0.3066
10621TIP3    H153278   2.812   3.607   3.222  2.1890  3.7644  0.4062
10621TIP3    H253279   2.926   3.524   3.278 -1.4608 -2.3375 -0.7265
10622TIP3   OH253280   6.104   6.553   1.615 -0.1655  0.1684  0.3351
10622TIP3    H153281   6.189   6.581   1.648 -0.8318 -0.5009  2.6694
10622TIP3    H253282   6.107   6.457   1.618 -0.5866  0.1154 -0.6537
10623TIP3   OH253283   5.379   4.595  10.973  0.2753  0.3612 -0.2849
10623TIP3    H153284   5.392   4.543  11.052 -1.6978 -0.6281 -0.5735
10623TIP3    H253285   5.465   4.633  10.955  1.3346 -1.3637  0.9525
10624TIP3   OH253286   1.049   4.648   1.316 -0.1115 -0.5039  0.6055
10624TIP3    H153287   1.070   4.713   1.249  0.8594 -0.6463  0.7536
10624TIP3    H253288   0.992   4.694   1.377 -1.5067 -0.5536 -0.6284
10625TIP3   OH253289   3.059   6.294  11.614  0.1713 -0.1841 -0.0468
10625TIP3    H153290   3.085   6.204  11.592 -1.8357 -0.6223 -0.7256
10625TIP3    H253291   2.978   6.308  11.566  0.2934  1.8994  0.3213
10626TIP3   OH253292   5.066   6.322  12.060 -0.0458 -0.2734 -0.0066
10626TIP3    H153293   5.048   6.273  12.140  1.2550  1.2014  1.2078
10626TIP3    H253294   5.159   6.343  12.065 -0.5653  2.2398 -0.5332
10627TIP3   OH253295   0.716   3.510   5.916  0.3445 -0.3985 -0.3794
10627TIP3    H153296   0.804   3.474   5.906  0.0605 -1.5265  1.1417
10627TIP3    H253297   0.729   3.605   5.919  1.4126 -0.5228 -0.9703
10628TIP3   OH253298   2.339   3.542   0.508  0.2265 -0.3191 -0.3294
10628TIP3    H153299   2.265   3.482   0.506 -0.8794  0.9964 -2.7512
10628TIP3    H253300   2.332   3.590   0.425  3.3173  0.4127 -0.2229
10629TIP3   OH253301   1.741   3.877  11.679  0.6451  0.5638  0.0500
10629TIP3    H153302   1.764   3.790  11.713  1.6673  0.9579  0.4078
10629TIP3    H253303   1.826   3.919  11.662  0.1510  0.7497 -2.0483
10630TIP3   OH253304   2.551   6.560  14.005  0.1072 -0.1244 -0.4479
10630TIP3    H153305   2.596   6.620  13.945  0.7133 -1.6194 -1.5372
10630TIP3    H253306   2.559   6.475  13.963 -1.2881 -0.8718  0.7691
10631TIP3   OH253307   3.221   3.718   5.755  0.2279 -0.6648  0.6115
10631TIP3    H153308   3.128   3.705   5.773  0.3556 -1.6184  0.5768
10631TIP3    H253309   3.249   3.784   5.819 -0.4219 -0.5036  0.7352
10632TIP3   OH253310   4.957   3.753  15.401 -0.2370 -0.4478 -0.4665
10632TIP3    H153311   4.925   3.744  15.312 -1.3496 -1.9990  0.0555
10632TIP3    H253312   4.934   3.842  15.426  0.2179  0.0439 -1.7621
10633TIP3   OH253313   4.760   5.926  14.428 -0.5019  0.5000 -0.2310
10633TIP3    H153314   4.803   5.858  14.376 -2.7586  0.1656 -1.6890
10633TIP3    H253315   4.740   5.996  14.366 -0.7813  1.2898  0.7191
10634TIP3   OH253316   5.125   4.164   3.439  0.4960  0.4067 -0.2540
10634TIP3    H153317   5.032   4.146   3.452  0.0482  2.0143 -1.1178
10634TIP3    H253318   5.162   4.080   3.414  0.0209 -1.1228  3.7657
10635TIP3   OH253319   6.249   1.271   2.434  0.2294 -0.5014 -0.1723
10635TIP3    H153320   6.261   1.260   2.339  1.8829 -0.2148  0.0019
10635TIP3    H253321   6.155   1.285   2.444 -0.2537 -2.5184 -1.5839
10636TIP3   OH253322   6.618   4.151  16.155 -0.1631  0.3826 -0.2405
10636TIP3    H153323   6.614   4.141  16.060  0.8032 -0.4550 -0.1940
10636TIP3    H253324   6.535   4.115  16.187  0.6542 -1.8707 -0.5637
10637TIP3   OH253325   5.632   5.125   2.876  0.7526 -0.0965  0.5054
10637TIP3    H153326   5.567   5.106   2.944  0.2946  0.9990  0.3936
10637TIP3    H253327   5.642   5.043   2.829 -0.4871 -0.3082  0.5853
10638TIP3   OH253328   2.134   0.304   0.978  0.6423 -0.2019 -0.0288
10638TIP3    H153329   2.226   0.291   1.001  0.6491 -1.2099 -0.6358
10638TIP3    H253330   2.136   0.347   0.892  0.5435 -0.2734 -0.0673
10639TIP3   OH253331   6.721   0.882  16.050 -0.9398 -0.0762  0.3231
10639TIP3    H153332   6.640   0.918  16.087 -1.1419 -1.2270  0.9937
10639TIP3    H253333   6.732   0.797  16.093  1.4450  0.7269  1.3936
10640TIP3   OH253334   3.394   3.807  12.625 -0.4803  0.3505  0.8678
10640TIP3    H153335   3.437   3.838  12.546 -0.1545  0.4307  1.0737
10640TIP3    H253336   3.458   3.822  12.695 -1.0077  0.9098  1.2496
10641TIP3   OH253337   0.375   0.562  12.273  0.1808  0.1597  0.3336
10641TIP3    H153338   0.450   0.521  12.316 -0.4751 -2.5651 -0.9967
10641TIP3    H253339   0.301   0.506  12.296 -0.4954 -0.3063 -2.7262
10642TIP3   OH253340   0.308   6.403   3.185  0.2938 -0.1642  0.4747
10642TIP3    H153341   0.315   6.354   3.103  1.4905  0.8018 -0.0104
10642TIP3    H253342   0.286   6.492   3.158  0.6391  0.1474  1.2024
10643TIP3   OH253343   0.176   0.513  16.587 -0.4720 -0.2979  0.1236
10643TIP3    H153344   0.204   0.422  16.593  2.3506  0.5349  0.2192
10643TIP3    H253345   0.117   0.525  16.662 -0.6832 -1.9486  0.2485
10644TIP3   OH253346   4.715   4.972  13.180  0.3236  0.2596  0.3350
10644TIP3    H153347   4.730   5.047  13.123  0.2485 -0.8252 -1.1313
10644TIP3    H253348   4.665   5.008  13.254 -2.3488  1.1218 -1.8007
10645TIP3   OH253349   5.426   4.801   1.180 -0.5877  0.1126  0.3854
10645TIP3    H153350   5.429   4.706   1.176  1.2637  0.0944  1.5366
10645TIP3    H253351   5.354   4.821   1.240 -0.4118 -0.5848  0.8301
10646TIP3   OH253352   2.452   2.284   3.592  0.0674 -0.0086 -0.0237
10646TIP3    H153353   2.375   2.335   3.569 -0.1475  0.2669  1.2381
10646TIP3    H253354   2.521   2.349   3.606  0.3695 -0.2130 -0.5757
10647TIP3   OH253355   5.075   4.907   6.231  0.0104  0.3302 -0.2104
10647TIP3    H153356   5.038   4.938   6.314 -0.8432  2.8254 -1.4623
10647TIP3    H253357   5.168   4.895   6.250 -0.0078  1.7241  0.9003
10648TIP3   OH253358   1.287   4.872  14.420 -0.5028  0.2111  0.5304
10648TIP3    H153359   1.257   4.881  14.329 -1.2137 -1.0554  0.6298
10648TIP3    H253360   1.221   4.816  14.461 -0.2312  0.8579  1.8573
10649TIP3   OH253361   1.210   1.812   2.771 -0.3870  0.1755 -0.0554
10649TIP3    H153362   1.161   1.791   2.691  2.1368 -2.3269 -1.0496
10649TIP3    H253363   1.176   1.751   2.836 -0.4329  0.2315 -0.0271
10650TIP3   OH253364   3.098   3.610  14.062 -0.7535  0.5750 -0.0644
10650TIP3    H153365   3.094   3.551  14.137  2.2754  0.3652  0.0204
10650TIP3    H253366   3.102   3.552  13.985  0.0746  0.6674 -0.1070
10651TIP3   OH253367   2.831   2.882  12.761  0.0753  0.1851  0.7873
10651TIP3    H153368   2.925   2.891  12.746 -0.0802  0.4428 -0.0781
10651TIP3    H253369   2.813   2.940  12.835  0.6020  0.1162  0.9703
10652TIP3   OH253370   4.294   5.828   2.503 -0.0479  0.3849  0.9837
10652TIP3    H153371   4.305   5.733   2.503 -2.3454  0.0897  2.6114
10652TIP3    H253372   4.365   5.860   2.559  0.7668 -0.3532  0.3916
10653TIP3   OH253373   0.398   5.728  13.049 -0.1557 -0.3291  0.0895
10653TIP3    H153374   0.381   5.634  13.048 -0.7823 -0.2073 -1.2790
10653TIP3    H253375   0.312   5.768  13.064 -0.2656  0.1034 -1.6665
10654TIP3   OH253376   3.904   3.428  14.243 -0.8392  0.1021 -0.6702
10654TIP3    H153377   3.859   3.387  14.169  0.3666  0.6709 -1.7353
10654TIP3    H253378   3.939   3.354  14.292  0.6857 -0.2014 -2.1761
10655TIP3   OH253379   2.612   1.532   0.430  0.1466 -0.2015  0.1447
10655TIP3    H153380   2.541   1.496   0.484 -0.2951  1.1215  0.4488
10655TIP3    H253381   2.691   1.490   0.465 -0.0597  1.1137  2.2641
10656TIP3   OH253382   6.612   6.421  11.796 -0.5601 -0.2774  0.3423
10656TIP3    H153383   6.653   6.503  11.824  1.6640 -0.9795 -0.7079
10656TIP3    H253384   6.557   6.447  11.721  1.0975  0.0918 -0.7752
10657TIP3   OH253385   3.616   6.034   6.053 -0.0807 -0.4431  0.5130
10657TIP3    H153386   3.618   6.014   5.959 -0.3784 -1.3980  0.7090
10657TIP3    H253387   3.642   5.952   6.096  0.9089  0.2286  1.2353
10658TIP3   OH253388   4.007   5.967   0.234 -0.5997 -0.8373 -0.6918
10658TIP3    H153389   3.947   5.957   0.307 -0.0922 -1.6530 -0.3699
10658TIP3    H253390   3.955   5.943   0.157 -1.7552  2.1071 -0.8824
10659TIP3   OH253391   3.349   1.138  14.525  0.2590 -0.0030 -0.4478
10659TIP3    H153392   3.294   1.095  14.590 -0.6538  0.3264 -0.9817
10659TIP3    H253393   3.435   1.146  14.566 -0.7748  1.8966  1.4636
10660TIP3   OH253394   0.787   5.658  13.652  0.0029 -0.0307  0.7354
10660TIP3    H153395   0.832   5.687  13.573 -0.8622  0.5524  0.4508
10660TIP3    H253396   0.767   5.566  13.636  0.9231 -0.2342  0.7824
10661TIP3   OH253397   5.666   2.703  16.730  0.3025 -0.1174  0.5251
10661TIP3    H153398   5.586   2.745  16.761 -0.1012  0.0858 -0.7358
10661TIP3    H253399   5.716   2.685  16.809 -0.2444  1.2740  1.2070
10662TIP3   OH253400   6.192   1.199  15.711  0.3033 -0.5033  0.3690
10662TIP3    H153401   6.214   1.117  15.666 -0.5451 -0.7230  0.3420
10662TIP3    H253402   6.261   1.210  15.776 -0.1498 -1.8011  1.0934
10663TIP3   OH253403   6.549   0.385  14.564 -0.0519 -0.3623 -0.1661
10663TIP3    H153404   6.559   0.464  14.510 -0.6054 -0.2854 -0.1643
10663TIP3    H253405   6.638   0.351  14.574  0.2885  0.6848  0.4545
10664TIP3   OH253406   3.788   5.262  17.205  0.0101  0.4906 -0.9445
10664TIP3    H153407   3.852   5.300  17.265 -0.9433  0.8058 -0.1126
10664TIP3    H253408   3.703   5.279  17.246 -0.5285 -1.2723 -1.2664
10665TIP3   OH253409   1.094   4.278  12.881 -0.2911 -0.2653  0.1526
10665TIP3    H153410   1.093   4.209  12.814  0.9280  0.4817 -0.6647
10665TIP3    H253411   1.018   4.332  12.861  0.7558  0.6696 -1.4213
10666TIP3   OH253412   5.161   4.685  16.307  0.0678 -0.0186  0.0735
10666TIP3    H153413   5.130   4.677  16.217  0.1323 -1.1390  0.1392
10666TIP3    H253414   5.111   4.758  16.343  0.4702  0.8126 -1.0397
10667TIP3   OH253415   2.914   2.814   5.236  0.2916  0.2086 -0.6846
10667TIP3    H153416   2.914   2.728   5.278  0.4193  1.3543  1.7528
10667TIP3    H253417   2.990   2.859   5.274  0.8158  1.0714 -2.6710
10668TIP3   OH253418   6.590   6.404  16.233 -0.2972  0.6117  0.1673
10668TIP3    H153419   6.616   6.343  16.302  2.0359  1.5027  0.1299
10668TIP3    H253420   6.524   6.356  16.182  1.1384 -1.6957  0.4114
10669TIP3   OH253421   0.415   4.300  15.241 -0.0844 -0.6041 -0.5060
10669TIP3    H153422   0.477   4.239  15.281 -0.2994  0.4531  1.5199
10669TIP3    H253423   0.469   4.374  15.212 -0.0661 -0.8651 -1.1285
10670TIP3   OH253424   5.278   0.608   5.720 -0.3774 -0.1508  0.2204
10670TIP3    H153425   5.370   0.625   5.738 -0.5384  0.5170  0.4461
10670TIP3    H253426   5.270   0.513   5.723  0.3957 -0.2327 -0.2797
10671TIP3   OH253427   3.052   0.946  17.108  0.4622 -0.2697  0.1278
10671TIP3    H153428   3.073   0.857  17.138  0.2677 -0.6643 -0.8858
10671TIP3    H253429   3.098   1.003  17.169  0.9311 -1.0702  0.5404
10672TIP3   OH253430   6.565   6.244  13.714 -0.3232  0.3175 -0.2357
10672TIP3    H153431   6.488   6.213  13.762 -0.1864  1.7488  0.9724
10672TIP3    H253432   6.636   6.187  13.743 -0.8078 -0.6463 -0.9231
10673TIP3   OH253433   6.777   5.789  12.256  0.3562 -0.1056 -0.5748
10673TIP3    H153434   6.748   5.719  12.315  1.4596  0.8307  1.1563
10673TIP3    H253435   6.866   5.763  12.232  1.5288  1.6458  1.6878
10674TIP3   OH253436   4.627   5.357   2.684 -0.7163 -0.0302  0.6402
10674TIP3    H153437   4.680   5.421   2.731 -1.0661  1.0419 -0.4018
10674TIP3    H253438   4.689   5.313   2.625 -1.4783  3.4673 -2.9565
10675TIP3   OH253439   3.504   5.454  14.249 -0.8201 -0.0858 -0.1591
10675TIP3    H153440   3.442   5.477  14.318 -1.1726 -0.6374 -0.2936
10675TIP3    H253441   3.462   5.383  14.201  0.4845 -1.3931  0.5916
10676TIP3   OH253442   5.590   6.738  10.574 -0.0403  0.8034  0.1896
10676TIP3    H153443   5.530   6.714  10.503  0.4702 -0.5857  0.2214
10676TIP3    H253444   5.622   6.825  10.550  0.8948 -0.0605 -1.7962
10677TIP3   OH253445   5.946   4.988   1.643 -0.3310  0.5924 -0.1070
10677TIP3    H153446   5.864   4.959   1.684 -0.3861  1.5478  0.4765
10677TIP3    H253447   5.919   5.027   1.559 -0.6124  1.9737  0.6082
10678TIP3   OH253448   5.292   2.201   0.037 -0.0170  0.5284  0.0758
10678TIP3    H153449   5.327   2.290   0.033  0.7662  0.2200 -0.1970
10678TIP3    H253450   5.203   2.211   0.071  0.2179  1.3713  0.4569
10679TIP3   OH253451   0.795   5.123   4.404  0.1002 -0.1831 -0.4675
10679TIP3    H153452   0.822   5.136   4.495  2.8950 -0.6084 -1.1699
10679TIP3    H253453   0.709   5.082   4.409 -0.2209  0.7711  1.9732
10680TIP3   OH253454   5.623   0.386   0.826  0.4367 -0.0758  0.0451
10680TIP3    H153455   5.703   0.334   0.830  1.0405  0.9464  1.3215
10680TIP3    H253456   5.553   0.323   0.842  1.1551 -0.5148  1.4910
10681TIP3   OH253457   0.796   2.908  13.313 -0.0585 -0.1505  0.2459
10681TIP3    H153458   0.835   2.979  13.364  0.7084 -1.7705  1.9303
10681TIP3    H253459   0.853   2.833  13.327 -0.8703 -1.1423 -1.5164
10682TIP3   OH253460   0.427   5.949  12.366 -0.0134  0.4983  0.9284
10682TIP3    H153461   0.491   5.890  12.405  0.1872  2.0579  3.0489
10682TIP3    H253462   0.475   6.030  12.351 -0.6887  0.6533 -0.4708
10683TIP3   OH253463   3.754   0.110   0.535 -0.1402 -0.5557  0.3034
10683TIP3    H153464   3.697   0.033   0.541  0.6949 -1.2521 -0.6058
10683TIP3    H253465   3.818   0.087   0.468  0.7268  0.5483  0.7478
10684TIP3   OH253466   1.842   0.817   2.296  0.4800  0.5681  0.4151
10684TIP3    H153467   1.926   0.788   2.333 -0.4080  0.0795  2.0949
10684TIP3    H253468   1.789   0.840   2.373 -0.8081  1.1854 -0.6515
10685TIP3   OH253469   2.985   5.287  14.232  0.0791  0.3075 -0.1564
10685TIP3    H153470   2.921   5.342  14.188  0.6014  0.4141 -0.7801
10685TIP3    H253471   2.932   5.224  14.282 -0.5092  0.3480 -0.7221
10686TIP3   OH253472   0.948   0.657   4.877  0.1422 -0.1097 -0.5845
10686TIP3    H153473   0.897   0.580   4.851  0.7145 -1.2533  1.5759
10686TIP3    H253474   0.913   0.728   4.823 -1.3730 -1.5855 -1.5971
10687TIP3   OH253475   0.071   5.605  11.610 -0.4585  0.3670 -0.1993
10687TIP3    H153476   0.108   5.556  11.537 -3.0008 -2.5695  0.3563
10687TIP3    H253477   0.137   5.599  11.679 -0.7795 -2.6297 -0.0523
10688TIP3   OH253478   5.777   5.019   0.597  0.2877  0.6199  0.0412
10688TIP3    H153479   5.839   4.998   0.667 -2.1030 -1.2474  1.6627
10688TIP3    H253480   5.793   4.951   0.531  0.5886  0.7005  0.0278
10689TIP3   OH253481   5.513   3.031   0.442  0.6604  0.2602 -0.0008
10689TIP3    H153482   5.540   2.961   0.502 -0.3410  1.1493  1.5175
10689TIP3    H253483   5.492   2.985   0.361 -0.2406 -1.2677  1.0519
10690TIP3   OH253484   0.670   2.529  17.198 -0.3483 -0.2018 -0.2846
10690TIP3    H153485   0.614   2.523  17.276 -0.8234 -2.7516 -0.7934
10690TIP3    H253486   0.720   2.448  17.198  1.6272  0.9709 -1.1927
10691TIP3   OH253487   6.495   3.340   1.995  0.3823 -0.1403 -0.3911
10691TIP3    H153488   6.533   3.333   1.908 -0.4201  0.3699 -0.7909
10691TIP3    H253489   6.511   3.254   2.035  0.0586 -0.6473 -1.3272
10692TIP3   OH253490   2.685   3.224   2.526 -0.0409  0.1250  1.0310
10692TIP3    H153491   2.737   3.218   2.606 -0.1488  1.0989  1.1756
10692TIP3    H253492   2.710   3.146   2.476  0.7678  0.0259  1.5697
10693TIP3   OH253493   1.666   2.917   0.918  0.2479 -0.1156  0.3534
10693TIP3    H153494   1.635   2.955   0.835 -0.5085 -0.2381  0.5764
10693TIP3    H253495   1.672   2.823   0.901  0.4152 -0.1029  0.3391
10694TIP3   OH253496   4.582   6.525  13.774  0.4077 -0.3117 -0.3724
10694TIP3    H153497   4.641   6.452  13.755  1.2899  0.3681 -0.2955
10694TIP3    H253498   4.607   6.553  13.863 -1.7149 -1.6123  0.6505
10695TIP3   OH253499   4.834   5.214  13.456 -0.1276 -0.1651 -0.0067
10695TIP3    H153500   4.903   5.158  13.493  1.8493  2.1097 -0.1477
10695TIP3    H253501   4.839   5.199  13.362  1.0610  0.9434 -0.1332
10696TIP3   OH253502   5.178   2.566   4.276 -0.0916  0.7829  0.2789
10696TIP3    H153503   5.249   2.525   4.325 -1.5344 -1.5165  0.4991
10696TIP3    H253504   5.174   2.656   4.310  1.8929  0.5754  1.1008
10697TIP3   OH253505   1.070   2.187   3.621  0.0047 -0.7129  0.1627
10697TIP3    H153506   1.039   2.182   3.711 -1.0792 -0.2257 -0.1745
10697TIP3    H253507   1.140   2.122   3.616  0.2102 -0.6014  1.4025
10698TIP3   OH253508   5.903   2.265  14.831 -0.0334 -0.0718  0.3585
10698TIP3    H153509   5.921   2.286  14.923 -0.4806 -1.9200  0.8907
10698TIP3    H253510   5.948   2.181  14.817  1.3625  0.9661 -1.5597
10699TIP3   OH253511   3.399   0.795  12.887 -0.1098 -0.6114 -0.0806
10699TIP3    H153512   3.367   0.791  12.977 -1.2949  1.2787 -0.3858
10699TIP3    H253513   3.327   0.761  12.834 -0.4693  0.7879 -0.5160
10700TIP3   OH253514   5.968   4.054   4.668 -0.0044  0.0713 -0.0587
10700TIP3    H153515   5.895   3.995   4.650  0.3641  0.1885 -2.0957
10700TIP3    H253516   5.941   4.137   4.630 -0.0599  0.9415  1.8424
10701TIP3   OH253517   4.047   0.125   2.806 -0.5909  0.0496  0.7713
10701TIP3    H153518   4.010   0.213   2.817  1.9732  1.0002  2.1026
10701TIP3    H253519   4.141   0.136   2.821 -0.3409 -3.0727  1.8036
10702TIP3   OH253520   5.089   1.900  14.375  0.5137  0.0485  0.8413
10702TIP3    H153521   5.086   1.885  14.470  0.5648 -1.2319  0.6475
10702TIP3    H253522   5.028   1.836  14.338 -1.0227  1.8730  0.1406
10703TIP3   OH253523   1.436   6.101  16.948 -0.4580  0.3394  0.4798
10703TIP3    H153524   1.482   6.159  17.008 -0.3019  0.7206 -0.0053
10703TIP3    H253525   1.449   6.013  16.985 -1.3440  0.6854  1.6320
10704TIP3   OH253526   4.401   5.715  14.903  0.0556 -0.0885 -0.3228
10704TIP3    H153527   4.471   5.761  14.856  0.8214  0.2060  1.0580
10704TIP3    H253528   4.337   5.783  14.923  0.4501  0.0966  0.3553
10705TIP3   OH253529   6.782   2.818  10.200  0.4745  0.0807 -0.3875
10705TIP3    H153530   6.870   2.817  10.239  1.6261  4.1105 -2.5695
10705TIP3    H253531   6.734   2.882  10.253 -1.6010 -3.0090  1.5623
10706TIP3   OH253532   5.914   0.211  15.288 -0.2169 -0.3287 -0.1724
10706TIP3    H153533   5.827   0.194  15.252 -0.0267 -1.1151 -0.2537
10706TIP3    H253534   5.938   0.131  15.334  0.0782  0.2170  0.6473
10707TIP3   OH253535   3.759   1.786   4.764 -0.1465  0.4170 -0.1809
10707TIP3    H153536   3.751   1.772   4.858  0.4517 -0.1837 -0.2174
10707TIP3    H253537   3.670   1.804   4.734 -0.5555 -0.8823  0.2496
10708TIP3   OH253538   1.062   5.084  11.811  0.7009 -0.1430 -0.3420
10708TIP3    H153539   1.116   5.007  11.829  1.2558 -0.0029 -1.3616
10708TIP3    H253540   1.121   5.158  11.821  0.2155  0.1437  0.4321
10709TIP3   OH253541   1.266   0.178  13.402 -1.0069  0.4169 -0.2304
10709TIP3    H153542   1.304   0.136  13.479 -3.4793  1.3129  1.5472
10709TIP3    H253543   1.274   0.271  13.420 -0.7428  0.6513 -1.5290
10710TIP3   OH253544   3.387   3.343  13.618 -0.0590  0.1691 -0.3052
10710TIP3    H153545   3.464   3.317  13.667  0.2845  1.2938 -0.2371
10710TIP3    H253546   3.317   3.347  13.683 -0.0846 -0.4503 -0.2947
10711TIP3   OH253547   6.167   3.984  14.146  0.1292  0.3608  0.7100
10711TIP3    H153548   6.216   4.065  14.135 -0.2278  0.5770  0.6924
10711TIP3    H253549   6.082   4.002  14.105  0.7438 -0.6996 -1.1202
10712TIP3   OH253550   0.927   1.351   0.584  0.4209  0.0678  0.5211
10712TIP3    H153551   0.894   1.275   0.536  1.9835  0.2091 -0.8319
10712TIP3    H253552   0.928   1.421   0.519  0.2091  0.9122  1.4254
10713TIP3   OH253553   1.670   3.507  12.441 -0.3593 -0.1443  0.0081
10713TIP3    H153554   1.721   3.431  12.466  0.5532  0.7440  0.8938
10713TIP3    H253555   1.635   3.485  12.355 -1.6566 -2.3206  1.0416
10714TIP3   OH253556   3.269   2.818  11.412  0.0353  0.5485  0.3523
10714TIP3    H153557   3.244   2.741  11.463 -0.0230 -1.3704 -2.4492
10714TIP3    H253558   3.186   2.858  11.388 -0.0374  0.0673 -0.2277
10715TIP3   OH253559   0.519   2.909   3.250 -0.0562 -0.2364 -0.0191
10715TIP3    H153560   0.590   2.893   3.312 -0.6999  0.3895  0.8797
10715TIP3    H253561   0.451   2.847   3.273  0.5072 -1.3960 -1.4033
10716TIP3   OH253562   1.219   3.168   2.761 -0.0436  0.4818  0.3132
10716TIP3    H153563   1.167   3.203   2.834  2.9364 -0.4568  3.0299
10716TIP3    H253564   1.227   3.075   2.782  2.3675  0.5497 -0.2635
10717TIP3   OH253565   5.504   5.369  10.448  0.1922  0.1515  0.7930
10717TIP3    H153566   5.598   5.364  10.465  0.4541  2.1514  0.0120
10717TIP3    H253567   5.481   5.283  10.412  1.6320 -0.4784  1.3629
10718TIP3   OH253568   2.245   4.810   3.316 -0.0759 -0.2884 -0.0243
10718TIP3    H153569   2.324   4.789   3.366  0.3878  1.7544  0.1486
10718TIP3    H253570   2.183   4.840   3.382 -0.1830  0.3830 -0.4268
10719TIP3   OH253571   1.981   2.135   4.561  0.2719  0.7199 -0.5492
10719TIP3    H153572   2.002   2.098   4.475 -1.1593  1.0060 -1.0329
10719TIP3    H253573   2.014   2.225   4.556 -1.4774  1.3349 -1.4964
10720TIP3   OH253574   1.584   4.283   0.979  0.0969 -0.0749 -0.3128
10720TIP3    H153575   1.619   4.372   0.980 -1.5392  0.5866  0.8686
10720TIP3    H253576   1.493   4.292   1.008 -0.3768 -2.0215 -1.0783
10721TIP3   OH253577   1.162   2.945  16.248 -0.3163 -0.1531 -0.2275
10721TIP3    H153578   1.152   2.855  16.215  0.7033  0.1440 -1.3904
10721TIP3    H253579   1.084   2.990  16.219  0.0997 -0.1619 -1.3709
10722TIP3   OH253580   4.309   1.617  14.486 -0.4222 -0.1645 -0.6225
10722TIP3    H153581   4.286   1.691  14.543 -1.5336 -1.3938  0.5442
10722TIP3    H253582   4.237   1.612  14.423 -1.0299 -1.0789  0.1311
10723TIP3   OH253583   4.080   6.230   4.903  0.2040 -0.0297 -0.0800
10723TIP3    H153584   4.088   6.159   4.840  0.5961  1.7098 -2.0547
10723TIP3    H253585   4.170   6.256   4.921  0.0027  1.9283 -1.7178
10724TIP3   OH253586   1.193   0.912   5.833  0.1299 -0.1178 -0.4705
10724TIP3    H153587   1.199   1.001   5.799  0.4190 -0.0924 -0.3568
10724TIP3    H253588   1.111   0.878   5.798  0.9962 -0.4956 -2.1457
10725TIP3   OH253589   0.047   2.070   2.250  0.3048  0.5382 -0.2404
10725TIP3    H153590   0.081   2.051   2.162  1.8383  2.2427 -0.0589
10725TIP3    H253591   0.124   2.103   2.297 -0.9319  1.3893  1.1823
10726TIP3   OH253592   6.630   4.144   1.999 -0.2703 -0.0218  0.2771
10726TIP3    H153593   6.689   4.202   1.949  0.1161 -0.1140  0.6268
10726TIP3    H253594   6.599   4.081   1.934  0.2070 -0.1224  0.1453
10727TIP3   OH253595   1.355   5.794  16.628  0.1325  0.4997  0.5632
10727TIP3    H153596   1.333   5.729  16.562 -0.6138  0.6386  0.6681
10727TIP3    H253597   1.431   5.840  16.593  1.2059 -1.0008  0.8735
10728TIP3   OH253598   1.656   5.200  12.651 -0.2489  0.2991 -0.0740
10728TIP3    H153599   1.737   5.151  12.663  0.6834  1.8284  0.1433
10728TIP3    H253600   1.601   5.174  12.725  0.4498  0.0091  0.3488
10729TIP3   OH253601   4.804   2.911   6.627  0.0738  0.3783 -0.1556
10729TIP3    H153602   4.856   2.906   6.707  0.2974  1.9726 -0.1925
10729TIP3    H253603   4.808   3.003   6.601 -0.4449 -0.0155 -1.7023
10730TIP3   OH253604   3.079   6.712  10.954 -0.5233  0.2940  0.0218
10730TIP3    H153605   3.027   6.735  10.876 -0.2242  0.5467 -0.1077
10730TIP3    H253606   3.014   6.687  11.019 -0.8016  0.4716 -0.1826
10731TIP3   OH253607   1.809   0.415   4.519  0.4005 -0.4394  0.1039
10731TIP3    H153608   1.728   0.365   4.518 -0.0055  0.2246 -0.4802
10731TIP3    H253609   1.809   0.461   4.603  1.0000 -1.7700  0.8520
10732TIP3   OH253610   4.373   5.346   5.896 -0.4329  0.0252 -0.0994
10732TIP3    H153611   4.379   5.264   5.944 -1.3972 -0.1015 -0.1881
10732TIP3    H253612   4.464   5.373   5.883 -0.1524  0.3975  2.3872
10733TIP3   OH253613   1.432   0.157  13.146  0.1023 -0.0227 -0.1426
10733TIP3    H153614   1.395   0.219  13.209 -0.8886  0.4606 -1.1871
10733TIP3    H253615   1.480   0.094  13.200  0.4097  1.1578  0.9909
10734TIP3   OH253616   4.194   1.716   6.381  0.5038 -0.2425 -0.1669
10734TIP3    H153617   4.197   1.783   6.449  1.5951  0.8508 -1.2330
10734TIP3    H253618   4.117   1.663   6.401 -1.1774  2.1656 -0.0563
10735TIP3   OH253619   5.118   5.450   3.883  0.4528 -0.3391 -0.2563
10735TIP3    H153620   5.157   5.363   3.873  0.0958 -0.5873  0.4605
10735TIP3    H253621   5.031   5.433   3.918  0.3302  0.3017 -0.2479
10736TIP3   OH253622   6.420   2.778  16.326  0.5598  0.0015 -0.0017
10736TIP3    H153623   6.437   2.865  16.362  0.3141  0.8937 -1.9320
10736TIP3    H253624   6.504   2.748  16.293  0.4468 -0.0339 -0.2628
10737TIP3   OH253625   6.104   4.758  16.238  0.1375 -0.7827 -0.2251
10737TIP3    H153626   6.052   4.733  16.315 -0.7965  0.6360 -0.3730
10737TIP3    H253627   6.074   4.700  16.169  0.4909 -1.6054  0.3113
10738TIP3   OH253628   6.406   4.380  14.715 -0.2975 -0.1004 -0.1725
10738TIP3    H153629   6.454   4.308  14.756  0.2113 -0.9887 -2.2903
10738TIP3    H253630   6.410   4.362  14.621 -0.6767  2.3622 -0.7065
10739TIP3   OH253631   0.077   0.723   1.893 -0.3467  0.7251  0.2526
10739TIP3    H153632   0.023   0.786   1.941 -0.3216  0.1990  0.9857
10739TIP3    H253633   0.077   0.755   1.803 -1.4458  1.0368  0.3484
10740TIP3   OH253634   3.214   6.473   5.383 -0.3779 -0.4728  0.1738
10740TIP3    H153635   3.163   6.536   5.332 -0.5573 -0.4749  0.3476
10740TIP3    H253636   3.220   6.513   5.470  1.4915  0.3874 -0.3421
10741TIP3   OH253637   5.068   3.488  15.454 -0.0844  0.1996 -0.1487
10741TIP3    H153638   5.055   3.581  15.471 -0.6974 -0.0221  0.5735
10741TIP3    H253639   5.122   3.457  15.527 -0.0437 -0.0613 -0.2874
10742TIP3   OH253640   2.260   4.362   3.999  0.2491 -0.7153 -0.2769
10742TIP3    H153641   2.219   4.324   4.076  0.7917 -1.4542 -0.3501
10742TIP3    H253642   2.333   4.414   4.033 -0.3896  0.1363 -0.1901
10743TIP3   OH253643   1.552   2.429   5.662  0.0909 -0.0136  0.5326
10743TIP3    H153644   1.626   2.424   5.601 -0.2655 -1.1226  0.1861
10743TIP3    H253645   1.505   2.508   5.636  1.6726  1.2438  1.3617
10744TIP3   OH253646   0.670   2.166   6.151 -0.1287 -0.2536  0.6594
10744TIP3    H153647   0.753   2.120   6.138 -0.6423 -0.7562 -0.9885
10744TIP3    H253648   0.639   2.137   6.236  0.6641 -1.2057  0.6301
10745TIP3   OH253649   3.825   2.565  13.579 -0.6043  0.5436  0.7825
10745TIP3    H153650   3.797   2.630  13.515 -0.2121 -0.4338 -0.3988
10745TIP3    H253651   3.796   2.481  13.543  0.9337 -0.1674  1.1249
10746TIP3   OH253652   4.346   5.552   4.849 -0.3760  0.0633  0.6209
10746TIP3    H153653   4.408   5.624   4.836 -0.8405  0.7916  2.2970
10746TIP3    H253654   4.361   5.493   4.776  0.1013  1.8135 -0.7023
10747TIP3   OH253655   2.495   1.969   3.089 -0.2953 -0.2289  0.6061
10747TIP3    H153656   2.588   1.949   3.082 -0.0759  1.3751 -1.4210
10747TIP3    H253657   2.451   1.886   3.073  0.7625 -0.8755  1.0364
10748TIP3   OH253658   3.583   6.732  14.014  0.0340 -0.2327 -0.6200
10748TIP3    H153659   3.629   6.724  13.931  1.5955  0.7963  0.1424
10748TIP3    H253660   3.523   6.806  14.002  0.2934 -0.0544 -0.8063
10749TIP3   OH253661   3.298   3.065  13.153  0.3103 -0.3277  0.0137
10749TIP3    H153662   3.280   3.085  13.061  0.0655  2.2626  0.5721
10749TIP3    H253663   3.379   3.015  13.152 -0.9982 -2.5358 -1.7677
10750TIP3   OH253664   3.593   4.902   0.063 -0.3223  0.2922 -0.0882
10750TIP3    H153665   3.662   4.909   0.129  0.1838  1.5176 -0.7176
10750TIP3    H253666   3.619   4.965  -0.005 -1.6372  0.1670 -0.7200
10751TIP3   OH253667   5.257   4.874   4.810 -0.2595  0.1091  0.1967
10751TIP3    H153668   5.229   4.961   4.779 -1.9362 -0.1664  0.8501
10751TIP3    H253669   5.323   4.892   4.877 -0.5732  0.8890  0.3022
10752TIP3   OH253670   3.274   0.469   6.050 -0.3897  0.1409  0.3445
10752TIP3    H153671   3.323   0.432   6.124  1.5508  1.3432 -0.3029
10752TIP3    H253672   3.327   0.544   6.022 -2.3732  1.1748 -0.6946
10753TIP3   OH253673   5.542   1.956  12.590 -0.1636  0.0683 -0.3221
10753TIP3    H153674   5.615   1.896  12.583  0.0414  0.3500 -0.6326
10753TIP3    H253675   5.571   2.035  12.544 -0.7750  0.0702 -0.7053
10754TIP3   OH253676   4.609   3.200   3.115 -0.3129 -0.5840  0.2819
10754TIP3    H153677   4.619   3.203   3.020 -0.3060 -2.4106  0.1991
10754TIP3    H253678   4.695   3.171   3.147 -1.1954 -2.9917  0.5893
10755TIP3   OH253679   0.189   4.901   6.350  0.0721  0.2964 -0.3097
10755TIP3    H153680   0.199   4.807   6.333  2.2030  0.2206  1.1009
10755TIP3    H253681   0.247   4.943   6.287  2.0397  0.4150  1.4992
10756TIP3   OH253682   0.273   5.449  13.078 -0.1601 -0.5962 -0.4237
10756TIP3    H153683   0.217   5.468  13.154  0.8596  0.0192  0.1835
10756TIP3    H253684   0.228   5.377  13.033 -2.6269  1.3813 -1.2183
10757TIP3   OH253685   0.635   2.579  12.337  0.1431  0.2931 -0.0578
10757TIP3    H153686   0.718   2.539  12.364  0.8329  0.3023 -2.0750
10757TIP3    H253687   0.598   2.613  12.418  3.3027  2.4991  0.5749
10758TIP3   OH253688   3.623   2.607  12.559 -0.4600 -0.2621  0.3331
10758TIP3    H153689   3.555   2.554  12.600 -0.5039 -1.7634 -1.6160
10758TIP3    H253690   3.686   2.543  12.524  0.6276  1.0288 -0.1167
10759TIP3   OH253691   1.440   4.201   4.411  0.4420 -0.1130  0.1276
10759TIP3    H153692   1.368   4.231   4.467  0.5054  0.0925  0.0973
10759TIP3    H253693   1.399   4.186   4.326 -0.0574 -2.2941  0.7250
10760TIP3   OH253694   4.357   0.705   4.396 -0.0812 -0.3206  0.2637
10760TIP3    H153695   4.359   0.750   4.312 -1.4780 -0.8988 -0.0975
10760TIP3    H253696   4.304   0.627   4.380 -1.1939  0.0666  1.9079
10761TIP3   OH253697   5.297   6.741   0.101  0.2075 -0.5156  0.2583
10761TIP3    H153698   5.234   6.672   0.120  0.0273 -0.3875  0.1167
10761TIP3    H253699   5.377   6.713   0.146 -0.2162 -0.2251  1.2086
10762TIP3   OH253700   6.529   0.957  14.583 -0.1824  0.0950  0.4769
10762TIP3    H153701   6.537   0.877  14.531  1.0950 -0.6879  1.8759
10762TIP3    H253702   6.539   0.929  14.674 -0.2322  1.7695  1.0241
10763TIP3   OH253703   0.716   2.628  14.646  0.4545 -0.8189 -0.0265
10763TIP3    H153704   0.797   2.604  14.689  1.4669  0.9202 -0.9183
10763TIP3    H253705   0.668   2.679  14.711  1.3868  0.6526 -0.4760
10764TIP3   OH253706   0.506   1.569   5.159 -0.5881  0.1647  0.1845
10764TIP3    H153707   0.571   1.608   5.218  0.1696 -0.4947 -0.2086
10764TIP3    H253708   0.483   1.640   5.099 -0.0020  0.3132  0.1297
10765TIP3   OH253709   2.666   3.741   5.536 -0.2514  0.0620 -0.4564
10765TIP3    H153710   2.600   3.708   5.597 -0.9088  1.2340 -0.5048
10765TIP3    H253711   2.745   3.752   5.589 -0.8975  1.3388  0.2581
10766TIP3   OH253712   1.251   1.309  14.776  0.6586  0.0976  0.3040
10766TIP3    H153713   1.188   1.353  14.833  1.0515  1.8823 -0.5902
10766TIP3    H253714   1.337   1.339  14.808  1.0202 -1.4724  0.8332
10767TIP3   OH253715   0.854   1.897   3.105  0.0404 -0.0924 -0.1598
10767TIP3    H153716   0.857   1.817   3.054  0.3448 -0.7485  0.8738
10767TIP3    H253717   0.906   1.878   3.183  0.1094  1.1034  0.0992
10768TIP3   OH253718   2.686   6.604   4.864 -0.0159  0.3140  0.2319
10768TIP3    H153719   2.658   6.682   4.816  0.7541  0.7854  0.5332
10768TIP3    H253720   2.623   6.596   4.936 -0.6227  0.1416 -0.3171
10769TIP3   OH253721   3.895   0.099  11.807  0.2669  0.1922  0.3882
10769TIP3    H153722   3.808   0.061  11.799  0.2243 -0.2918  2.7018
10769TIP3    H253723   3.943   0.068  11.730 -1.0772 -0.9435 -0.0006
10770TIP3   OH253724   0.839   4.963  14.059  0.8711  0.0138 -0.0039
10770TIP3    H153725   0.806   4.874  14.053 -0.1805  0.3931  0.1454
10770TIP3    H253726   0.781   5.007  14.122  0.9520  0.9859 -0.5942
10771TIP3   OH253727   5.782   5.329   1.168  0.6314 -0.5535 -0.0522
10771TIP3    H153728   5.759   5.325   1.261  0.5237  1.9615  0.0693
10771TIP3    H253729   5.727   5.263   1.127 -0.2019 -0.8581  1.5239
10772TIP3   OH253730   1.230   2.158  12.251 -0.3705 -0.2465 -0.1825
10772TIP3    H153731   1.320   2.166  12.221 -0.3667  1.6511  0.3070
10772TIP3    H253732   1.178   2.147  12.171 -0.2445  3.6014 -0.8487
10773TIP3   OH253733   3.756   2.545   1.466 -0.3757  0.3241 -0.0918
10773TIP3    H153734   3.735   2.451   1.469  0.1807  0.1718 -0.9130
10773TIP3    H253735   3.791   2.564   1.553  0.7859 -0.5427 -0.3501
10774TIP3   OH253736   2.838   5.752   4.402 -0.5363  0.1743 -0.4645
10774TIP3    H153737   2.910   5.708   4.447 -0.3488  1.2380  0.2935
10774TIP3    H253738   2.879   5.792   4.325 -1.0825 -2.7179 -2.3354
10775TIP3   OH253739   1.649   5.579  14.936 -0.4681 -0.0727  0.1585
10775TIP3    H153740   1.729   5.536  14.967 -0.1928  0.8333  0.7323
10775TIP3    H253741   1.647   5.562  14.842  0.0054 -0.7379  0.2658
10776TIP3   OH253742   1.396   3.697  14.872  0.6279 -0.2494  0.1967
10776TIP3    H153743   1.402   3.657  14.959  0.8053  1.3205  0.9130
10776TIP3    H253744   1.401   3.791  14.888 -2.5120  0.2183 -1.2249
10777TIP3   OH253745   5.182   2.133   1.013  0.1195 -0.0931  0.2079
10777TIP3    H153746   5.244   2.060   1.001  2.2695  1.4286  1.5826
10777TIP3    H253747   5.236   2.211   1.001 -2.0393  1.2749 -0.6760
10778TIP3   OH253748   1.504   5.162  15.885  0.2004  0.5036 -0.4021
10778TIP3    H153749   1.434   5.119  15.837  0.1227  1.2462 -0.9706
10778TIP3    H253750   1.487   5.142  15.977 -0.2638 -0.0385 -0.6082
10779TIP3   OH253751   5.950   4.346   2.984  0.8529  0.2059 -0.0763
10779TIP3    H153752   5.887   4.278   3.007  1.0005  0.3839  0.8919
10779TIP3    H253753   5.994   4.313   2.906  1.0617 -0.8973  0.4961
10780TIP3   OH253754   4.860   3.208   3.293  0.5322 -0.1426  0.1148
10780TIP3    H153755   4.816   3.256   3.363  1.1600  1.0584 -0.3046
10780TIP3    H253756   4.938   3.260   3.274  1.6833 -1.7703  0.2351
10781TIP3   OH253757   4.665   0.309  16.957 -0.0667  0.1173 -0.2023
10781TIP3    H153758   4.751   0.268  16.969 -0.5528 -0.5631  1.0920
10781TIP3    H253759   4.679   0.375  16.890  1.2577 -0.6233 -0.6774
10782TIP3   OH253760   1.682   0.681   6.249  0.1100 -0.0215  0.1498
10782TIP3    H153761   1.665   0.598   6.206  1.5227 -0.7879  1.0262
10782TIP3    H253762   1.775   0.696   6.236 -0.1102  1.3789  0.0953
10783TIP3   OH253763   3.988   5.268   3.775  0.1415 -0.0152  0.4976
10783TIP3    H153764   3.947   5.185   3.750 -1.4051  1.4994 -2.1184
10783TIP3    H253765   3.927   5.306   3.838 -0.2452  0.1519  0.0235
10784TIP3   OH253766   2.935   1.528   5.160  0.8868 -0.5879 -0.4948
10784TIP3    H153767   3.006   1.566   5.107  1.2959 -1.8260 -0.8546
10784TIP3    H253768   2.979   1.496   5.238  0.5103 -0.1616 -0.1025
10785TIP3   OH253769   2.416   6.576   1.413 -0.0521  0.2670  0.2916
10785TIP3    H153770   2.505   6.555   1.444  0.2908 -0.2269 -0.9983
10785TIP3    H253771   2.365   6.587   1.493  0.9962 -0.2386  1.0426
10786TIP3   OH253772   6.354   5.712   5.393 -0.3311 -0.1427 -0.0349
10786TIP3    H153773   6.292   5.750   5.331  1.0366  0.8067 -0.8704
10786TIP3    H253774   6.348   5.769   5.470 -1.2840 -0.7076  0.3107
10787TIP3   OH253775   2.668   0.983   4.966 -0.1501 -0.3526  0.3925
10787TIP3    H153776   2.586   0.940   4.940  0.0489 -0.4391 -0.1146
10787TIP3    H253777   2.677   1.056   4.904 -1.1671  1.2435  2.0947
10788TIP3   OH253778   4.409   4.132   1.639 -0.2171 -0.1968 -0.0683
10788TIP3    H153779   4.465   4.208   1.659 -0.3197  0.9092 -3.5675
10788TIP3    H253780   4.323   4.156   1.673 -0.2097  1.2179 -1.0121
10789TIP3   OH253781   5.545   5.680   1.090  0.3517 -0.1827 -0.5357
10789TIP3    H153782   5.476   5.732   1.130 -0.4532 -1.3563 -0.3979
10789TIP3    H253783   5.614   5.744   1.070  0.0271  0.6990  1.0582
10790TIP3   OH253784   4.640   1.373  14.585  0.3049  0.3822 -0.2806
10790TIP3    H153785   4.584   1.423  14.645  1.2519 -0.8864  1.7036
10790TIP3    H253786   4.660   1.435  14.514 -0.0663  2.2424  1.1855
10791TIP3   OH253787   6.369   6.349   0.100  0.4909 -0.7874 -0.2882
10791TIP3    H153788   6.395   6.267   0.057 -0.0385 -1.9290  1.5215
10791TIP3    H253789   6.276   6.338   0.119  0.6842 -0.2648  1.0425
10792TIP3   OH253790   5.560   2.236  14.176 -0.1934 -0.0683 -0.2460
10792TIP3    H153791   5.571   2.234  14.272 -0.6534  0.4291 -0.1763
10792TIP3    H253792   5.494   2.170  14.158  0.3484 -0.5970 -0.2828
10793TIP3   OH253793   1.325   6.570  13.296  0.3240  0.5842 -0.2847
10793TIP3    H153794   1.264   6.604  13.231  1.2778  0.2485 -1.3720
10793TIP3    H253795   1.393   6.637  13.304  0.5595  0.3287 -0.1215
10794TIP3   OH253796   2.203   2.014   5.844 -0.1731  0.1787  0.0801
10794TIP3    H153797   2.156   1.968   5.913 -1.1255 -0.2592 -0.8593
10794TIP3    H253798   2.295   1.990   5.858 -0.6175 -1.7488 -0.1939
10795TIP3   OH253799   1.531   3.933  10.772 -0.2524  0.3437  0.3828
10795TIP3    H153800   1.450   3.886  10.752  1.1845 -2.1105  0.1706
10795TIP3    H253801   1.597   3.890  10.718  1.5225  1.1929  1.8359
10796TIP3   OH253802   5.812   5.067   6.266 -0.6246 -0.0135  0.4900
10796TIP3    H153803   5.819   5.148   6.215 -1.5519 -0.3375 -0.1626
10796TIP3    H253804   5.796   5.097   6.355  2.2412  0.5839  0.8378
10797TIP3   OH253805   5.532   0.850   2.168 -0.3669  0.3559 -0.1601
10797TIP3    H153806   5.440   0.875   2.167 -0.7136 -0.9037 -1.0316
10797TIP3    H253807   5.577   0.922   2.124 -0.9083  1.0529  0.4186
10798TIP3   OH253808   1.867   2.583  13.259  0.0056 -0.5410 -0.2139
10798TIP3    H153809   1.810   2.507  13.275 -0.7938  0.2611  0.8459
10798TIP3    H253810   1.814   2.641  13.205 -0.2188  0.2458  0.8430
10799TIP3   OH253811   1.486   4.164  14.031 -0.4474 -0.2857 -0.0069
10799TIP3    H153812   1.471   4.202  13.945 -0.8258  0.7175  0.4987
10799TIP3    H253813   1.448   4.226  14.093  0.9151 -0.3712  0.9631
10800TIP3   OH253814   2.167   6.698   5.598 -0.0397 -0.3888  0.0128
10800TIP3    H153815   2.255   6.734   5.612  0.0338  0.0080 -1.3611
10800TIP3    H253816   2.160   6.626   5.661  0.1527  1.4317  2.1820
10801TIP3   OH253817   3.205   0.500   4.158 -0.5675 -0.0600  0.2938
10801TIP3    H153818   3.253   0.453   4.090  0.8290  3.0371 -0.9516
10801TIP3    H253819   3.272   0.524   4.223 -1.3702 -0.4119  1.2613
10802TIP3   OH253820   3.442   3.394   2.619 -0.2187 -0.5218  0.0141
10802TIP3    H153821   3.454   3.308   2.579  1.6797 -0.4123  0.2872
10802TIP3    H253822   3.354   3.421   2.593  0.2442 -1.2968 -2.4802
10803TIP3   OH253823   0.585   0.931  10.877 -0.3917 -0.1385 -0.2637
10803TIP3    H153824   0.611   0.849  10.918  0.3354  0.4970  0.5548
10803TIP3    H253825   0.667   0.977  10.860 -0.8311  0.7506 -0.0277
10804TIP3   OH253826   1.357   2.757   2.487 -0.7877  0.2319  0.0886
10804TIP3    H153827   1.324   2.693   2.551  0.1315 -1.0027 -0.6521
10804TIP3    H253828   1.452   2.748   2.491 -0.7479 -0.4422 -2.0351
10805TIP3   OH253829   1.897   3.272   4.873  0.8613 -0.3444 -0.5244
10805TIP3    H153830   1.892   3.193   4.819  1.5269 -0.8918  0.1927
10805TIP3    H253831   1.879   3.242   4.962  0.8199  0.3623 -0.2886
10806TIP3   OH253832   2.246   5.277   4.346  0.1510 -0.4874 -0.2197
10806TIP3    H153833   2.198   5.283   4.428  1.1393  0.8174  0.2815
10806TIP3    H253834   2.299   5.357   4.343  0.2791 -0.6039 -2.0277
10807TIP3   OH253835   3.804   0.467  16.628  0.3899  0.3138  0.1209
10807TIP3    H153836   3.724   0.519  16.622  0.5263  0.4722 -0.3803
10807TIP3    H253837   3.873   0.525  16.597  0.3456 -0.5787 -1.7207
10808TIP3   OH253838   3.013   2.113  17.163 -0.5132 -0.3916  0.2827
10808TIP3    H153839   3.072   2.069  17.102 -0.8979 -0.4827 -0.0211
10808TIP3    H253840   3.060   2.193  17.188 -0.8591  0.2261 -1.0242
10809TIP3   OH253841   4.685   5.325   0.326  0.3690 -0.2592  0.4050
10809TIP3    H153842   4.633   5.405   0.321 -1.6027 -1.3766  2.0411
10809TIP3    H253843   4.746   5.339   0.398 -0.1510 -0.3266  0.8577
10810TIP3   OH253844   6.112   6.312   0.177 -0.2438  0.0630 -0.6307
10810TIP3    H153845   6.134   6.219   0.171 -0.1701  0.1725 -2.1432
10810TIP3    H253846   6.043   6.316   0.243 -0.0066 -1.0189 -0.3087
10811TIP3   OH253847   6.168   2.712  12.566  0.8082 -0.2973  0.6381
10811TIP3    H153848   6.179   2.762  12.647  0.8638  2.0768 -0.7893
10811TIP3    H253849   6.216   2.763  12.501 -1.2901 -0.8636 -1.3860
10812TIP3   OH253850   3.844   0.745   6.147 -0.1709  0.0953  0.1782
10812TIP3    H153851   3.829   0.810   6.216  1.3365  0.1806  0.4365
10812TIP3    H253852   3.935   0.718   6.158  0.0907  0.0811 -1.7678
10813TIP3   OH253853   4.220   4.521  10.614 -0.2741  0.3183  0.4035
10813TIP3    H153854   4.255   4.590  10.557 -1.3491 -0.4938 -1.2724
10813TIP3    H253855   4.212   4.445  10.557 -0.8986 -0.6606  1.7765
10814TIP3   OH253856   4.620   3.814  12.009  0.0070  0.1884  0.0376
10814TIP3    H153857   4.618   3.734  12.062  0.8218  0.6129  0.7141
10814TIP3    H253858   4.705   3.854  12.028  0.6240 -0.0354 -2.1602
10815TIP3   OH253859   5.751   5.000   2.405  0.2692  0.9043 -0.3231
10815TIP3    H153860   5.788   5.074   2.453 -0.1515  0.8787  0.0464
10815TIP3    H253861   5.662   5.027   2.384 -0.3392 -0.0220  0.9854
10816TIP3   OH253862   5.813   3.974   1.221  0.1848 -0.2365  0.1015
10816TIP3    H153863   5.882   4.040   1.217 -0.4807  0.4661  0.0557
10816TIP3    H253864   5.793   3.955   1.129 -0.7078  0.6502  0.1088
10817TIP3   OH253865   2.489   2.146   2.280  0.1048  0.4680  0.5930
10817TIP3    H153866   2.434   2.223   2.268  1.7045  1.5205 -0.1798
10817TIP3    H253867   2.474   2.120   2.371 -2.7112 -0.1260 -0.0048
10818TIP3   OH253868   6.237   2.658   0.009  0.0527 -0.2088 -0.1871
10818TIP3    H153869   6.296   2.691  -0.059  0.7646 -0.3157  0.3854
10818TIP3    H253870   6.263   2.567   0.021 -0.6898 -0.4564 -0.4327
10819TIP3   OH253871   3.438   1.585  15.739 -0.2145 -0.6591  0.4976
10819TIP3    H153872   3.430   1.491  15.755  0.2398 -0.9831 -1.1348
10819TIP3    H253873   3.528   1.597  15.710 -0.0378  0.4024  1.4488
10820TIP3   OH253874   2.097   6.541   3.946 -0.1484 -0.1116 -0.3859
10820TIP3    H153875   2.154   6.600   3.897  0.0884  0.9952  1.2060
10820TIP3    H253876   2.110   6.455   3.905  0.1565  0.7692 -2.1453
10821TIP3   OH253877   1.438   5.257  14.546  0.0483 -0.6904 -0.5595
10821TIP3    H153878   1.396   5.335  14.510  0.5421 -0.5525 -0.8411
10821TIP3    H253879   1.449   5.277  14.639 -0.2188 -0.5994 -0.5474
10822TIP3   OH253880   5.889   6.648  14.002 -0.1698 -0.1095  0.2267
10822TIP3    H153881   5.919   6.658  14.092 -1.0835  0.1369  0.5161
10822TIP3    H253882   5.930   6.721  13.955 -0.8025  0.5901  0.7448
10823TIP3   OH253883   3.217   6.125  15.855 -0.3412 -0.2115 -0.3331
10823TIP3    H153884   3.156   6.105  15.784  0.0672  0.5026 -0.8951
10823TIP3    H253885   3.187   6.210  15.889 -0.2399 -0.3186  0.0232
10824TIP3   OH253886   0.902   2.621  13.959  0.2687 -0.0431 -0.0732
10824TIP3    H153887   0.824   2.582  13.999  2.6798 -3.0666  1.9252
10824TIP3    H253888   0.910   2.575  13.875  0.2646 -0.2176  0.0208
10825TIP3   OH253889   4.318   2.066  15.915 -0.7651 -0.2800 -0.2569
10825TIP3    H153890   4.367   2.137  15.875 -0.3952 -1.5301 -2.0990
10825TIP3    H253891   4.242   2.108  15.955  0.7549  1.4335  0.9256
10826TIP3   OH253892   4.863   4.143   4.749  0.1093 -0.1773  0.1921
10826TIP3    H153893   4.800   4.087   4.795  1.0629 -1.7025 -0.2991
10826TIP3    H253894   4.867   4.106   4.660  2.3677 -0.7150  0.4677
10827TIP3   OH253895   0.591   3.170   3.905 -0.4259  0.3326  0.5747
10827TIP3    H153896   0.654   3.107   3.941 -0.2201  1.1121  1.5892
10827TIP3    H253897   0.548   3.122   3.833  0.9573 -0.3734  0.1982
10828TIP3   OH253898   0.857   4.127  15.215  0.1625 -0.2887  0.2568
10828TIP3    H153899   0.878   4.041  15.178 -0.5416 -0.3726  0.0415
10828TIP3    H253900   0.933   4.182  15.194 -0.1352 -0.3903 -1.1241
10829TIP3   OH253901   3.142   4.446  16.980  0.2146 -0.3500 -0.1802
10829TIP3    H153902   3.095   4.430  16.898 -1.2183  0.3165  0.5094
10829TIP3    H253903   3.121   4.371  17.035 -0.3188  0.1242  0.2584
10830TIP3   OH253904   1.474   3.661   0.482  0.3352  0.0968 -0.4220
10830TIP3    H153905   1.502   3.730   0.421  1.2034 -0.9488 -1.2099
10830TIP3    H253906   1.548   3.602   0.487  0.5899  0.5884  2.2950
10831TIP3   OH253907   5.994   5.398   3.575  0.1596  0.1674  0.2827
10831TIP3    H153908   6.049   5.398   3.497 -0.5267  2.4701 -0.2281
10831TIP3    H253909   6.037   5.460   3.635 -1.1515  1.0132  0.3768
10832TIP3   OH253910   1.799   6.779   0.636  0.9135 -0.3461 -0.1096
10832TIP3    H153911   1.873   6.795   0.695 -1.0094  0.8114  2.0959
10832TIP3    H253912   1.769   6.690   0.658  0.5887 -0.1562  0.2235
10833TIP3   OH253913   5.382   5.473  14.782 -0.1621 -0.4202  0.6502
10833TIP3    H153914   5.444   5.527  14.733 -0.9041  0.0455  0.2125
10833TIP3    H253915   5.426   5.389  14.793  0.4704 -0.1518  0.1952
10834TIP3   OH253916   4.007   6.348   1.713 -0.0369 -0.2355  0.0123
10834TIP3    H153917   3.933   6.305   1.670 -0.3969 -0.7293  1.1151
10834TIP3    H253918   4.000   6.440   1.688 -0.4947 -0.4494 -0.6280
10835TIP3   OH253919   3.413   1.703  11.330 -0.6737  0.2944  0.1851
10835TIP3    H153920   3.440   1.742  11.413 -0.2407  0.0315  0.1669
10835TIP3    H253921   3.352   1.634  11.355 -1.2571  0.8155  0.2312
10836TIP3   OH253922   6.408   1.573   2.546  0.2417 -0.2280  0.2946
10836TIP3    H153923   6.445   1.506   2.603 -0.3301  0.1647  1.1367
10836TIP3    H253924   6.461   1.568   2.466  3.0171  1.2196  1.9519
10837TIP3   OH253925   3.411   5.228   3.774  0.1592 -0.7437  0.3377
10837TIP3    H153926   3.394   5.318   3.805 -0.8605 -1.4200  1.7905
10837TIP3    H253927   3.423   5.177   3.854  2.8333 -1.5356 -0.5213
10838TIP3   OH253928   4.968   6.669  16.969  0.3537  0.1470 -0.2841
10838TIP3    H153929   4.944   6.652  17.060  1.3557 -1.7530 -0.3677
10838TIP3    H253930   5.062   6.656  16.965  0.2493 -0.3438 -1.7098
10839TIP3   OH253931   2.015   5.243   5.568 -0.5828  0.4113 -1.1799
10839TIP3    H153932   2.030   5.220   5.477 -0.7196  0.1315 -1.1323
10839TIP3    H253933   2.024   5.339   5.571 -2.2607  0.6071 -1.8176
10840TIP3   OH253934   6.199   1.237   1.245  0.4401 -0.3371 -0.0215
10840TIP3    H153935   6.217   1.157   1.293 -0.4390 -1.0947 -0.9338
10840TIP3    H253936   6.206   1.213   1.153 -0.3600  0.4973 -0.3163
10841TIP3   OH253937   5.172   3.901  11.888 -0.1117 -0.1163 -0.1930
10841TIP3    H153938   5.262   3.867  11.884 -0.8774 -2.2722  0.4189
10841TIP3    H253939   5.172   3.975  11.827  1.5795 -1.2368 -1.6101
10842TIP3   OH253940   3.143   1.073   4.150  0.4422  0.0092 -0.2127
10842TIP3    H153941   3.176   0.983   4.143 -1.0470 -0.6646  1.1649
10842TIP3    H253942   3.048   1.063   4.152  0.2735  1.6141  0.0910
10843TIP3   OH253943   0.047   5.098   2.020  0.5030 -0.3377 -0.4931
10843TIP3    H153944  -0.007   5.161   2.068  1.2525 -0.5927  0.7275
10843TIP3    H253945   0.018   5.013   2.052  1.0801 -0.5080 -0.4142
10844TIP3   OH253946   1.440   3.844   3.676 -0.3552 -0.3735 -0.1284
10844TIP3    H153947   1.474   3.872   3.591 -1.1500 -0.7802 -0.5865
10844TIP3    H253948   1.495   3.770   3.701 -2.6810 -2.9126 -2.2280
10845TIP3   OH253949   1.693   1.847   0.650 -0.0818  0.3682 -0.1193
10845TIP3    H153950   1.741   1.782   0.598 -1.7273  0.2883 -1.6272
10845TIP3    H253951   1.630   1.795   0.701  0.2434  0.5929  0.5105
10846TIP3   OH253952   0.006   4.933   6.014  0.0694 -0.1275  0.3959
10846TIP3    H153953   0.002   5.029   6.019  1.8235  0.0087 -0.5705
10846TIP3    H253954   0.100   4.913   6.012 -0.2953 -1.7819 -1.1400
10847TIP3   OH253955   6.189   1.435   1.846  0.2872  0.2145  0.0642
10847TIP3    H153956   6.101   1.426   1.881 -0.0818 -4.3321 -1.7041
10847TIP3    H253957   6.178   1.483   1.764 -0.5862 -0.5889 -0.2949
10848TIP3   OH253958   0.848   5.604  12.630 -0.0337  0.0730 -0.2372
10848TIP3    H153959   0.896   5.604  12.547 -0.2857  2.5733 -0.4144
10848TIP3    H253960   0.837   5.511  12.651 -0.7887 -0.6385 -3.4760
10849TIP3   OH253961   0.801   6.571  11.095 -0.1944 -0.1945 -0.0449
10849TIP3    H153962   0.880   6.540  11.050  0.7688  1.0485  0.7530
10849TIP3    H253963   0.775   6.649  11.046  0.3842  0.6924  1.0360
10850TIP3   OH253964   3.616   2.299  11.601  0.2924 -0.2274 -0.4710
10850TIP3    H153965   3.584   2.209  11.589 -0.0845 -0.2652  0.6569
10850TIP3    H253966   3.602   2.341  11.517 -0.2160 -1.0251 -0.7999
10851TIP3   OH253967   6.034   6.649  16.958 -0.2552  0.1226  0.1588
10851TIP3    H153968   6.096   6.602  17.014  0.3776 -0.3219 -0.8983
10851TIP3    H253969   6.068   6.638  16.869  0.0624  2.8663 -0.0922
10852TIP3   OH253970   3.442   0.486  15.762  0.1653  0.2111  0.2112
10852TIP3    H153971   3.369   0.505  15.821 -0.6878  1.0655 -1.0875
10852TIP3    H253972   3.499   0.563  15.769  0.1209  0.2624  0.0223
10853TIP3   OH253973   1.801   5.065  12.257  0.0436  0.4731  0.3872
10853TIP3    H153974   1.842   4.991  12.302  1.3207  1.5320  1.0149
10853TIP3    H253975   1.746   5.107  12.323 -1.3583 -0.3901 -0.1975
10854TIP3   OH253976   5.884   2.096  11.865  0.8637 -0.3293  0.5347
10854TIP3    H153977   5.957   2.118  11.808 -0.3393 -0.7118 -1.1895
10854TIP3    H253978   5.806   2.107  11.811 -0.3381 -0.4215  2.1809
10855TIP3   OH253979   6.058   5.025   5.510  0.6555 -0.7893 -0.3269
10855TIP3    H153980   5.999   4.983   5.446  0.1237 -0.4200 -0.0881
10855TIP3    H253981   6.022   5.000   5.595  3.1588 -3.8572 -0.0706
10856TIP3   OH253982   1.703   0.949   0.193 -0.7526  0.0750 -0.2095
10856TIP3    H153983   1.739   0.926   0.279 -1.3359  0.6688  0.2037
10856TIP3    H253984   1.780   0.959   0.137 -0.4444 -1.9047 -0.1708
10857TIP3   OH253985   0.280   2.587   0.975 -0.1014 -0.1067  0.1114
10857TIP3    H153986   0.264   2.577   1.069  0.3291  0.4947  0.2550
10857TIP3    H253987   0.301   2.680   0.965  1.0354 -0.4135 -0.3980
10858TIP3   OH253988   1.095   4.903   1.492 -0.4755 -0.0581 -0.4162
10858TIP3    H153989   1.131   4.948   1.416 -0.5720 -0.5323 -0.7508
10858TIP3    H253990   1.006   4.880   1.465 -0.1439 -1.1914 -0.5746
10859TIP3   OH253991   5.930   5.937  11.511  0.0565 -0.1500  0.5789
10859TIP3    H153992   6.011   5.917  11.557  1.0283  0.2019 -0.9684
10859TIP3    H253993   5.908   5.856  11.464 -0.3501 -0.1606  0.7830
10860TIP3   OH253994   6.474   4.730  17.029  0.0621  0.1791  0.5126
10860TIP3    H153995   6.438   4.700  17.112  0.9752  0.6134  1.0790
10860TIP3    H253996   6.430   4.813  17.012 -1.2552 -0.6469 -0.2273
10861TIP3   OH253997   0.907   4.638  16.701 -0.2594  0.2623  0.0484
10861TIP3    H153998   0.933   4.644  16.793  1.2117  2.4064 -0.4609
10861TIP3    H253999   0.863   4.722  16.684 -0.1010  0.0720 -1.3171
10862TIP3   OH254000   2.211   2.247   5.026 -0.3585  0.4226 -0.1816
10862TIP3    H154001   2.133   2.237   5.081 -1.1197  1.3897 -1.0687
10862TIP3    H254002   2.274   2.184   5.062 -2.3844 -2.1308 -0.9471
10863TIP3   OH254003   1.798   1.854   0.948  0.1272 -0.2719  0.6357
10863TIP3    H154004   1.780   1.808   0.866 -1.6311 -2.6501  2.2667
10863TIP3    H254005   1.891   1.838   0.965  0.5110  0.2842 -0.9216
10864TIP3   OH254006   2.372   2.809  13.420  0.0304  0.7065  0.1533
10864TIP3    H154007   2.388   2.817  13.514 -2.1647  0.0897  0.6280
10864TIP3    H254008   2.352   2.898  13.391 -0.3702  0.7394  0.5145
10865TIP3   OH254009   2.781   3.234  16.374  0.3105  0.4280  0.1706
10865TIP3    H154010   2.844   3.300  16.404  1.7587 -0.8163 -0.0566
10865TIP3    H254011   2.782   3.168  16.443 -0.0176 -0.0716 -0.3018
10866TIP3   OH254012   5.686   4.191  11.726 -0.3481  0.1537  0.4289
10866TIP3    H154013   5.637   4.144  11.793 -1.2442  0.6342  0.1092
10866TIP3    H254014   5.747   4.126  11.691 -0.7065 -0.4253  0.8737
10867TIP3   OH254015   3.833   5.692   4.358  0.2244  0.5758 -0.5143
10867TIP3    H154016   3.846   5.765   4.418 -1.8861  0.4176  0.1762
10867TIP3    H254017   3.894   5.708   4.286 -0.6395  3.3472 -0.6699
10868TIP3   OH254018   6.717   6.771   5.057  0.9307 -0.1856  0.0007
10868TIP3    H154019   6.714   6.683   5.095  2.6638 -0.4617 -0.4625
10868TIP3    H254020   6.752   6.826   5.127 -1.8775  0.5136  0.9177
10869TIP3   OH254021   3.049   4.909  15.500 -0.5809 -0.2156  0.0905
10869TIP3    H154022   2.991   4.952  15.438 -0.3150 -0.6278 -0.4493
10869TIP3    H254023   3.095   4.843  15.448  0.8071  0.5095  0.3698
10870TIP3   OH254024   0.241   3.521   3.285  0.4560 -0.0004 -0.0604
10870TIP3    H154025   0.170   3.494   3.227 -0.5489  0.0106  1.1363
10870TIP3    H254026   0.300   3.571   3.229 -0.9576  0.8048 -0.8602
10871TIP3   OH254027   0.048   5.366  16.867 -0.0683  1.0094  0.3816
10871TIP3    H154028   0.062   5.454  16.901  0.8934  0.6787  0.8705
10871TIP3    H254029  -0.043   5.365  16.839 -0.6558  1.5747  2.1634
10872TIP3   OH254030   6.528   5.082   2.804 -0.3841 -0.4756 -0.2992
10872TIP3    H154031   6.503   4.990   2.802 -1.0993 -0.2938  0.2270
10872TIP3    H254032   6.604   5.086   2.862 -0.3715 -0.7269 -0.3013
10873TIP3   OH254033   3.240   3.370   6.655  0.7732  0.2756 -0.3633
10873TIP3    H154034   3.329   3.386   6.624  1.3534  2.5164  2.3570
10873TIP3    H254035   3.201   3.457   6.663 -0.8799 -0.5444  0.7342
10874TIP3   OH254036   5.203   1.320  13.395  0.3201 -0.3953  0.4061
10874TIP3    H154037   5.148   1.365  13.331 -0.4874 -1.9533 -0.0398
10874TIP3    H254038   5.208   1.230  13.362  0.8600 -0.9368  1.9288
10875TIP3   OH254039   0.132   3.293  14.796 -0.4183 -0.2728 -0.0882
10875TIP3    H154040   0.118   3.250  14.711  1.3906 -0.6909 -0.1893
10875TIP3    H254041   0.136   3.221  14.859  0.6504 -0.1264  0.0161
10876TIP3   OH254042   2.074   0.375  14.541  0.5035  0.2466  0.1110
10876TIP3    H154043   2.008   0.397  14.608  0.6903  0.3488  0.2618
10876TIP3    H254044   2.120   0.300  14.578 -0.8881 -1.1547 -0.9002
10877TIP3   OH254045   3.071   3.065   2.373 -0.7009 -1.4619 -0.0054
10877TIP3    H154046   3.017   3.128   2.326  2.1121  0.7551 -0.4356
10877TIP3    H254047   3.063   3.090   2.465 -0.6919 -1.3498 -0.0350
10878TIP3   OH254048   1.297   4.263  13.197  0.0965  0.5402 -0.3655
10878TIP3    H154049   1.316   4.299  13.284  2.6598 -2.3139  0.3488
10878TIP3    H254050   1.246   4.184  13.214  1.6199 -0.6797 -1.3513
10879TIP3   OH254051   5.712   1.899   5.082 -0.3936  0.2622 -0.1885
10879TIP3    H154052   5.687   1.986   5.114  0.1591  0.4698 -0.3339
10879TIP3    H254053   5.630   1.862   5.048 -0.8760  0.2569  0.9610
10880TIP3   OH254054   5.521   1.608  15.405 -0.2898 -0.1479  0.3479
10880TIP3    H154055   5.456   1.663  15.361 -1.3373 -0.9718  0.8418
10880TIP3    H254056   5.605   1.637  15.370 -1.1386 -1.2370 -2.7813
10881TIP3   OH254057   5.463   2.188   2.910  0.4726  0.0321 -0.5412
10881TIP3    H154058   5.441   2.095   2.908 -1.7446  0.4855  1.1061
10881TIP3    H254059   5.529   2.195   2.979 -0.7408 -0.0707  0.6548
10882TIP3   OH254060   2.778   5.533  11.888 -0.0956 -0.4313  0.0828
10882TIP3    H154061   2.800   5.609  11.941 -3.0695  0.7265 -0.2797
10882TIP3    H254062   2.686   5.516  11.907 -0.2451 -2.1786 -2.0268
10883TIP3   OH254063   4.666   6.577   1.240  0.9421 -0.4397 -0.9290
10883TIP3    H154064   4.635   6.492   1.272 -0.5701 -0.1444 -1.5698
10883TIP3    H254065   4.634   6.582   1.150 -1.3345  1.9485 -0.0598
10884TIP3   OH254066   4.507   5.582  11.772 -0.1598  0.0258 -0.3450
10884TIP3    H154067   4.524   5.529  11.694  2.3529  1.0672 -0.5567
10884TIP3    H254068   4.423   5.626  11.753  0.6513  0.6576 -2.6990
10885TIP3   OH254069   4.456   2.248   1.203  0.0188 -0.4716 -0.6653
10885TIP3    H154070   4.407   2.320   1.163 -1.2198 -1.0136 -0.1482
10885TIP3    H254071   4.389   2.191   1.240  1.1019 -0.4347  1.4308
10886TIP3   OH254072   3.995   1.214   4.593  0.3079  0.2086  0.5044
10886TIP3    H154073   4.056   1.179   4.528  1.6731  1.3459  1.1575
10886TIP3    H254074   4.051   1.257   4.658 -0.9801 -1.6312  2.9055
10887TIP3   OH254075   5.802   1.145  11.665  0.0818 -0.5905 -0.0253
10887TIP3    H154076   5.734   1.081  11.682 -1.0277  0.1959 -1.4360
10887TIP3    H254077   5.806   1.198  11.745  0.2971 -1.7542  0.7429
10888TIP3   OH254078   0.578   5.375   0.266 -0.1175  0.1204 -0.2470
10888TIP3    H154079   0.595   5.431   0.342 -0.4484 -0.1585  0.0340
10888TIP3    H254080   0.665   5.355   0.232  0.0366  0.1747  0.1117
10889TIP3   OH254081   5.127   5.572  13.243  0.2030  0.4604 -0.1943
10889TIP3    H154082   5.172   5.525  13.173  0.7940  0.3303  0.2719
10889TIP3    H254083   5.191   5.635  13.275  0.5257 -0.6357  1.3624
10890TIP3   OH254084   3.973   3.827  15.910  0.0105 -0.2371  0.3840
10890TIP3    H154085   4.011   3.747  15.874  2.3588  0.8924  0.2862
10890TIP3    H254086   3.991   3.894  15.845 -0.1410  0.8010  1.3901
10891TIP3   OH254087   1.008   6.710   4.342  0.5139  0.0906  0.2698
10891TIP3    H154088   1.048   6.645   4.284  0.2527 -0.8592  1.1390
10891TIP3    H254089   1.030   6.680   4.430 -0.5837  0.5623  0.7142
10892TIP3   OH254090   4.973   6.025   0.701  0.1320  0.5763  0.2460
10892TIP3    H154091   5.051   6.001   0.650 -1.1040  0.8849 -1.8228
10892TIP3    H254092   4.938   5.941   0.732  0.9200  0.3949  0.6766
10893TIP3   OH254093   2.890   0.821   5.480  0.3621  0.5454 -0.2277
10893TIP3    H154094   2.841   0.856   5.405  0.6295 -0.4917 -0.8959
10893TIP3    H254095   2.961   0.771   5.441  0.4418 -0.0961  0.7235
10894TIP3   OH254096   4.361   1.711   4.394 -0.3772 -0.5286 -0.0615
10894TIP3    H154097   4.393   1.729   4.306  1.4777 -0.3477  0.6111
10894TIP3    H254098   4.415   1.638   4.425  0.6324  0.9280  1.7581
10895TIP3   OH254099   6.083   5.095   2.755  0.4428  0.0181 -0.4472
10895TIP3    H154100   6.131   5.027   2.708  2.3187  0.1501  1.2290
10895TIP3    H254101   6.150   5.145   2.802 -1.1739  1.1976  0.6955
10896TIP3   OH254102   5.645   2.205   3.155  0.0422  0.0444  0.0116
10896TIP3    H154103   5.601   2.148   3.218  2.7206 -1.3894  0.7040
10896TIP3    H254104   5.659   2.287   3.202 -1.8838  0.5253 -0.2370
10897TIP3   OH254105   2.772   4.063  15.819 -0.3731  0.2098 -1.2156
10897TIP3    H154106   2.723   4.115  15.756 -1.1893  1.6213  0.5289
10897TIP3    H254107   2.709   4.042  15.887  0.8915  0.1666 -0.0317
10898TIP3   OH254108   2.637   3.851   4.389 -0.3577  0.1091  0.7272
10898TIP3    H154109   2.698   3.779   4.370 -0.1368  0.2279  0.9739
10898TIP3    H254110   2.599   3.873   4.304  0.8370  0.8307  0.3528
10899TIP3   OH254111   0.516   1.050  16.936 -0.3073  0.3286 -0.7533
10899TIP3    H154112   0.481   0.961  16.935 -1.6783  0.8075  1.7039
10899TIP3    H254113   0.492   1.086  16.850 -1.6893 -0.9164 -0.9176
10900TIP3   OH254114   2.961   4.458   2.543 -0.0978 -0.2459  0.5340
10900TIP3    H154115   2.950   4.487   2.633  0.5292 -0.2881  0.6290
10900TIP3    H254116   2.991   4.367   2.550 -0.4361 -0.3776  0.2777
10901TIP3   OH254117   5.678   2.075  14.664  0.3963 -0.2609  0.8768
10901TIP3    H154118   5.730   2.083  14.744  0.4622  2.3078  0.6488
10901TIP3    H254119   5.742   2.068  14.594  0.5009  1.9965  0.6819
10902TIP3   OH254120   1.746   6.778  12.010 -0.1401  0.7958  0.5506
10902TIP3    H154121   1.813   6.764  11.943 -1.0883 -0.0002 -0.2580
10902TIP3    H254122   1.739   6.873  12.018 -0.7709  0.9233 -1.2639
10903TIP3   OH254123   0.795   2.194   0.357 -0.1654  0.6767 -0.0017
10903TIP3    H154124   0.707   2.227   0.344 -0.1484  1.5272  1.8008
10903TIP3    H254125   0.847   2.236   0.288 -0.9413  1.1183 -0.3250
10904TIP3   OH254126   2.198   3.008   4.381  0.5620 -0.1696  0.0644
10904TIP3    H154127   2.255   2.937   4.409  0.4044  0.3253  1.6853
10904TIP3    H254128   2.221   3.081   4.438 -0.4598  0.5578 -0.4456
10905TIP3   OH254129   5.419   0.136   1.239  0.2163 -0.2756 -0.2637
10905TIP3    H154130   5.510   0.120   1.264  0.3076  0.2191 -0.2712
10905TIP3    H254131   5.425   0.189   1.160 -0.0844  0.0750 -0.0504
10906TIP3   OH254132   1.451   0.633  13.270  0.0683 -0.0570  0.5308
10906TIP3    H154133   1.363   0.671  13.273 -0.7351 -1.5077 -2.6582
10906TIP3    H254134   1.509   0.704  13.300 -1.9277  1.7960  0.1090
10907TIP3   OH254135   4.318   2.666  12.697 -0.1900  0.6668 -0.1977
10907TIP3    H154136   4.222   2.661  12.696 -0.1383 -0.5254 -0.1543
10907TIP3    H254137   4.338   2.725  12.770 -0.8674 -0.0433  0.5763
10908TIP3   OH254138   1.072   0.416   1.301 -0.0836 -0.1544 -0.1618
10908TIP3    H154139   1.018   0.495   1.296  0.1271 -0.0782 -1.4899
10908TIP3    H254140   1.161   0.448   1.315 -0.0247 -0.1523 -0.5212
10909TIP3   OH254141   3.290   1.693   7.036 -0.0537 -0.5230  0.0460
10909TIP3    H154142   3.271   1.619   6.978  0.2616  0.2513 -1.0608
10909TIP3    H254143   3.274   1.659   7.124  0.5966 -2.0730 -0.4068
10910TIP3   OH254144   1.231   5.740   2.124  0.1800 -0.0212 -0.1096
10910TIP3    H154145   1.159   5.676   2.123 -0.2884  0.4747  1.1532
10910TIP3    H254146   1.223   5.786   2.040 -0.4482 -0.5656 -0.3521
10911TIP3   OH254147   0.271   1.371   0.229 -0.2910 -0.2664  0.2376
10911TIP3    H154148   0.212   1.320   0.285 -1.2016  1.0996  0.5331
10911TIP3    H254149   0.317   1.305   0.177 -0.6587 -1.4591  1.3880
10912TIP3   OH254150   0.448   2.991  13.865 -0.0498  0.8438 -0.5034
10912TIP3    H154151   0.537   3.015  13.892  0.1677 -0.7673  0.2557
10912TIP3    H254152   0.453   2.897  13.848 -1.3427  0.9642 -1.5915
10913TIP3   OH254153   5.011   1.230   4.143  0.3683 -0.1680  0.1286
10913TIP3    H154154   4.947   1.219   4.213  1.1364 -3.2804  0.4106
10913TIP3    H254155   5.096   1.224   4.187  0.8935  2.1624 -0.4940
10914TIP3   OH254156   5.979   4.456   2.439  0.1177 -0.1405  0.0114
10914TIP3    H154157   5.885   4.457   2.458 -0.0351 -1.7085 -0.5694
10914TIP3    H254158   6.021   4.458   2.525 -0.4651 -0.4148  0.3047
10915TIP3   OH254159   5.675   5.150  13.832 -0.2630  0.7405  0.2519
10915TIP3    H154160   5.744   5.206  13.868  1.4412 -1.8047  1.1436
10915TIP3    H254161   5.689   5.065  13.875 -1.8103 -0.7894 -2.1535
10916TIP3   OH254162   0.838   4.869   3.914 -0.2111 -0.0247 -0.3177
10916TIP3    H154163   0.909   4.927   3.943 -1.2529  1.1131  0.0059
10916TIP3    H254164   0.831   4.804   3.984  0.2866  0.0500 -0.1905
10917TIP3   OH254165   1.643   6.613   6.308 -0.8182  0.1871 -0.5060
10917TIP3    H154166   1.653   6.675   6.236  1.1704 -0.7691 -1.0662
10917TIP3    H254167   1.548   6.612   6.324 -1.1129  1.7154 -1.9352
10918TIP3   OH254168   0.181   0.115   2.592  0.1687  0.2063  0.7120
10918TIP3    H154169   0.259   0.160   2.558  0.3009  0.7148  1.6594
10918TIP3    H254170   0.197   0.023   2.575 -0.1151  0.5131 -1.2905
10919TIP3   OH254171   0.806   2.564  11.924  0.0046  0.1330 -0.2619
10919TIP3    H154172   0.723   2.521  11.943  0.0223 -0.7134 -1.9655
10919TIP3    H254173   0.802   2.584  11.830  1.9132 -0.3535 -0.4720
10920TIP3   OH254174   4.208   1.893  15.591  0.0642  0.6528 -0.0749
10920TIP3    H154175   4.159   1.967  15.626 -0.1871  0.9132 -0.9697
10920TIP3    H254176   4.146   1.848  15.533 -0.1429 -0.9214  1.3459
10921TIP3   OH254177   1.502   0.367  13.400  0.2355  0.2732  0.0486
10921TIP3    H154178   1.451   0.394  13.476  1.6804  1.7145  0.5186
10921TIP3    H254179   1.477   0.429  13.332  1.7876  1.3525  0.4508
10922TIP3   OH254180   5.166   0.481   6.046 -0.0458  0.5233  0.5043
10922TIP3    H154181   5.183   0.562   5.998 -0.7247  0.3047 -0.1087
10922TIP3    H254182   5.085   0.498   6.094 -0.2107  0.1994  0.3445
10923TIP3   OH254183   1.205   3.354   4.167 -0.1194  0.6654 -0.6210
10923TIP3    H154184   1.187   3.326   4.077  2.3096 -2.1782 -0.3004
10923TIP3    H254185   1.298   3.373   4.168 -0.0955  0.5158  1.3456
10924TIP3   OH254186   4.584   0.237  14.523 -0.3025 -0.3898 -0.3119
10924TIP3    H154187   4.652   0.298  14.553 -0.1667 -1.6120  1.9410
10924TIP3    H254188   4.632   0.163  14.487 -0.4439 -1.0832  0.9261
10925TIP3   OH254189   4.784   4.765   0.636 -0.5531 -0.2083  0.0421
10925TIP3    H154190   4.762   4.820   0.711  0.3004  0.1420  0.0423
10925TIP3    H254191   4.749   4.812   0.561 -4.0562 -1.9797  0.4353
10926TIP3   OH254192   4.043   5.316  10.719 -0.0302 -1.1209 -0.1829
10926TIP3    H154193   4.106   5.388  10.708  1.5173 -2.1712  1.4788
10926TIP3    H254194   3.958   5.359  10.719  0.7609  0.4916 -1.1694
10927TIP3   OH254195   4.437   5.909   5.943 -0.1707  0.4082 -0.3659
10927TIP3    H154196   4.400   5.838   5.996 -0.7038 -0.3815 -1.7482
10927TIP3    H254197   4.516   5.935   5.989 -0.1878 -0.8205  0.3879
10928TIP3   OH254198   3.682   3.598  15.666  0.0514  0.0016 -0.2526
10928TIP3    H154199   3.665   3.507  15.691 -1.1542  0.5526  1.0665
10928TIP3    H254200   3.614   3.618  15.601  0.1812  0.0189 -0.3821
10929TIP3   OH254201   4.310   4.348  13.229  0.1564 -0.4880  0.1947
10929TIP3    H154202   4.387   4.398  13.202  0.7441 -1.1677  0.5880
10929TIP3    H254203   4.328   4.323  13.319 -0.5706 -0.5719  0.3192
10930TIP3   OH254204   2.292   5.140  14.638  0.4815  0.2310  0.7045
10930TIP3    H154205   2.264   5.202  14.570  1.2485  0.0278  0.1942
10930TIP3    H254206   2.376   5.106  14.606  0.5782 -0.2803  1.4921
10931TIP3   OH254207   0.013   4.619  11.059  0.2804 -0.7448  0.0078
10931TIP3    H154208   0.019   4.535  11.105  3.9078 -0.0639  0.9675
10931TIP3    H254209  -0.004   4.683  11.128 -0.5553 -0.4409 -0.4725
10932TIP3   OH254210   6.521   6.766   0.491  0.3223  0.0958 -0.3965
10932TIP3    H154211   6.510   6.728   0.578 -1.3591  0.3130 -0.5001
10932TIP3    H254212   6.615   6.782   0.483  0.3792  1.0067  1.7793
10933TIP3   OH254213   5.657   4.542   4.605  0.3407  0.1467  0.2612
10933TIP3    H154214   5.569   4.579   4.611 -0.2306 -1.5598  3.4703
10933TIP3    H254215   5.709   4.593   4.667  1.1575 -0.1367 -0.1851
10934TIP3   OH254216   0.201   6.499  16.093 -0.1551 -0.2132 -0.3064
10934TIP3    H154217   0.190   6.423  16.037  2.4779  0.7144 -2.1954
10934TIP3    H254218   0.198   6.464  16.182  0.0484 -2.3784 -1.1244
10935TIP3   OH254219   1.878   0.766   2.836 -0.0971  0.2294  0.7408
10935TIP3    H154220   1.973   0.781   2.838  0.2439 -1.6234 -0.5207
10935TIP3    H254221   1.864   0.692   2.895 -0.8048  0.6739  1.1399
10936TIP3   OH254222   4.697   2.257   1.050 -0.1167 -0.6175  0.0304
10936TIP3    H154223   4.677   2.209   0.970 -0.0158 -1.5726  0.5669
10936TIP3    H254224   4.614   2.263   1.096  0.1305 -1.5120  0.6145
10937TIP3   OH254225   6.392   1.978   2.174 -0.1748 -0.5757  0.4591
10937TIP3    H154226   6.460   2.000   2.111 -1.8085  1.4506 -0.6256
10937TIP3    H254227   6.421   2.018   2.256  0.2516 -0.2706  0.1595
10938TIP3   OH254228   3.888   6.407  14.187 -0.0292 -0.1467  0.2260
10938TIP3    H154229   3.893   6.460  14.267 -1.9091  0.3075  0.0707
10938TIP3    H254230   3.872   6.470  14.117 -0.2926 -0.7222 -0.2385
10939TIP3   OH254231   5.967   4.964  13.608 -0.8113  0.0400  0.1872
10939TIP3    H154232   5.980   5.059  13.596 -0.1458  0.0997  1.3858
10939TIP3    H254233   6.042   4.924  13.564 -1.1075  0.0514 -0.3420
10940TIP3   OH254234   4.078   2.603   5.106 -0.2190 -0.4523 -0.3927
10940TIP3    H154235   4.012   2.655   5.152  0.6691  0.8461 -0.5499
10940TIP3    H254236   4.028   2.551   5.043 -1.3561 -1.6108  1.4242
10941TIP3   OH254237   5.394   1.132  15.529  0.1407 -0.1941  0.5516
10941TIP3    H154238   5.396   1.061  15.593 -3.5781 -1.3986 -0.5559
10941TIP3    H254239   5.378   1.089  15.445  1.9129  1.6424 -0.8011
10942TIP3   OH254240   6.456   6.710   3.491 -0.9670  0.4781 -0.0524
10942TIP3    H154241   6.400   6.697   3.567 -3.8797  0.7691 -2.0844
10942TIP3    H254242   6.482   6.802   3.495 -0.8498  0.4123  0.7384
10943TIP3   OH254243   4.121   2.665   4.719  0.2542  0.6202  0.0594
10943TIP3    H154244   4.138   2.641   4.810  1.3714 -1.0725 -0.5741
10943TIP3    H254245   4.148   2.589   4.668  1.2346  2.1701 -1.8275
10944TIP3   OH254246   1.304   5.685  13.116  0.5417 -0.0224 -0.2699
10944TIP3    H154247   1.341   5.763  13.157 -1.5178 -0.0049  1.6328
10944TIP3    H254248   1.222   5.715  13.077 -1.4897 -1.6299  2.5559
10945TIP3   OH254249   4.122   0.671  12.151  0.4566 -0.0468  0.0890
10945TIP3    H154250   4.170   0.685  12.233 -0.5077 -0.1191  0.6769
10945TIP3    H254251   4.094   0.759  12.124  0.5348 -0.0536 -0.0145
10946TIP3   OH254252   1.853   4.376   1.498 -0.2861  0.5694 -0.1447
10946TIP3    H154253   1.880   4.330   1.418 -0.0545 -0.4100  0.4890
10946TIP3    H254254   1.930   4.427   1.524  0.7628 -1.6480  1.2518
10947TIP3   OH254255   0.308   4.280   4.679 -0.0361  0.4624 -0.5951
10947TIP3    H154256   0.312   4.186   4.659  3.7170  0.4405 -0.0432
10947TIP3    H254257   0.317   4.323   4.594  1.7897  0.3174 -0.4846
10948TIP3   OH254258   1.333   5.946   3.125 -0.2725  0.4104  0.1404
10948TIP3    H154259   1.339   6.028   3.076  0.3920  0.5967  0.5302
10948TIP3    H254260   1.346   5.971   3.216 -1.8973  0.1112  0.4587
10949TIP3   OH254261   0.342   4.555  13.061 -0.3288 -0.3347 -0.1375
10949TIP3    H154262   0.366   4.540  13.153  0.7179 -1.1693 -0.5397
10949TIP3    H254263   0.369   4.475  13.016  0.0952  0.4831 -1.3477
10950TIP3   OH254264   1.660   1.472   3.148  0.1331 -0.4225  0.3764
10950TIP3    H154265   1.740   1.524   3.152  0.2192 -0.2700 -2.6380
10950TIP3    H254266   1.610   1.500   3.225  2.2252  0.6610  1.4045
10951TIP3   OH254267   4.381   4.221  13.456  0.1720 -0.4505 -0.5319
10951TIP3    H154268   4.373   4.251  13.547 -0.9938 -1.0630 -0.4224
10951TIP3    H254269   4.470   4.245  13.430  0.4049 -0.0013  0.6770
10952TIP3   OH254270   0.498   1.349   1.365  0.0054 -0.2643 -0.1614
10952TIP3    H154271   0.451   1.351   1.282 -1.0701 -1.7224  0.3979
10952TIP3    H254272   0.470   1.268   1.407  2.0440 -0.5217  0.7706
10953TIP3   OH254273   1.949   4.526   1.854 -0.4918  0.5517 -0.3407
10953TIP3    H154274   1.927   4.454   1.914  1.4575  0.6483  0.5297
10953TIP3    H254275   1.874   4.585   1.860 -1.6154 -0.8442 -0.2122
10954TIP3   OH254276   1.961   1.737   0.127  0.3115  0.5415 -0.2050
10954TIP3    H154277   1.969   1.819   0.176 -0.2852  1.1648 -1.1382
10954TIP3    H254278   1.936   1.764   0.039 -2.1756 -0.7641  0.0469
10955TIP3   OH254279   3.986   3.253   2.350 -0.3421  0.0778 -0.2179
10955TIP3    H154280   3.956   3.257   2.441 -2.4091  0.1860 -0.8728
10955TIP3    H254281   3.906   3.236   2.300  0.9325 -0.9551 -1.9211
10956TIP3   OH254282   1.918   3.056   2.648  0.2996  0.3840  0.6739
10956TIP3    H154283   1.958   3.123   2.593  0.5651  0.1405  0.5683
10956TIP3    H254284   1.987   3.029   2.708  0.0751  0.4899  0.9837
10957TIP3   OH254285   0.750   0.959  15.273 -0.0733 -0.6497  0.0042
10957TIP3    H154286   0.689   0.936  15.203  1.2947 -1.8050 -0.8454
10957TIP3    H254287   0.783   1.045  15.248 -0.4999 -0.5261 -0.1344
10958TIP3   OH254288   2.489   0.917   6.867  0.4069  0.4648 -0.2848
10958TIP3    H154289   2.407   0.871   6.849  1.4632 -1.4900 -0.2817
10958TIP3    H254290   2.490   0.990   6.806 -0.6510 -0.3521 -1.2915
10959TIP3   OH254291   0.425   0.963   0.846  0.2197 -0.5417  0.5450
10959TIP3    H154292   0.441   1.050   0.881  0.7557  0.2806 -1.6799
10959TIP3    H254293   0.356   0.927   0.902  0.1443  1.2139  1.6188
10960TIP3   OH254294   3.882   6.208   0.136  0.0502 -0.1756  0.3964
10960TIP3    H154295   3.937   6.160   0.198  0.7407  0.6575  0.4279
10960TIP3    H254296   3.940   6.226   0.062 -0.4283 -0.0756  0.0443
10961TIP3   OH254297   2.369   5.543   2.982 -0.2455 -0.2144  0.3133
10961TIP3    H154298   2.311   5.477   2.944 -0.4552  0.4242 -0.4859
10961TIP3    H254299   2.409   5.586   2.906  0.3788  0.1498  0.8414
10962TIP3   OH254300   0.077   1.184   0.311 -0.7548 -0.2925 -0.1887
10962TIP3    H154301   0.031   1.178   0.228 -0.9023  0.3188 -0.1484
10962TIP3    H254302   0.159   1.137   0.296  0.4275  2.0970 -1.5193
10963TIP3   OH254303   2.574   1.073  16.965 -0.1942  0.3733 -0.3514
10963TIP3    H154304   2.597   1.089  17.056  0.2175 -2.5805  0.1132
10963TIP3    H254305   2.483   1.045  16.968 -0.7084  1.8917 -1.0687
10964TIP3   OH254306   1.849   6.326  16.968  0.9188  1.3018 -0.6189
10964TIP3    H154307   1.886   6.414  16.968  1.1872  1.1864 -1.9297
10964TIP3    H254308   1.847   6.299  16.876 -0.6695  0.5632 -0.3925
10965TIP3   OH254309   6.615   6.298  15.893  0.3103 -0.0121 -0.3670
10965TIP3    H154310   6.535   6.350  15.901 -0.5009 -1.1778 -0.6899
10965TIP3    H254311   6.684   6.362  15.875 -1.0345  0.7323 -3.0945
10966TIP3   OH254312   5.719   2.284  12.933  0.4734  0.1403 -0.6791
10966TIP3    H154313   5.643   2.265  12.989  1.2029 -1.2630 -0.1382
10966TIP3    H254314   5.695   2.365  12.888  0.0930  1.6790  2.1264
10967TIP3   OH254315   3.486   5.010   2.270  0.0149  0.5649  0.4395
10967TIP3    H154316   3.558   5.050   2.221 -0.5154  1.2851  0.2387
10967TIP3    H254317   3.529   4.950   2.331  0.8089  1.2867  0.6048
10968TIP3   OH254318   4.637   4.710  15.021  0.0241  0.0878 -0.6900
10968TIP3    H154319   4.663   4.649  15.089 -0.2605  0.2395 -0.4454
10968TIP3    H254320   4.670   4.795  15.051  0.4674  0.0486 -1.0537
10969TIP3   OH254321   5.020   4.460  15.747 -0.2318 -0.1371  0.2425
10969TIP3    H154322   4.949   4.493  15.692 -0.3631 -2.8357 -1.2925
10969TIP3    H254323   4.978   4.398  15.806  0.4607  0.2342  1.1452
10970TIP3   OH254324   4.412   6.369  14.014  0.4466 -0.1714  0.5631
10970TIP3    H154325   4.390   6.452  14.056 -0.2722 -0.1915  0.2290
10970TIP3    H254326   4.507   6.364  14.020  0.4387  0.3681  1.1655
10971TIP3   OH254327   0.377   3.597  13.490 -0.0339 -0.3465  0.0995
10971TIP3    H154328   0.450   3.583  13.550 -0.6136  1.5536  1.2810
10971TIP3    H254329   0.385   3.689  13.463 -1.4880 -0.3591 -0.4187
10972TIP3   OH254330   1.058   5.231   5.111 -0.4629 -0.7198 -0.5310
10972TIP3    H154331   1.052   5.142   5.077  0.6975  0.1209 -3.0078
10972TIP3    H254332   1.149   5.239   5.141 -0.2153  0.0197 -1.4588
10973TIP3   OH254333   3.810   2.783   6.071 -0.0577 -0.0358  0.3020
10973TIP3    H154334   3.888   2.834   6.090 -0.0649  0.5677 -1.1667
10973TIP3    H254335   3.811   2.711   6.133  2.9384 -1.3839 -1.2403
10974TIP3   OH254336   3.160   1.494  11.783  0.1035  0.5364 -0.2265
10974TIP3    H154337   3.092   1.539  11.734  0.1240  1.4713  0.5862
10974TIP3    H254338   3.193   1.426  11.723 -1.1013  0.4915 -0.8398
10975TIP3   OH254339   1.333   2.104  16.657 -0.3726 -0.0039  0.2800
10975TIP3    H154340   1.263   2.148  16.608 -0.7167  0.4828  1.1984
10975TIP3    H254341   1.297   2.018  16.676  0.5670 -0.9841 -2.1207
10976TIP3   OH254342   2.821   6.754  12.660 -0.2921 -0.1208  0.6631
10976TIP3    H154343   2.810   6.746  12.566 -0.6228  1.7767  0.5163
10976TIP3    H254344   2.915   6.765  12.673 -0.3114  0.3175  0.4714
10977TIP3   OH254345   3.995   1.955   4.117 -0.0134 -0.1289  0.0174
10977TIP3    H154346   3.932   1.883   4.116 -2.5966  2.0632  0.7016
10977TIP3    H254347   4.069   1.922   4.065  0.1787 -4.3499  2.6884
10978TIP3   OH254348   1.459   1.611   3.902 -0.5248  0.2308  0.3185
10978TIP3    H154349   1.389   1.592   3.964  0.7613 -0.2049  1.6610
10978TIP3    H254350   1.479   1.703   3.915  0.3160 -0.0670  1.1472
10979TIP3   OH254351   4.236   1.659   1.750 -0.1421  0.5184  0.0008
10979TIP3    H154352   4.175   1.676   1.678  1.3113 -0.0705 -1.3975
10979TIP3    H254353   4.227   1.565   1.768 -0.6924  0.7164  0.7677
10980TIP3   OH254354   2.381   4.112   5.160 -0.0711  0.1569 -0.1831
10980TIP3    H154355   2.476   4.121   5.168 -0.2379  0.3103  2.1069
10980TIP3    H254356   2.353   4.195   5.122  0.4997  1.0537  1.3053
10981TIP3   OH254357   3.191   0.159   0.366 -0.1125 -0.1551 -0.3526
10981TIP3    H154358   3.181   0.069   0.394 -3.3715  0.4260  0.5135
10981TIP3    H254359   3.201   0.154   0.271 -0.3854 -1.3983 -0.3173
10982TIP3   OH254360   4.553   2.653  15.422 -0.2549 -0.4027  0.1461
10982TIP3    H154361   4.549   2.720  15.355  0.6772 -1.5469 -1.0853
10982TIP3    H254362   4.474   2.600  15.409 -1.6443  1.1700  1.9263
10983TIP3   OH254363   5.669   5.572   4.936 -0.1891  0.3574 -0.2519
10983TIP3    H154364   5.755   5.565   4.893 -0.4497 -2.5285 -0.4015
10983TIP3    H254365   5.690   5.598   5.026  0.7644  0.8309 -0.5977
10984TIP3   OH254366   2.487   2.715  16.428 -0.2051  0.4251  0.2613
10984TIP3    H154367   2.543   2.659  16.482  1.1216  0.1204 -1.3458
10984TIP3    H254368   2.410   2.662  16.410 -0.1757  0.1330  0.9930
10985TIP3   OH254369   3.223   5.489  14.086  0.4010 -0.2346  0.1118
10985TIP3    H154370   3.188   5.425  14.148 -0.0434 -0.4149 -0.3217
10985TIP3    H254371   3.296   5.444  14.043 -0.7040 -0.9037 -1.0917
10986TIP3   OH254372   2.618   5.433  12.636 -0.2086  0.0954  0.1966
10986TIP3    H154373   2.697   5.447  12.688  0.0822 -0.9761  0.0423
10986TIP3    H254374   2.611   5.511  12.582  1.2691 -0.2244 -0.4702
10987TIP3   OH254375   5.724   0.492  13.601  0.2734 -0.2966 -0.4344
10987TIP3    H154376   5.714   0.545  13.522  1.9519  1.4219  0.4537
10987TIP3    H254377   5.659   0.528  13.661 -1.7335 -2.2995 -1.3504
10988TIP3   OH254378   3.354   0.597  16.340  0.3592 -0.2099  0.2195
10988TIP3    H154379   3.308   0.609  16.423 -1.4784 -1.1652 -0.6132
10988TIP3    H254380   3.325   0.670  16.285  1.0696  0.0701  0.2184
10989TIP3   OH254381   6.214   0.233  13.394  0.0005  0.5262 -0.7701
10989TIP3    H154382   6.185   0.150  13.358 -1.1690  1.4413 -2.0032
10989TIP3    H254383   6.134   0.285  13.404  0.8751  2.0921 -1.5890
10990TIP3   OH254384   1.516   3.512   3.465  0.1941  0.1366  0.4333
10990TIP3    H154385   1.463   3.570   3.410  1.6593  0.3460 -0.8163
10990TIP3    H254386   1.480   3.425   3.450 -0.0499  0.3294 -0.1126
10991TIP3   OH254387   5.568   2.340  15.930 -0.3822  0.3184  0.4856
10991TIP3    H154388   5.504   2.362  15.997 -0.0970  0.8580  0.5839
10991TIP3    H254389   5.543   2.253  15.900 -0.8669  0.3256  0.8701
10992TIP3   OH254390   1.409   0.556  12.130 -0.1477 -0.1821  0.0266
10992TIP3    H154391   1.395   0.642  12.171  1.6081  0.4709 -0.7075
10992TIP3    H254392   1.373   0.566  12.042  0.4412 -0.0653 -0.2004
10993TIP3   OH254393   0.834   3.739   0.106 -0.0327  0.2097 -0.0475
10993TIP3    H154394   0.843   3.666   0.046 -0.1946 -0.0502  0.2407
10993TIP3    H254395   0.775   3.800   0.062  1.4963  0.9843 -1.0561
10994TIP3   OH254396   0.778   3.955  13.670 -0.5173  0.2240 -0.4289
10994TIP3    H154397   0.800   3.871  13.710 -1.0027  0.2201 -0.1566
10994TIP3    H254398   0.831   3.959  13.590  1.3072  0.7283  0.7819
10995TIP3   OH254399   2.745   2.339  14.700 -0.3466  0.0678  0.4037
10995TIP3    H154400   2.783   2.330  14.788  0.4771  1.5286  0.2112
10995TIP3    H254401   2.654   2.364  14.716 -0.3767 -0.3040  0.8382
10996TIP3   OH254402   3.297   3.969   1.968  0.2993  0.0751  0.3983
10996TIP3    H154403   3.289   4.039   1.904  0.8336  0.0094  0.2564
10996TIP3    H254404   3.373   3.993   2.022  1.8843 -1.4874 -1.0584
10997TIP3   OH254405   1.066   2.122   5.668 -0.3251 -0.4112  0.0691
10997TIP3    H154406   1.130   2.059   5.702  0.1150  1.2544  2.4521
10997TIP3    H254407   0.981   2.083   5.688 -0.0602  0.0056  2.1692
10998TIP3   OH254408   2.509   5.148   5.639 -0.1378 -0.1453  0.5497
10998TIP3    H154409   2.528   5.109   5.724 -1.4002  1.0776  1.4246
10998TIP3    H254410   2.446   5.088   5.598 -2.6053  1.2174  2.1760
10999TIP3   OH254411   6.640   2.349  13.988  0.1858 -0.3974 -0.5857
10999TIP3    H154412   6.718   2.344  14.043  0.1830 -0.6485 -0.6040
10999TIP3    H254413   6.595   2.428  14.018  1.7247  1.1572 -2.2869
11000TIP3   OH254414   3.702   0.311   4.058 -0.5722  0.6479 -0.3531
11000TIP3    H154415   3.731   0.324   4.149  0.8908 -1.1862 -0.5494
11000TIP3    H254416   3.702   0.217   4.046 -0.2865  0.8972 -2.4298
11001TIP3   OH254417   0.078   3.532  12.511  0.0346 -0.1402  0.0620
11001TIP3    H154418   0.016   3.585  12.460 -0.9558 -1.1421  0.2073
11001TIP3    H254419   0.097   3.585  12.588  0.0668  0.5710 -0.4282
11002TIP3   OH254420   4.330   5.233   2.044 -1.1147 -0.1862 -0.0274
11002TIP3    H154421   4.328   5.289   1.967 -1.9626  0.2377  0.2910
11002TIP3    H254422   4.356   5.291   2.116 -1.8826 -0.2162  0.2843
11003TIP3   OH254423   2.342   3.070   1.740 -0.1103 -0.7182 -0.4142
11003TIP3    H154424   2.271   3.132   1.726 -1.2150 -1.5852  1.1617
11003TIP3    H254425   2.388   3.104   1.817  0.9500 -0.3825 -1.1863
11004TIP3   OH254426   2.753   3.908   3.279 -0.2891 -0.1486 -0.0035
11004TIP3    H154427   2.779   3.867   3.197  0.1583  0.5093 -0.1943
11004TIP3    H254428   2.797   3.993   3.279 -1.8117  0.6496  0.0428
11005TIP3   OH254429   5.840   6.706   4.796 -0.1444 -0.4327 -0.0329
11005TIP3    H154430   5.820   6.616   4.770 -2.2219  0.5763 -2.0480
11005TIP3    H254431   5.935   6.713   4.785 -0.2561 -1.7222 -2.0492
11006TIP3   OH254432   4.414   3.591  16.810  0.3947  0.0276 -0.4031
11006TIP3    H154433   4.404   3.663  16.748  2.1492 -0.3807 -1.1988
11006TIP3    H254434   4.488   3.616  16.865 -0.8459  0.1665  1.2505
11007TIP3   OH254435   2.786   6.205   1.577 -0.4836 -0.5560 -0.2305
11007TIP3    H154436   2.775   6.267   1.650  1.7391 -0.4251  0.0255
11007TIP3    H254437   2.773   6.119   1.617 -0.6994 -0.4146  0.0097
11008TIP3   OH254438   4.677   4.406  13.692 -0.2065  0.2909 -0.2633
11008TIP3    H154439   4.658   4.367  13.607  2.2947 -4.4716  1.2118
11008TIP3    H254440   4.754   4.461  13.677  0.8670 -1.3624 -0.8826
11009TIP3   OH254441   0.084   6.498   3.568  0.5261  0.3114 -0.3982
11009TIP3    H154442   0.094   6.576   3.514  2.9898 -0.6096 -1.3191
11009TIP3    H254443   0.159   6.500   3.627  0.4923 -1.2436 -0.2748
11010TIP3   OH254444   5.221   4.821   1.363 -0.0813  0.0275  0.5897
11010TIP3    H154445   5.160   4.830   1.436  0.1469  1.3090  0.6249
11010TIP3    H254446   5.186   4.747   1.312  0.6264 -1.9168  2.8096
11011TIP3   OH254447   1.901   6.172   6.592 -0.1009  0.4044  0.2447
11011TIP3    H154448   1.908   6.181   6.496  0.3662 -1.4990  0.0801
11011TIP3    H254449   1.816   6.210   6.613 -0.2372  0.7908 -0.9272
11012TIP3   OH254450   1.213   2.779  14.427  0.2387 -0.1117  0.5685
11012TIP3    H154451   1.131   2.805  14.468  0.7560  1.4978  0.6374
11012TIP3    H254452   1.190   2.705  14.371 -1.0556 -0.3262  1.3665
11013TIP3   OH254453   6.197   3.869   5.243  0.7397 -0.5009 -0.5829
11013TIP3    H154454   6.102   3.866   5.229  0.5815  2.4416 -0.4812
11013TIP3    H254455   6.208   3.860   5.337  0.5630 -0.7569 -0.5864
11014TIP3   OH254456   2.213   1.303  16.647  0.0773  0.2691 -0.4633
11014TIP3    H154457   2.306   1.283  16.638  0.0332 -0.1759  0.0183
11014TIP3    H254458   2.182   1.315  16.558  0.6653  0.7276 -0.6098
11015TIP3   OH254459   0.972   3.282  13.765 -0.1084  0.7407  0.3914
11015TIP3    H154460   0.910   3.209  13.764 -1.4047  1.8171 -0.5757
11015TIP3    H254461   1.055   3.242  13.790 -0.2821 -1.4896 -2.2875
11016TIP3   OH254462   2.085   2.649  14.440 -0.2260  0.0964  0.7909
11016TIP3    H154463   2.038   2.619  14.518  0.6101  2.8074  2.4123
11016TIP3    H254464   2.130   2.729  14.469  1.3455  0.2962 -2.0645
11017TIP3   OH254465   6.307   0.707   1.560  0.3635 -0.2087 -0.0283
11017TIP3    H154466   6.332   0.640   1.496 -0.6635  1.3030 -2.0714
11017TIP3    H254467   6.227   0.745   1.525  0.7298  1.8518  1.2723
11018TIP3   OH254468   0.509   1.680   2.073  0.4385  0.0973  0.3619
11018TIP3    H154469   0.594   1.708   2.107  0.7193  0.1819 -0.4153
11018TIP3    H254470   0.509   1.706   1.982 -0.8561  1.0412  0.6237
11019TIP3   OH254471   2.435   1.459  12.661  0.2531 -0.3789  0.7073
11019TIP3    H154472   2.347   1.423  12.669 -0.5486  1.5949  0.9966
11019TIP3    H254473   2.459   1.444  12.570 -0.7534 -0.1022  0.3875
11020TIP3   OH254474   1.634   5.378   6.251  0.0324 -0.3275  0.2470
11020TIP3    H154475   1.697   5.305   6.251  0.0582 -0.4115 -3.4941
11020TIP3    H254476   1.681   5.450   6.294  2.1296 -0.8473 -1.1054
11021TIP3   OH254477   1.860   4.708   6.308 -0.7374 -0.8264 -0.0055
11021TIP3    H154478   1.785   4.739   6.359 -2.8473 -2.0346 -2.2369
11021TIP3    H254479   1.917   4.784   6.300 -1.2878 -0.1140  2.4762
11022TIP3   OH254480   6.123   6.199  14.523  0.3593 -0.0948 -0.5757
11022TIP3    H154481   6.201   6.254  14.522  0.1215  0.3121  1.1298
11022TIP3    H254482   6.067   6.237  14.455  1.2771  0.1499 -1.2061
11023TIP3   OH254483   2.258   5.459   1.222  0.2690  0.2146 -0.3711
11023TIP3    H154484   2.227   5.549   1.208 -0.6081 -0.4969 -3.2229
11023TIP3    H254485   2.186   5.415   1.265  0.4563  0.6918  0.4472
11024TIP3   OH254486   5.805   6.550   5.627 -0.2252  0.0889  0.2688
11024TIP3    H154487   5.712   6.557   5.646 -0.0762 -0.8462  1.4430
11024TIP3    H254488   5.842   6.634   5.655 -0.9562  1.1436 -1.8361
11025TIP3   OH254489   6.566   1.964  11.887  0.0340  0.1231 -0.3011
11025TIP3    H154490   6.608   2.017  11.955 -1.5505  0.1474  0.6719
11025TIP3    H254491   6.543   2.027  11.818 -1.0705  0.5758  0.4729
11026TIP3   OH254492   0.474   6.098   0.032 -0.1122  0.3841  0.4918
11026TIP3    H154493   0.533   6.046  -0.022  0.0376  0.4524  0.5861
11026TIP3    H254494   0.387   6.062   0.016  0.1355 -0.6624  1.4582
11027TIP3   OH254495   5.009   3.723  10.726  0.0828 -0.1605 -1.1482
11027TIP3    H154496   4.945   3.775  10.679 -0.0618 -0.2253 -1.0239
11027TIP3    H254497   5.027   3.648  10.669 -0.5223 -0.5377 -0.8464
11028TIP3   OH254498   1.826   6.062  17.173  0.2846 -0.0185 -0.0728
11028TIP3    H154499   1.803   6.053  17.080 -1.6400  1.2537  0.2465
11028TIP3    H254500   1.829   5.972  17.206  0.5739 -0.4596 -1.2727
11029TIP3   OH254501   6.672   5.641  16.462  0.1299  0.6953 -0.6853
11029TIP3    H154502   6.615   5.651  16.386 -0.9750  1.3746  0.2261
11029TIP3    H254503   6.757   5.617  16.425 -0.3735  1.1207 -2.1444
11030TIP3   OH254504   0.082   4.222  16.282 -0.1170  0.0941  0.6732
11030TIP3    H154505  -0.005   4.192  16.259 -0.3861 -0.7211  2.6355
11030TIP3    H254506   0.080   4.316  16.268 -0.4641 -0.2612 -1.8405
11031TIP3   OH254507   5.874   5.708  11.796 -0.2233  0.4651 -0.4860
11031TIP3    H154508   5.813   5.697  11.723 -2.7573  0.5001  1.5793
11031TIP3    H254509   5.895   5.619  11.824 -0.4431  0.4735 -0.2938
11032TIP3   OH254510   3.949   2.226   5.113  0.0329  0.0235  0.2714
11032TIP3    H154511   3.983   2.291   5.052  0.3475 -0.6936 -0.3195
11032TIP3    H254512   3.945   2.272   5.198  1.5787  0.3807  0.1537
11033TIP3   OH254513   5.199   0.262   2.187 -0.8454  0.3350 -0.2596
11033TIP3    H154514   5.201   0.166   2.182  0.0646  0.3024  0.5542
11033TIP3    H254515   5.141   0.281   2.260 -0.5061  0.3779  0.0039
11034TIP3   OH254516   5.516   2.221  14.443  0.0418  0.0518  0.4469
11034TIP3    H154517   5.474   2.169  14.512  2.0436 -0.7057  1.1295
11034TIP3    H254518   5.602   2.242  14.478  0.3565  1.3253 -1.0561
11035TIP3   OH254519   3.996   4.971  11.372  0.1029  0.0113  0.0474
11035TIP3    H154520   3.993   4.928  11.287 -0.5308 -0.9650  0.5481
11035TIP3    H254521   3.966   5.060  11.355 -1.6868 -0.6608 -0.4893
11036TIP3   OH254522   4.981   3.110  17.121 -0.5354 -0.2650  0.2577
11036TIP3    H154523   4.979   3.148  17.033 -1.8562 -2.2488 -0.6000
11036TIP3    H254524   4.893   3.124  17.155 -1.2355 -3.0360 -0.3118
11037TIP3   OH254525   1.636   4.573  11.774 -0.1899  0.1737 -0.5168
11037TIP3    H154526   1.642   4.545  11.866  2.2501  0.9046 -0.4065
11037TIP3    H254527   1.624   4.492  11.725 -1.3794 -0.2370  0.4160
11038TIP3   OH254528   0.078   5.712   5.790  0.4235 -0.4016 -0.5209
11038TIP3    H154529   0.137   5.754   5.727  0.1230 -1.1118 -1.2847
11038TIP3    H254530   0.123   5.631   5.814 -0.4168 -1.1505 -1.4285
11039TIP3   OH254531   5.186   3.303  11.004  0.4827 -0.0264 -0.1678
11039TIP3    H154532   5.221   3.285  10.917  0.5284  2.3443 -0.6822
11039TIP3    H254533   5.097   3.334  10.988  0.3419 -0.0064  0.6432
11040TIP3   OH254534   0.349   2.919   1.810 -0.5813 -0.6763  0.0968
11040TIP3    H154535   0.359   3.001   1.761 -0.2017  0.7229  2.4682
11040TIP3    H254536   0.415   2.861   1.773  1.7259  1.3496  0.9428
11041TIP3   OH254537   6.751   1.813   1.686  0.0900  0.0134 -0.1720
11041TIP3    H154538   6.704   1.732   1.665  1.4028 -0.3670 -1.7801
11041TIP3    H254539   6.843   1.793   1.666  0.9281  0.8174  2.6728
11042TIP3   OH254540   4.594   2.505  16.060 -0.4118  0.4501  0.1103
11042TIP3    H154541   4.667   2.445  16.078  0.4382  0.9484 -1.5966
11042TIP3    H254542   4.516   2.453  16.076  0.2916 -1.5734 -2.6462
11043TIP3   OH254543   1.837   3.471  16.194  0.3894  0.5126  0.7990
11043TIP3    H154544   1.898   3.450  16.265 -0.1140 -0.5265  0.9333
11043TIP3    H254545   1.892   3.474  16.116  0.7501  0.3966  1.0436
11044TIP3   OH254546   2.293   3.562   2.390  0.2211 -0.4701  0.1280
11044TIP3    H154547   2.208   3.596   2.364 -0.0680 -1.0985  0.2329
11044TIP3    H254548   2.296   3.574   2.485  1.2191  1.6964 -0.1598
11045TIP3   OH254549   3.131   0.967   4.886 -0.0435  0.2547  0.2998
11045TIP3    H154550   3.048   0.937   4.923  1.0831 -0.0765  2.6050
11045TIP3    H254551   3.124   1.063   4.887 -0.2282  0.2358  0.8773
11046TIP3   OH254552   0.050   4.755  15.259  0.8871 -0.0595  0.2777
11046TIP3    H154553   0.056   4.660  15.271  1.1956 -0.3042 -1.6028
11046TIP3    H254554  -0.044   4.771  15.247  0.4993  0.2811  3.5037
11047TIP3   OH254555   1.425   1.795  13.931 -0.0479  0.3924  0.3846
11047TIP3    H154556   1.489   1.816  13.999  2.0748  2.3475 -2.1581
11047TIP3    H254557   1.474   1.746  13.866 -2.0627 -1.4426  0.1713
11048TIP3   OH254558   5.995   4.565   0.784 -0.5301  0.2034 -0.5393
11048TIP3    H154559   5.950   4.559   0.700 -1.3720  0.2783 -0.0934
11048TIP3    H254560   6.074   4.617   0.764 -0.0759 -0.8510 -1.5366
11049TIP3   OH254561   3.771   2.367  15.337 -0.2280 -0.5193  0.1183
11049TIP3    H154562   3.757   2.335  15.426 -1.3168  1.2409  0.5909
11049TIP3    H254563   3.774   2.462  15.345 -1.5386 -0.2755 -1.8851
11050TIP3   OH254564   2.028   2.944   4.104  0.3197 -0.2699  0.2421
11050TIP3    H154565   2.017   2.868   4.161  1.8750 -0.2049  0.6478
11050TIP3    H254566   1.942   2.987   4.104  0.4076 -0.0378  2.8719
11051TIP3   OH254567   0.951   4.554  15.029 -0.8010 -0.0429  0.0504
11051TIP3    H154568   1.042   4.541  15.004 -1.5521 -0.0438 -2.8630
11051TIP3    H254569   0.929   4.475  15.080  0.4214 -0.6785 -0.3777
11052TIP3   OH254570   2.271   1.665   4.216  0.0731 -0.0089  0.2691
11052TIP3    H154571   2.193   1.699   4.259  0.1629  1.1879 -0.4908
11052TIP3    H254572   2.248   1.576   4.190 -0.3788 -0.3265  1.7397
11053TIP3   OH254573   1.529   6.162   4.655 -0.2116  0.2484  0.3437
11053TIP3    H154574   1.500   6.190   4.741 -2.0980  3.4235 -1.2367
11053TIP3    H254575   1.461   6.102   4.625  0.3878 -0.7673  0.9821
11054TIP3   OH254576   0.271   1.786  11.500 -0.5219 -0.5544  0.6054
11054TIP3    H154577   0.276   1.879  11.523 -1.3318 -0.4015  0.1695
11054TIP3    H254578   0.285   1.785  11.405  2.0922 -1.1144  0.9715
11055TIP3   OH254579   1.420   0.092   5.221 -0.0574  0.0839 -0.2555
11055TIP3    H154580   1.501   0.066   5.178  0.3724  0.5998  0.2333
11055TIP3    H254581   1.426   0.054   5.309 -0.0835  0.5894 -0.0308
11056TIP3   OH254582   4.353   5.185  10.537  0.1619  0.1769 -0.3948
11056TIP3    H154583   4.429   5.244  10.537 -0.4899  1.0300 -0.8153
11056TIP3    H254584   4.282   5.238  10.500 -0.1762 -1.2278 -1.8084
11057TIP3   OH254585   3.368   6.570  16.319  0.3752 -0.0168  0.7035
11057TIP3    H154586   3.340   6.648  16.367  1.2763  0.5593  0.3103
11057TIP3    H254587   3.305   6.562  16.247  0.6517  0.7211  0.3754
11058TIP3   OH254588   5.555   1.487   0.900  0.8431  0.0008  0.4922
11058TIP3    H154589   5.494   1.558   0.883  0.2295 -0.7972 -0.7133
11058TIP3    H254590   5.504   1.422   0.947  1.0487 -0.2021  0.4370
11059TIP3   OH254591   0.504   3.975   3.200 -0.5937  0.0575 -0.3903
11059TIP3    H154592   0.579   3.918   3.216  0.8235  1.7422 -0.9069
11059TIP3    H254593   0.453   3.971   3.281  0.8071 -0.0124  0.5071
11060TIP3   OH254594   4.737   3.009   0.795  0.1858  0.5202 -0.1124
11060TIP3    H154595   4.694   3.093   0.809  2.9950  2.1130 -0.6522
11060TIP3    H254596   4.722   2.961   0.876 -3.1150  0.7251 -0.5204
11061TIP3   OH254597   1.042   1.828  10.667 -0.2699  0.0136 -0.7401
11061TIP3    H154598   1.102   1.891  10.627  0.7239 -0.0930  0.5469
11061TIP3    H254599   1.087   1.744  10.659  0.4521  0.1443  1.5279
11062TIP3   OH254600   0.175   1.371   6.643 -0.3108  0.1803 -0.6254
11062TIP3    H154601   0.170   1.417   6.728 -1.7920 -1.6205  0.2955
11062TIP3    H254602   0.096   1.398   6.597  0.2654  0.7924 -1.2723
11063TIP3   OH254603   0.410   4.251  11.186  0.1745  0.1609 -0.0252
11063TIP3    H154604   0.438   4.225  11.274  0.4126  1.3185  0.2604
11063TIP3    H254605   0.404   4.347  11.191 -3.3133  0.0185 -0.2354
11064TIP3   OH254606   0.704   2.070  12.296  0.4924 -0.0897  0.1860
11064TIP3    H154607   0.790   2.028  12.305  0.7776  0.0972 -1.4050
11064TIP3    H254608   0.643   1.997  12.291  1.0426 -0.4042 -3.1267
11065TIP3   OH254609   6.125   2.610   1.047 -0.6296  0.3045 -0.2290
11065TIP3    H154610   6.052   2.636   1.102 -0.3093  1.8749 -0.5334
11065TIP3    H254611   6.088   2.542   0.990 -1.7975  0.9365 -0.2412
11066TIP3   OH254612   6.743   3.175   0.683  0.0719 -0.0767  0.4208
11066TIP3    H154613   6.720   3.096   0.636 -1.0679  0.5196 -0.0377
11066TIP3    H254614   6.683   3.242   0.649  0.3448  0.7440  1.5178
11067TIP3   OH254615   4.752   5.747   5.823  0.0116 -0.0757 -0.1681
11067TIP3    H154616   4.708   5.707   5.897  0.6077 -0.1123  0.1732
11067TIP3    H254617   4.686   5.750   5.754 -0.7436  0.5500  0.5631
11068TIP3   OH254618   5.999   3.055  16.680  0.3244 -0.1654 -0.0687
11068TIP3    H154619   5.991   3.144  16.646 -0.6354  0.0296  0.6448
11068TIP3    H254620   6.052   3.009  16.614  0.2591  0.7488 -0.7762
11069TIP3   OH254621   6.240   5.283   6.077  0.3054  0.3093 -0.0155
11069TIP3    H154622   6.192   5.366   6.075  0.0403  0.1576  0.0135
11069TIP3    H254623   6.287   5.284   6.160  1.0244  0.8347 -0.4236
11070TIP3   OH254624   4.468   2.887  16.683 -0.1558  0.2882  0.5635
11070TIP3    H154625   4.533   2.839  16.633 -0.7270  0.6495 -0.5319
11070TIP3    H254626   4.509   2.901  16.769  0.8324 -0.2995  0.1909
11071TIP3   OH254627   5.058   4.430   0.398  0.2191 -0.0140  0.7403
11071TIP3    H154628   4.963   4.429   0.384 -0.0697  2.4436  2.2722
11071TIP3    H254629   5.084   4.338   0.389 -1.8028 -0.3358 -2.8734
11072TIP3   OH254630   0.693   6.524  14.261  0.3487  0.3167 -0.5968
11072TIP3    H154631   0.630   6.464  14.222 -0.9043  1.1522  0.1019
11072TIP3    H254632   0.739   6.471  14.327  1.0198 -0.5310 -1.7348
11073TIP3   OH254633   0.474   4.294  16.039 -0.4423  0.0362 -0.5653
11073TIP3    H154634   0.564   4.282  16.010 -0.2119 -0.9731  0.5789
11073TIP3    H254635   0.421   4.253  15.970  0.0245 -0.6040 -0.5450
11074TIP3   OH254636   5.013   0.045   3.142  0.2365  0.4732 -0.0191
11074TIP3    H154637   4.992  -0.048   3.132 -1.9768  0.5412  3.2725
11074TIP3    H254638   4.960   0.089   3.076 -1.8509 -0.2983  1.1126
11075TIP3   OH254639   6.479   2.792  12.121  0.2099  0.4371 -0.6313
11075TIP3    H154640   6.410   2.847  12.084 -0.3353  0.8482  0.9543
11075TIP3    H254641   6.464   2.706  12.082  0.2792  1.1020 -2.1343
11076TIP3   OH254642   2.244   6.457  11.963  0.0179 -0.9062  0.6837
11076TIP3    H154643   2.257   6.394  11.892  1.4459  0.1901 -0.0777
11076TIP3    H254644   2.177   6.517  11.929 -0.0652 -1.0005  0.6822
11077TIP3   OH254645   1.867   3.901   0.875 -0.2127  0.6261 -0.0340
11077TIP3    H154646   1.877   3.995   0.892 -0.1649  0.4512  0.9745
11077TIP3    H254647   1.913   3.859   0.948 -1.6238 -0.1728  0.4153
11078TIP3   OH254648   2.992   0.778   1.596 -0.2232  0.0746 -0.2690
11078TIP3    H154649   3.022   0.845   1.658  1.9030 -0.0981 -1.0902
11078TIP3    H254650   3.072   0.741   1.559 -1.4362 -0.8522 -2.0530
11079TIP3   OH254651   4.363   0.645  14.546 -0.0775  0.4892 -0.4140
11079TIP3    H154652   4.378   0.709  14.477  0.7378 -0.4226 -1.1061
11079TIP3    H254653   4.305   0.580  14.507  0.3949 -0.0369 -0.2568
11080TIP3   OH254654   3.758   6.090   3.390  0.3619  0.0751  0.5939
11080TIP3    H154655   3.732   6.177   3.359  1.2478  0.0530 -0.2441
11080TIP3    H254656   3.800   6.049   3.314  0.3616 -0.9073  1.1200
11081TIP3   OH254657   4.844   1.852  13.857 -0.4607 -0.5321 -0.4168
11081TIP3    H154658   4.792   1.794  13.801 -1.5820 -0.8020  0.8587
11081TIP3    H254659   4.785   1.873  13.930  0.8338  0.1122  0.4567
11082TIP3   OH254660   1.213   3.286  12.829 -0.0828 -0.1786 -0.4293
11082TIP3    H154661   1.147   3.247  12.772 -3.2598  2.3611  1.3803
11082TIP3    H254662   1.271   3.334  12.770 -0.7580 -1.1515 -1.8993
11083TIP3   OH254663   1.110   5.496   0.196 -0.6765 -0.3177 -0.4033
11083TIP3    H154664   1.054   5.455   0.262 -0.0763 -1.1078 -0.3785
11083TIP3    H254665   1.154   5.423   0.152  1.0000  0.3141  0.1720
11084TIP3   OH254666   2.744   5.396   2.102 -0.0571  0.0248  0.0925
11084TIP3    H154667   2.692   5.317   2.089 -0.0095  0.2869 -1.9043
11084TIP3    H254668   2.777   5.417   2.015  2.1612  0.7214  1.0656
11085TIP3   OH254669   1.055   2.965  17.194 -0.3983 -0.2554 -0.3814
11085TIP3    H154670   1.035   3.032  17.129  0.2160  0.9771  0.6673
11085TIP3    H254671   1.117   3.008  17.254  0.1127 -1.8063  0.2279
11086TIP3   OH254672   6.105   5.341  11.087 -0.1630 -0.5154 -0.5918
11086TIP3    H154673   6.041   5.412  11.094  0.3600 -0.1679  0.7254
11086TIP3    H254674   6.171   5.374  11.025  0.1952  0.2427  0.1822
11087TIP3   OH254675   2.198   4.164  15.408 -0.3240  0.3634  0.9805
11087TIP3    H154676   2.238   4.208  15.333 -0.4053 -1.5205 -0.2215
11087TIP3    H254677   2.234   4.209  15.485  0.0845  2.0530 -0.1772
11088TIP3   OH254678   6.054   0.899   5.264  0.5043  0.1285 -0.1094
11088TIP3    H154679   6.099   0.817   5.286  0.2845 -0.0424 -0.2965
11088TIP3    H254680   6.057   0.950   5.344 -0.9571 -0.7947  0.5555
11089TIP3   OH254681   1.985   0.818  11.583  0.0019 -0.2967  0.1034
11089TIP3    H154682   2.016   0.728  11.580 -0.5286 -0.5237  1.1104
11089TIP3    H254683   2.056   0.870  11.546 -1.1101 -1.4744 -3.9630
11090TIP3   OH254684   1.431   5.121  15.080 -0.0429  0.5641 -0.5977
11090TIP3    H154685   1.446   5.047  15.022 -0.0543  0.8138 -0.9195
11090TIP3    H254686   1.356   5.166  15.043  0.1807  0.9370 -0.6017
11091TIP3   OH254687   4.784   2.031   0.749  0.4207 -0.2536  0.4144
11091TIP3    H154688   4.849   2.101   0.737  0.2478 -0.0894  0.4276
11091TIP3    H254689   4.815   1.959   0.694 -0.7733  0.7692 -1.6943
11092TIP3   OH254690   3.347   3.698  11.857 -0.0937  0.0038  0.2136
11092TIP3    H154691   3.392   3.780  11.874  0.7675 -0.2433 -0.8420
11092TIP3    H254692   3.408   3.646  11.805 -0.5599 -1.3781  0.9936
11093TIP3   OH254693   2.838   2.895  17.137 -0.0072  0.1847 -0.4812
11093TIP3    H154694   2.911   2.902  17.075 -0.8743  1.9528 -1.3670
11093TIP3    H254695   2.760   2.907  17.083 -0.8888 -0.4369  0.6385
11094TIP3   OH254696   3.746   5.857   3.619  0.2312 -0.2963 -0.5669
11094TIP3    H154697   3.777   5.791   3.557  0.2857 -0.7322 -0.0782
11094TIP3    H254698   3.741   5.938   3.567  2.1327 -0.2148 -0.6845
11095TIP3   OH254699   5.297   4.880  12.242 -0.1830  0.1979 -0.2305
11095TIP3    H154700   5.304   4.905  12.150  0.0427 -0.6973 -0.4658
11095TIP3    H254701   5.297   4.784  12.240 -3.3970  0.1206  0.4252
11096TIP3   OH254702   0.038   2.715  17.039 -0.1118  0.1255 -0.0455
11096TIP3    H154703   0.049   2.747  16.949 -0.5269  1.1129  0.2428
11096TIP3    H254704   0.127   2.695  17.068 -0.0848 -1.2652 -1.0626
11097TIP3   OH254705   1.594   1.764   2.756  0.3461  0.4280  0.6512
11097TIP3    H154706   1.541   1.779   2.834  2.1871  1.1999  1.7835
11097TIP3    H254707   1.595   1.848   2.710 -0.2023  0.1461  0.1012
11098TIP3   OH254708   5.489   2.144   0.770 -0.5750 -0.2464  0.0452
11098TIP3    H154709   5.538   2.118   0.692 -2.5291 -0.8946 -0.9845
11098TIP3    H254710   5.557   2.166   0.835  1.0654  0.8539 -1.9908
11099TIP3   OH254711   5.665   3.160  15.260 -0.0849 -0.7272  0.3409
11099TIP3    H154712   5.614   3.218  15.316 -0.6925  1.6584 -2.5771
11099TIP3    H254713   5.623   3.074  15.270 -1.5659  0.1388  1.7603
11100TIP3   OH254714   3.567   5.291   0.108 -0.0972  0.1429 -0.0206
11100TIP3    H154715   3.562   5.220   0.172 -0.6285 -0.2730 -0.5208
11100TIP3    H254716   3.477   5.324   0.101  0.2488  1.2866  0.6727
11101TIP3   OH254717   1.820   3.283   1.238 -0.1028  0.3224 -0.1386
11101TIP3    H154718   1.777   3.362   1.206  0.8837  0.8725 -0.1186
11101TIP3    H254719   1.901   3.314   1.278 -0.3246 -0.5672  1.0370
11102TIP3   OH254720   1.894   6.148   0.656 -0.0184  0.0858  0.1905
11102TIP3    H154721   1.988   6.169   0.655  0.3064 -1.1285  1.8062
11102TIP3    H254722   1.862   6.175   0.570  1.5972  1.4665 -0.0035
11103TIP3   OH254723   2.451   5.049  15.140 -0.2485 -0.1452 -0.1567
11103TIP3    H154724   2.526   5.075  15.193 -0.0949 -1.4372  0.2561
11103TIP3    H254725   2.375   5.076  15.191 -0.0947  2.9181 -1.4327
11104TIP3   OH254726   1.878   0.157   1.216  0.0347  0.1194 -0.4705
11104TIP3    H154727   1.806   0.096   1.233  0.3620 -0.4296 -1.0309
11104TIP3    H254728   1.849   0.206   1.139  0.8141 -0.9921 -1.4832
11105TIP3   OH254729   2.163   1.000   3.172  0.5738  0.7970 -0.2804
11105TIP3    H154730   2.176   1.053   3.251 -1.3062  1.2828 -0.2600
11105TIP3    H254731   2.143   0.912   3.204 -0.4313  1.0502 -0.1921
11106TIP3   OH254732   2.436   4.171  11.081 -0.6820 -0.8594 -0.0835
11106TIP3    H154733   2.443   4.247  11.023  1.6894 -1.3262 -0.4538
11106TIP3    H254734   2.526   4.150  11.104 -1.3939 -2.7271  1.1236
11107TIP3   OH254735   5.671   3.853   5.565  0.0221  0.2591 -0.2927
11107TIP3    H154736   5.598   3.830   5.623  0.2955 -1.7944 -0.7208
11107TIP3    H254737   5.723   3.915   5.615  0.3537 -1.6226  1.7689
11108TIP3   OH254738   3.450   0.695  16.032 -0.4550  0.2558 -0.7244
11108TIP3    H154739   3.484   0.697  15.942  0.9878  1.8630 -0.1542
11108TIP3    H254740   3.528   0.689  16.087 -1.4013 -2.8742  0.3875
11109TIP3   OH254741   6.748   1.375   2.210 -0.1132  0.2735 -0.6835
11109TIP3    H154742   6.841   1.353   2.196 -0.6445 -2.3311 -0.4882
11109TIP3    H254743   6.711   1.377   2.121  0.3158  2.3824 -0.8421
11110TIP3   OH254744   1.094   6.476  16.514  0.3362 -0.2401 -0.6488
11110TIP3    H154745   1.059   6.391  16.485  0.3361 -0.7449  0.7611
11110TIP3    H254746   1.179   6.455  16.554 -0.4363  0.1550  1.2837
11111TIP3   OH254747   1.708   5.368  12.356 -0.0294 -0.7762  0.0445
11111TIP3    H154748   1.677   5.457  12.373 -1.5495 -1.2278 -0.3125
11111TIP3    H254749   1.649   5.335  12.289  0.5560 -2.0458  0.1541
11112TIP3   OH254750   0.510   2.986  11.952 -0.1555  0.2053 -0.0760
11112TIP3    H154751   0.536   2.915  11.892  2.7766  0.7684  0.4776
11112TIP3    H254752   0.590   3.009  11.998 -1.7355  1.8588  1.9361
11113TIP3   OH254753   6.103   4.037  12.111  0.2290 -0.0764  0.2311
11113TIP3    H154754   6.068   4.082  12.188  2.3122  2.6418 -0.3734
11113TIP3    H254755   6.047   4.064  12.039  0.0565 -0.3347  0.2653
11114TIP3   OH254756   3.647   4.510   2.551  0.2145 -0.1646  0.3135
11114TIP3    H154757   3.741   4.530   2.550  0.3879 -0.6556 -3.5132
11114TIP3    H254758   3.643   4.416   2.563  0.3270 -0.3766 -1.2026
11115TIP3   OH254759   0.173   6.192   5.121 -0.4588  0.1451 -0.4114
11115TIP3    H154760   0.137   6.187   5.210  0.5267 -0.2311 -0.0285
11115TIP3    H254761   0.148   6.278   5.090 -2.2164 -0.3207 -0.3753
11116TIP3   OH254762   2.252   5.713  13.142 -0.0067 -0.2831 -0.0409
11116TIP3    H154763   2.274   5.698  13.234  0.4792  0.5734 -0.0192
11116TIP3    H254764   2.230   5.806  13.137 -2.0076 -0.7506 -0.3963
11117TIP3   OH254765   6.303   2.706   5.654 -0.1360 -0.1669  0.2969
11117TIP3    H154766   6.221   2.724   5.608  0.0271 -1.1396 -0.3900
11117TIP3    H254767   6.307   2.773   5.722 -1.0154  0.4983 -0.2860
11118TIP3   OH254768   0.349   6.361  11.568 -0.2946 -0.7173  0.2032
11118TIP3    H154769   0.304   6.404  11.495  1.9304 -0.1110 -0.8542
11118TIP3    H254770   0.346   6.268  11.546  2.1660 -0.3766 -1.7481
11119TIP3   OH254771   0.186   5.023  15.501 -0.3076 -0.2390 -0.0411
11119TIP3    H154772   0.144   5.031  15.586  0.8632  1.0180  0.4547
11119TIP3    H254773   0.118   4.991  15.443 -1.6176  0.6114  0.9950
11120TIP3   OH254774   3.508   3.507  13.890  0.1637  0.3598  0.5285
11120TIP3    H154775   3.446   3.466  13.950  0.9477  1.2899  2.0288
11120TIP3    H254776   3.556   3.435  13.851 -0.6326 -0.2822  0.7277
11121TIP3   OH254777   4.224   1.488  16.673 -0.1338  0.4374  0.3135
11121TIP3    H154778   4.304   1.455  16.631 -0.3701 -1.1707  1.0563
11121TIP3    H254779   4.157   1.482  16.605  0.0093  0.1525  0.1938
11122TIP3   OH254780   4.843   4.421   5.032  0.1475 -0.0760 -0.0568
11122TIP3    H154781   4.783   4.374   5.089 -0.7955  0.7054 -0.3834
11122TIP3    H254782   4.833   4.380   4.946  0.7946 -0.5683  0.0973
11123TIP3   OH254783   4.388   0.684  12.894  1.2223  0.3265 -0.6292
11123TIP3    H154784   4.358   0.726  12.813 -0.4780  0.2847 -0.0377
11123TIP3    H254785   4.346   0.598  12.893  0.0767  0.8451  0.9515
11124TIP3   OH254786   4.364   1.861   2.976  0.0146 -0.0299  0.2389
11124TIP3    H154787   4.381   1.842   3.068 -1.7668  0.4952  0.6961
11124TIP3    H254788   4.446   1.899   2.944  1.3434 -2.1021  1.0642
11125TIP3   OH254789   1.418   0.737  12.975  0.5560 -0.0930  0.5100
11125TIP3    H154790   1.342   0.781  13.011  0.8964 -0.5281  1.7863
11125TIP3    H254791   1.428   0.774  12.887 -0.6363  0.5421  0.6330
11126TIP3   OH254792   1.572   1.713  15.882  0.1790  0.3002  0.0317
11126TIP3    H154793   1.497   1.667  15.921 -0.6382  0.1922 -1.6438
11126TIP3    H254794   1.594   1.781  15.946 -1.3975  0.3850  0.5000
11127TIP3   OH254795   3.338   1.541  12.430  0.3845  0.2995 -0.0171
11127TIP3    H154796   3.342   1.453  12.392 -1.4034  0.0525  0.2962
11127TIP3    H254797   3.252   1.574  12.404  0.4182  1.3484  1.1696
11128TIP3   OH254798   6.573   5.087  13.105 -0.3391 -0.1835  0.1777
11128TIP3    H154799   6.549   4.995  13.089 -3.4639  0.3597  1.3864
11128TIP3    H254800   6.573   5.127  13.018  0.3419 -1.1486 -0.2775
11129TIP3   OH254801   4.231   0.485  17.164  0.1956  0.2209  0.3146
11129TIP3    H154802   4.176   0.470  17.087  0.9467  0.2573 -0.2266
11129TIP3    H254803   4.320   0.495  17.130  0.6981 -0.8308  1.2729
11130TIP3   OH254804   3.337   3.500  15.804  0.2497 -0.6579  0.6519
11130TIP3    H154805   3.381   3.457  15.730 -2.6000 -0.1110 -1.4592
11130TIP3    H254806   3.399   3.566  15.833  1.6038 -1.1502 -1.0205
11131TIP3   OH254807   5.141   6.480  12.449  0.5976 -0.2113  0.5728
11131TIP3    H154808   5.051   6.499  12.421  0.5162  1.2578  1.7789
11131TIP3    H254809   5.194   6.501  12.373 -0.1197 -1.6378 -0.3435
11132TIP3   OH254810   5.904   5.602   1.241 -0.9739 -0.0286  0.3503
11132TIP3    H154811   5.828   5.583   1.295 -1.0106  1.4771  0.8494
11132TIP3    H254812   5.903   5.535   1.173 -1.4284 -1.3954  1.6902
11133TIP3   OH254813   0.374   2.673   6.419  0.3600  0.1325 -0.3987
11133TIP3    H154814   0.443   2.610   6.441  1.2368  1.8272  1.8621
11133TIP3    H254815   0.412   2.729   6.352  0.8831  0.5122  0.2108
11134TIP3   OH254816   0.111   1.571  16.107  0.1170  0.2493  0.2892
11134TIP3    H154817   0.033   1.623  16.086 -0.3768 -0.7334 -0.3803
11134TIP3    H254818   0.076   1.494  16.152  0.5401 -0.9940 -1.4631
11135TIP3   OH254819   0.893   0.608  13.126 -0.1507  0.6330  0.1819
11135TIP3    H154820   0.932   0.538  13.179 -0.4284 -1.4931 -2.3247
11135TIP3    H254821   0.803   0.615  13.159 -0.2294 -0.4538  0.2348
11136TIP3   OH254822   2.111   4.238  12.796  0.4527 -0.3180  0.6009
11136TIP3    H154823   2.161   4.191  12.729  1.6305  0.2898  1.0459
11136TIP3    H254824   2.047   4.175  12.827 -0.0084 -0.6672 -0.9814
11137TIP3   OH254825   3.948   5.997   2.806  0.1776 -0.3492 -0.4320
11137TIP3    H154826   3.869   5.963   2.764  0.7452 -0.9755 -0.9960
11137TIP3    H254827   3.948   6.090   2.784 -0.1480 -0.4412 -0.8405
11138TIP3   OH254828   6.695   5.351   2.930 -0.5895 -0.5735 -0.6474
11138TIP3    H154829   6.691   5.258   2.952 -1.4308 -0.5463 -0.6685
11138TIP3    H254830   6.622   5.365   2.870 -0.6566  0.1694 -0.4041
11139TIP3   OH254831   4.220   5.834  15.244  0.0454  0.1152  0.1155
11139TIP3    H154832   4.159   5.799  15.309  0.1734  0.2174  0.2905
11139TIP3    H254833   4.296   5.777  15.250  0.1422  0.2524  0.2050
11140TIP3   OH254834   0.466   6.626  10.832  0.1308  0.3750 -0.0315
11140TIP3    H154835   0.509   6.711  10.846 -1.0733  1.1282 -0.7895
11140TIP3    H254836   0.527   6.562  10.868  1.2986  1.5240  0.0721
11141TIP3   OH254837   1.608   2.285  16.541 -0.6945 -0.4466  0.3194
11141TIP3    H154838   1.702   2.268  16.533 -0.2189  2.2021 -0.4725
11141TIP3    H254839   1.580   2.235  16.617  1.6912 -0.0227  1.5078
11142TIP3   OH254840   4.046   3.743  11.892  0.4537  0.5588 -0.1036
11142TIP3    H154841   4.141   3.740  11.899  0.5174  0.1257 -1.1666
11142TIP3    H254842   4.028   3.821  11.841  0.1849  1.2323  1.0099
11143TIP3   OH254843   1.434   5.070   4.758 -0.3218  0.6753 -0.2081
11143TIP3    H154844   1.404   5.160   4.771 -1.6848  0.2230 -0.1831
11143TIP3    H254845   1.510   5.078   4.700 -0.1926  1.8693  0.1166
11144TIP3   OH254846   0.634   2.621  16.704 -0.0393  0.1829 -0.6620
11144TIP3    H154847   0.547   2.604  16.742  1.1064 -1.2197  1.4320
11144TIP3    H254848   0.633   2.715  16.686 -1.5907  0.4095  0.4222
11145TIP3   OH254849   1.493   3.353   4.156  0.2839 -0.1043 -0.1036
11145TIP3    H154850   1.506   3.288   4.087 -0.8846  0.1729 -0.5904
11145TIP3    H254851   1.515   3.437   4.115 -0.0153  0.0166 -0.0163
11146TIP3   OH254852   5.091   1.596   4.660 -0.0427  0.0293 -0.0748
11146TIP3    H154853   5.067   1.509   4.690 -2.1346  0.3745 -0.6218
11146TIP3    H254854   5.153   1.628   4.726  0.5967 -1.7721  0.2302
11147TIP3   OH254855   0.064   2.277  16.192  0.0168 -0.2396  0.4660
11147TIP3    H154856   0.043   2.313  16.279 -0.1452  2.3105 -0.5871
11147TIP3    H254857   0.010   2.198  16.185 -2.4677  1.3457  1.3705
11148TIP3   OH254858   1.279   1.628  13.160 -0.0195 -0.0488  0.6402
11148TIP3    H154859   1.212   1.695  13.143  0.4336 -0.3486 -2.7671
11148TIP3    H254860   1.352   1.652  13.104  1.1043 -2.0602  1.1781
11149TIP3   OH254861   1.399   1.317  13.524  0.0735  0.5140  0.1744
11149TIP3    H154862   1.316   1.351  13.492 -0.1794 -0.1110  0.1462
11149TIP3    H254863   1.374   1.257  13.595  0.4700  0.0662 -0.0576
11150TIP3   OH254864   6.123   4.295  15.222 -0.5837 -0.0447 -0.4772
11150TIP3    H154865   6.187   4.252  15.165  1.3386  0.8253  0.9672
11150TIP3    H254866   6.098   4.375  15.176  0.7709  0.5297 -0.2192
11151TIP3   OH254867   4.569   5.786   1.894 -0.3034  0.3590 -0.0490
11151TIP3    H154868   4.612   5.863   1.931  1.1936 -0.1107 -0.7585
11151TIP3    H254869   4.555   5.808   1.802 -1.2900  0.3737  0.1005
11152TIP3   OH254870   6.505   3.666  14.712  0.2618 -0.2372  0.3634
11152TIP3    H154871   6.514   3.593  14.651  1.2392  0.5308 -0.4302
11152TIP3    H254872   6.541   3.634  14.794 -0.5719 -1.1024  0.3893
11153TIP3   OH254873   0.982   5.304   1.992 -0.1042  0.3255  0.6155
11153TIP3    H154874   0.979   5.298   2.088  0.3263  0.5036  0.6445
11153TIP3    H254875   1.049   5.240   1.966 -0.8102 -0.3096  0.3695
11154TIP3   OH254876   4.870   3.737  14.243  1.5140  0.2478  0.0223
11154TIP3    H154877   4.893   3.661  14.296  0.9360  0.2875  0.3316
11154TIP3    H254878   4.801   3.706  14.185  1.2978  0.5317  0.1274
11155TIP3   OH254879   6.643   4.994  16.890  0.3674  0.0085 -0.0550
11155TIP3    H154880   6.559   4.950  16.905 -1.3143  2.8515 -0.7140
11155TIP3    H254881   6.641   5.070  16.949  2.6534 -0.0914  0.1933
11156TIP3   OH254882   1.621   3.770  15.281  0.7763 -0.2893 -0.0900
11156TIP3    H154883   1.685   3.709  15.246  0.0994 -1.1916  0.2374
11156TIP3    H254884   1.657   3.796  15.366  0.2494 -1.5295  0.5165
11157TIP3   OH254885   4.156   1.603   0.397  0.3509  0.7206  0.1380
11157TIP3    H154886   4.156   1.597   0.302 -0.4367  1.9336  0.0466
11157TIP3    H254887   4.069   1.574   0.423  0.0464  1.8368  0.3750
11158TIP3   OH254888   1.438   1.235  16.623  0.8828  0.3647 -0.3297
11158TIP3    H154889   1.465   1.308  16.568  1.3123 -0.1666 -0.8405
11158TIP3    H254890   1.349   1.214  16.594  1.0574  0.1754 -0.7284
11159TIP3   OH254891   5.816   2.470  11.860 -0.6569  0.1901  0.1883
11159TIP3    H154892   5.721   2.457  11.855 -0.9554  2.2660 -0.2580
11159TIP3    H254893   5.828   2.532  11.932  0.4938 -1.1767  1.1849
11160TIP3   OH254894   5.848   4.432  12.249  0.8940 -0.3105 -1.0101
11160TIP3    H154895   5.872   4.493  12.179  0.0470 -0.2406 -1.2553
11160TIP3    H254896   5.765   4.394  12.219  0.0759  0.3722  0.3567
11161TIP3   OH254897   3.849   0.838  16.564  0.5756  0.4705  0.2513
11161TIP3    H154898   3.901   0.759  16.577  2.0067  1.2584 -0.5547
11161TIP3    H254899   3.824   0.865  16.653 -0.4867 -1.2225  0.4957
11162TIP3   OH254900   3.976   0.277   3.933  0.4566 -0.3391  0.0411
11162TIP3    H154901   3.948   0.259   4.023  0.5120 -2.4084 -0.3285
11162TIP3    H254902   3.958   0.370   3.921 -1.9461 -0.5694  1.3525
11163TIP3   OH254903   0.855   1.243   5.519 -0.4840 -0.4425  0.7289
11163TIP3    H154904   0.766   1.233   5.554 -0.5312  0.9993  1.0177
11163TIP3    H254905   0.911   1.198   5.582 -0.6933  1.1683  2.0811
11164TIP3   OH254906   6.332   6.650  15.426 -0.1059 -0.6478  0.0269
11164TIP3    H154907   6.281   6.667  15.504 -1.9925  1.0617 -1.5425
11164TIP3    H254908   6.279   6.589  15.375  0.4482 -0.6336 -0.5827
11165TIP3   OH254909   1.055   4.145   4.646  0.4047 -0.0346 -0.1603
11165TIP3    H154910   1.021   4.089   4.716 -1.1267 -0.3393 -1.1197
11165TIP3    H254911   1.150   4.136   4.651  0.2241 -1.4589  0.7272
11166TIP3   OH254912   0.639   5.835  16.710  0.2959  0.3583  0.3491
11166TIP3    H154913   0.681   5.825  16.796  0.2367 -0.3634  0.2927
11166TIP3    H254914   0.615   5.746  16.684  1.5217  0.4236 -1.0351
11167TIP3   OH254915   2.647   2.526  15.995  0.0052  0.2855 -0.3187
11167TIP3    H154916   2.577   2.592  16.002 -1.4591 -1.3001  0.4984
11167TIP3    H254917   2.716   2.559  16.052 -1.8000 -0.1626  2.2233
11168TIP3   OH254918   3.993   0.195   0.001 -0.0202 -0.7781  0.4529
11168TIP3    H154919   4.034   0.124   0.050  1.5434 -2.0327 -2.5191
11168TIP3    H254920   3.906   0.162  -0.021 -0.0938 -0.8984  0.9211
11169TIP3   OH254921   2.079   0.353   5.824  0.1035  0.5487  0.2831
11169TIP3    H154922   2.098   0.315   5.910  3.5330  1.0638 -0.2080
11169TIP3    H254923   2.046   0.441   5.844 -3.0936 -0.7743  1.1843
11170TIP3   OH254924   6.611   2.165  12.474  0.2247 -0.0905 -0.0372
11170TIP3    H154925   6.661   2.156  12.555 -0.7680 -2.8879  0.3181
11170TIP3    H254926   6.519   2.161  12.502 -0.1402 -0.3985 -1.2343
11171TIP3   OH254927   5.295   4.923  11.968  0.2309 -0.1673  0.0114
11171TIP3    H154928   5.359   4.982  11.929  0.1856 -0.9200 -1.2599
11171TIP3    H254929   5.218   4.932  11.912  0.6610 -2.3709 -1.0014
11172TIP3   OH254930   6.002   1.000  13.161 -0.0843 -0.2828 -0.3722
11172TIP3    H154931   6.080   0.997  13.106 -1.2154 -1.0199 -1.9556
11172TIP3    H254932   6.033   1.034  13.245  2.1615 -1.7265 -0.5967
11173TIP3   OH254933   6.130   2.447   2.683 -0.5468 -0.0881  0.0129
11173TIP3    H154934   6.103   2.363   2.645 -0.2248  0.8034 -2.2182
11173TIP3    H254935   6.225   2.444   2.684 -0.5488 -0.7961  2.4070
11174TIP3   OH254936   5.973   3.323  16.953  0.0858 -0.2137 -0.1305
11174TIP3    H154937   5.918   3.388  16.910  0.3526  0.9205  1.1817
11174TIP3    H254938   6.042   3.305  16.889 -0.8944 -0.4318 -1.1427
11175TIP3   OH254939   3.796   6.615  14.406 -0.1140  0.2381  0.3043
11175TIP3    H154940   3.777   6.528  14.442  0.2591 -1.4025 -3.3300
11175TIP3    H254941   3.714   6.642  14.365  0.8387 -0.0145 -1.7843
11176TIP3   OH254942   4.958   3.178   1.151  0.0350  0.1430 -0.0090
11176TIP3    H154943   4.906   3.225   1.086 -0.2230  0.3152  0.3216
11176TIP3    H254944   5.012   3.246   1.192 -0.6772  0.2427  0.7963
11177TIP3   OH254945   3.174   0.162  13.473 -0.6296 -0.1695 -0.2230
11177TIP3    H154946   3.101   0.211  13.435 -1.3847 -0.3998  0.9051
11177TIP3    H254947   3.250   0.189  13.422 -0.9241  2.6278  0.7268
11178TIP3   OH254948   1.756   0.858  16.415 -0.0475  0.4742  0.1813
11178TIP3    H154949   1.822   0.798  16.378 -1.1590 -2.1991  2.3405
11178TIP3    H254950   1.758   0.934  16.357  3.9013 -0.1505 -0.6661
11179TIP3   OH254951   1.523   5.952  16.477  0.2237  0.1092 -0.4162
11179TIP3    H154952   1.575   5.882  16.437 -0.9188 -0.4990 -0.8534
11179TIP3    H254953   1.547   6.031  16.428 -0.1561 -0.3789 -1.4003
11180TIP3   OH254954   4.783   4.237  16.613 -0.6166 -0.8325 -0.8304
11180TIP3    H154955   4.769   4.328  16.640  3.1581 -0.9023  1.9309
11180TIP3    H254956   4.859   4.242  16.555 -0.4228 -2.1827 -0.6901
11181TIP3   OH254957   3.926   3.535  14.521 -0.1291 -0.2247 -0.2380
11181TIP3    H154958   3.906   3.628  14.532  1.9541  0.3294 -0.8494
11181TIP3    H254959   3.946   3.525  14.428 -0.0094 -1.2280 -0.1143
11182TIP3   OH254960   0.912   1.177   6.261  0.6555 -0.0265  0.5063
11182TIP3    H154961   0.832   1.125   6.267  0.5500 -0.0233 -0.7538
11182TIP3    H254962   0.976   1.129   6.314  0.2828 -0.9067  0.1671
11183TIP3   OH254963   6.685   0.073   1.715 -0.1967 -0.4107 -0.2805
11183TIP3    H154964   6.676   0.090   1.809  2.0434 -1.8344  0.2299
11183TIP3    H254965   6.596   0.053   1.685 -0.9310  0.0775  1.5253
11184TIP3   OH254966   2.856   1.142  12.298 -0.4264 -0.6056 -0.6167
11184TIP3    H154967   2.853   1.176  12.387 -1.8461  0.3335 -1.0070
11184TIP3    H254968   2.765   1.144  12.268  0.3473  1.4858 -2.9869
11185TIP3   OH254969   6.515   0.063  12.680 -0.2365  0.0814 -0.1260
11185TIP3    H154970   6.466  -0.012  12.712  1.7310 -0.1917  2.4153
11185TIP3    H254971   6.601   0.028  12.656  0.5752  1.4215  0.7053
11186TIP3   OH254972   6.168   3.252   3.787  0.6109 -0.1792  0.5585
11186TIP3    H154973   6.241   3.192   3.770  0.3520 -0.6538  1.0859
11186TIP3    H254974   6.176   3.273   3.880 -0.1208 -0.5089  0.6988
11187TIP3   OH254975   5.633   4.668  10.890 -0.0456  0.4075  0.1113
11187TIP3    H154976   5.676   4.752  10.910  1.8243 -0.5566  0.2492
11187TIP3    H254977   5.601   4.678  10.800  1.2702  0.8209 -0.3203
11188TIP3   OH254978   1.064   1.073  16.824 -0.4625  0.1315 -0.1125
11188TIP3    H154979   0.971   1.092  16.838 -0.5441  2.0135 -2.8786
11188TIP3    H254980   1.064   0.991  16.774 -0.5770 -0.6035  1.0890
11189TIP3   OH254981   2.730   2.336  17.191  0.8412  0.3793 -0.9654
11189TIP3    H154982   2.762   2.311  17.104  4.4024  0.9453  0.1002
11189TIP3    H254983   2.768   2.422  17.207 -0.9751  0.9337  0.6065
11190TIP3   OH254984   6.548   4.266   0.609 -0.4155 -0.1569 -0.1129
11190TIP3    H154985   6.642   4.258   0.593 -0.6658 -0.1212 -1.6694
11190TIP3    H254986   6.514   4.315   0.534 -1.5382  0.6551  0.8921
11191TIP3   OH254987   0.309   3.219   3.461  0.6143 -0.8238  0.0867
11191TIP3    H154988   0.400   3.198   3.482  0.2269  0.1636  2.9611
11191TIP3    H254989   0.305   3.315   3.463 -0.2475 -0.8298 -1.0819
11192TIP3   OH254990   3.846   5.713   6.010 -0.0257  0.3681 -0.2392
11192TIP3    H154991   3.857   5.625   6.045 -1.2296  0.2283 -0.1903
11192TIP3    H254992   3.759   5.713   5.970  1.0443  0.7374 -2.6219
11193TIP3   OH254993   4.620   2.731   3.377  0.5659 -0.0867 -0.1168
11193TIP3    H154994   4.697   2.788   3.375 -1.0843  2.2479  0.4865
11193TIP3    H254995   4.610   2.701   3.287  2.3617 -0.7149 -0.1317
11194TIP3   OH254996   2.958   3.526  15.526 -0.3237  0.4110 -0.4452
11194TIP3    H154997   2.965   3.616  15.493 -0.1113  0.8464  0.7813
11194TIP3    H254998   2.866   3.502  15.510 -0.4257  0.9058 -0.6100
11195TIP3   OH254999   6.518   6.177   0.852 -0.0769  0.9782 -0.1703
11195TIP3    H155000   6.581   6.149   0.918 -0.1270  1.4029  0.0569
11195TIP3    H255001   6.534   6.270   0.841 -1.1780  1.2441  0.4449
11196TIP3   OH255002   6.144   1.770  14.174  0.7592  0.2157  0.1608
11196TIP3    H155003   6.205   1.823  14.225  0.1182  0.6169  0.5113
11196TIP3    H255004   6.188   1.759  14.089  0.7576  1.5809 -0.0290
11197TIP3   OH255005   6.369   4.532   4.506 -0.0476 -0.8846 -0.7633
11197TIP3    H155006   6.364   4.490   4.420 -0.4130 -1.7009 -0.3481
11197TIP3    H255007   6.430   4.604   4.493  1.5445 -2.2629 -1.1931
11198TIP3   OH255008   6.768   0.827   3.172  0.0107 -0.9021 -0.1622
11198TIP3    H155009   6.682   0.847   3.209  0.1445 -1.9022  0.7135
11198TIP3    H255010   6.809   0.769   3.236  0.3394 -2.5088 -1.7757
11199TIP3   OH255011   3.405   5.253   1.936 -0.3434  0.3309 -0.4663
11199TIP3    H155012   3.414   5.303   1.855  1.0726 -1.1181 -1.2129
11199TIP3    H255013   3.350   5.179   1.913  1.1498 -0.8053 -0.4541
11200TIP3   OH255014   6.604   4.907   2.434  0.0798 -0.6424 -0.8350
11200TIP3    H155015   6.625   4.854   2.511  1.3246 -0.1848 -0.8455
11200TIP3    H255016   6.649   4.991   2.449 -2.1904  0.5625 -0.6309
11201TIP3   OH255017   6.500   0.482  16.637 -0.3467 -0.2363 -0.2016
11201TIP3    H155018   6.436   0.485  16.566 -0.5491 -0.8063 -0.0434
11201TIP3    H255019   6.453   0.519  16.713 -0.8782 -1.7428  0.2146
11202TIP3   OH255020   2.947   3.770   5.612 -0.3296 -0.0143 -0.4041
11202TIP3    H155021   3.030   3.741   5.575 -2.4172 -4.4638 -1.9509
11202TIP3    H255022   2.931   3.855   5.570  4.0536  1.6921  1.0827
11203TIP3   OH255023   3.722   2.215   5.694 -0.3170  0.1509  0.0254
11203TIP3    H155024   3.639   2.174   5.720 -1.5975  1.3538 -2.0182
11203TIP3    H255025   3.735   2.187   5.603  0.9761  0.8048 -0.0004
11204TIP3   OH255026   2.461   5.854  16.034  0.2911 -0.3293  0.2356
11204TIP3    H155027   2.530   5.920  16.047 -0.0791  0.2016 -0.4693
11204TIP3    H255028   2.426   5.873  15.947  0.7043 -1.9576 -0.2891
11205TIP3   OH255029   1.861   0.577  11.188  0.4886 -0.6791 -0.0889
11205TIP3    H155030   1.823   0.538  11.110 -0.4442 -0.7296  0.3827
11205TIP3    H255031   1.952   0.548  11.188  0.1588 -1.7201 -0.4768
11206TIP3   OH255032   4.841   0.856  13.839 -0.3682 -0.4190  0.2297
11206TIP3    H155033   4.884   0.941  13.852 -1.1560  0.2033 -1.1532
11206TIP3    H255034   4.754   0.878  13.808  0.3084 -1.7772 -2.7343
11207TIP3   OH255035   5.490   3.377   4.609 -0.4894 -0.0978 -0.2275
11207TIP3    H155036   5.414   3.331   4.572 -1.4863  1.1013  0.2882
11207TIP3    H255037   5.515   3.440   4.542  0.1857 -0.6303 -0.4784
11208TIP3   OH255038   0.386   3.424   6.814  0.0741  0.2270 -0.0734
11208TIP3    H155039   0.321   3.424   6.743  0.1545 -0.1156 -0.1485
11208TIP3    H255040   0.458   3.478   6.781 -0.4859  1.2175  0.3016
11209TIP3   OH255041   5.222   2.575  15.509 -0.8689  0.2381  0.1524
11209TIP3    H155042   5.198   2.493  15.465 -0.7242  0.5102 -0.4417
11209TIP3    H255043   5.138   2.620  15.522 -0.7264  1.0721 -1.6932
11210TIP3   OH255044   5.616   6.717  17.169  0.3264 -0.5502  0.1451
11210TIP3    H155045   5.560   6.648  17.205 -0.0485 -0.4800 -0.2977
11210TIP3    H255046   5.598   6.716  17.075 -1.2257  1.5071  0.3815
11211TIP3   OH255047   0.728   2.667   5.068 -0.1180 -0.7872 -0.8593
11211TIP3    H155048   0.651   2.667   5.124 -0.1746 -1.6582 -0.9431
11211TIP3    H255049   0.775   2.587   5.089 -0.1796 -1.1710 -2.0990
11212TIP3   OH255050   1.420   4.652  15.236 -0.8092  0.0724  0.3241
11212TIP3    H155051   1.453   4.741  15.222 -1.0681  0.6684  3.0675
11212TIP3    H255052   1.494   4.595  15.213 -0.1836  1.0649 -0.1567
11213TIP3   OH255053   0.098   0.694   2.160  0.0194 -0.2406  0.1062
11213TIP3    H155054   0.143   0.723   2.081  1.2271 -0.7271  0.5955
11213TIP3    H255055   0.008   0.680   2.133 -0.1244  1.9055 -0.6285
11214TIP3   OH255056   5.436   5.098  11.795 -0.0190  0.0897 -0.1371
11214TIP3    H155057   5.419   5.053  11.712 -0.9306  2.4190 -1.2590
11214TIP3    H255058   5.373   5.170  11.796  0.4901  0.5315  2.2480
11215TIP3   OH255059   1.580   3.186  11.933 -1.1343  0.1608 -0.6041
11215TIP3    H155060   1.676   3.184  11.942 -1.1343  3.1061  0.3562
11215TIP3    H255061   1.565   3.228  11.848 -1.5993 -0.7685 -0.9937
11216TIP3   OH255062   0.009   0.224   1.481 -0.3821 -0.0901  0.7552
11216TIP3    H155063  -0.084   0.245   1.473 -0.4599 -0.0447  1.8387
11216TIP3    H255064   0.016   0.168   1.558  0.5447  0.2483  0.9331
11217TIP3   OH255065   4.150   1.810   5.267  0.1658  0.0263  0.7815
11217TIP3    H155066   4.141   1.728   5.316 -0.6296 -1.6804 -2.1153
11217TIP3    H255067   4.095   1.872   5.315  2.0541 -0.6305  3.9315
11218TIP3   OH255068   2.049   5.743   1.623  0.0149 -0.2494  0.1293
11218TIP3    H155069   2.135   5.778   1.648  0.4060 -0.8474 -0.3668
11218TIP3    H255070   1.998   5.743   1.704  0.5416 -0.0624  0.4620
11219TIP3   OH255071   1.362   5.260   0.815  0.6460  0.1213 -0.2276
11219TIP3    H155072   1.275   5.277   0.777  0.9298 -0.1220 -1.0001
11219TIP3    H255073   1.362   5.310   0.897 -0.9115 -1.3597  0.7043
11220TIP3   OH255074   6.006   1.282  16.446  0.3600  0.2042 -0.0658
11220TIP3    H155075   6.084   1.255  16.399  1.2705  1.1851  0.8536
11220TIP3    H255076   5.998   1.376  16.429 -2.6976 -0.5399 -3.1050
11221TIP3   OH255077   3.060   4.801  13.558  0.1696 -0.3541 -0.2531
11221TIP3    H155078   3.043   4.894  13.543 -0.5632 -0.2748  0.9622
11221TIP3    H255079   3.018   4.783  13.642  2.8367 -1.1007  0.9594
11222TIP3   OH255080   6.359   4.051  16.233 -0.4627  0.0160 -0.3745
11222TIP3    H155081   6.314   4.081  16.312 -0.4919 -0.0618 -0.3616
11222TIP3    H255082   6.304   3.978  16.201 -0.4417  0.0356 -0.4545
11223TIP3   OH255083   0.260   4.135  13.044 -0.1404 -0.2120  0.7607
11223TIP3    H155084   0.319   4.182  12.984 -0.6372 -0.6102 -0.0605
11223TIP3    H255085   0.249   4.194  13.118  1.0553 -0.0092  0.7768
11224TIP3   OH255086   4.741   1.523   1.223  0.1462 -0.1746 -0.7672
11224TIP3    H155087   4.836   1.537   1.220  0.3194 -0.8659  1.0943
11224TIP3    H255088   4.704   1.610   1.213  0.9682  0.1085 -1.4559
11225TIP3   OH255089   0.956   2.972   0.259  0.0559  0.6439  0.4960
11225TIP3    H155090   0.987   2.974   0.169 -0.5223 -0.9691  0.2456
11225TIP3    H255091   1.017   3.028   0.307  2.2797 -1.0023 -0.3324
11226TIP3   OH255092   2.214   5.125  14.346  0.3554 -0.1007  0.1142
11226TIP3    H155093   2.300   5.163  14.365  0.2902 -0.6842  1.6506
11226TIP3    H255094   2.194   5.155  14.257  1.0204  2.1051  0.6758
11227TIP3   OH255095   5.411   5.294   2.860  0.8387 -0.1423  0.1535
11227TIP3    H155096   5.493   5.250   2.881 -0.0373 -1.1933  1.5436
11227TIP3    H255097   5.404   5.364   2.924  0.3567 -0.4736  0.4753
11228TIP3   OH255098   5.604   5.228   2.033 -0.3211  0.2429 -0.4618
11228TIP3    H155099   5.581   5.136   2.021 -1.1474  0.4583 -0.6236
11228TIP3    H255100   5.522   5.275   2.014  0.1547  1.0179 -0.6054
11229TIP3   OH255101   3.765   6.725   1.243 -0.4506 -0.6442 -0.1343
11229TIP3    H155102   3.754   6.666   1.317  0.5092  0.5578  0.9807
11229TIP3    H255103   3.681   6.770   1.235  0.0312  0.5484  1.3878
11230TIP3   OH255104   4.331   0.496  16.133 -0.2895 -0.2829  0.2671
11230TIP3    H155105   4.285   0.453  16.061 -0.5164 -0.6794  0.6443
11230TIP3    H255106   4.264   0.551  16.174 -0.2627 -0.3786  0.4366
11231TIP3   OH255107   4.690   1.733   2.002  0.0072 -0.1354 -0.5640
11231TIP3    H155108   4.670   1.652   1.954  0.6147 -0.6418  0.0275
11231TIP3    H255109   4.661   1.716   2.091 -0.9389  0.7391 -0.6871
11232TIP3   OH255110   2.575   3.757  13.994 -0.3307  0.0921 -0.2717
11232TIP3    H155111   2.670   3.746  13.995 -0.4018 -0.4820  0.4883
11232TIP3    H255112   2.560   3.827  13.930  0.5998  0.1908 -0.3935
11233TIP3   OH255113   2.193   1.622  14.844 -0.1358 -0.7848  0.3604
11233TIP3    H155114   2.199   1.673  14.763  1.0563 -0.9680  0.3235
11233TIP3    H255115   2.112   1.572  14.834  0.7673 -1.9600 -1.4308
11234TIP3   OH255116   6.129   4.831  16.886  0.3065  0.2287  0.8559
11234TIP3    H155117   6.037   4.857  16.893  0.4488  1.1211 -0.3228
11234TIP3    H255118   6.126   4.747  16.840  0.1546  1.2267 -1.0398
11235TIP3   OH255119   6.745   6.413  16.763 -0.0997  0.7300  1.1631
11235TIP3    H155120   6.737   6.368  16.848  0.0898 -2.5510 -0.4561
11235TIP3    H255121   6.661   6.456  16.751 -0.6445  0.0381  2.3726
11236TIP3   OH255122   2.935   0.953  13.777 -0.2394 -0.1175 -0.5686
11236TIP3    H155123   3.019   0.938  13.733  0.5215  0.4302  0.6594
11236TIP3    H255124   2.959   0.973  13.867 -1.6168  1.5107 -0.5386
11237TIP3   OH255125   2.018   2.908  11.434  0.0244  0.1800 -0.3251
11237TIP3    H155126   2.010   2.817  11.462 -0.9160  0.9520  2.0506
11237TIP3    H255127   1.959   2.915  11.360 -1.8271 -0.5674  1.0289
11238TIP3   OH255128   4.151   4.230   5.730  0.2858  0.6801  0.1221
11238TIP3    H155129   4.081   4.272   5.779 -0.1538 -0.1200  0.1970
11238TIP3    H255130   4.156   4.141   5.767 -0.0827  0.0469 -1.3113
11239TIP3   OH255131   0.329   0.470   5.880 -0.0741 -0.1494  0.2283
11239TIP3    H155132   0.298   0.460   5.970 -2.4405 -0.6359 -0.6187
11239TIP3    H255133   0.360   0.383   5.855  3.1839  0.5791  1.4541
11240TIP3   OH255134   4.259   0.583   0.188 -0.3461 -0.1201  0.1656
11240TIP3    H155135   4.341   0.582   0.237 -0.3676  0.2083  0.2080
11240TIP3    H255136   4.259   0.501   0.139 -0.6069 -0.7471  1.1928
11241TIP3   OH255137   1.452   2.194   5.607 -0.2196 -0.1808  0.0547
11241TIP3    H155138   1.453   2.290   5.617  1.5670 -0.3416  1.8086
11241TIP3    H255139   1.460   2.161   5.697  1.9338 -1.9524 -0.7320
11242TIP3   OH255140   6.693   4.151  14.509 -0.3103  0.0200 -0.4025
11242TIP3    H155141   6.620   4.199  14.471  0.2464  0.1159 -1.3617
11242TIP3    H255142   6.660   4.062  14.519 -0.0964 -0.2683 -2.1605
11243TIP3   OH255143   6.092   3.548   2.092  0.1846 -0.2439 -0.7969
11243TIP3    H155144   6.016   3.507   2.135 -0.6269  0.3098 -1.6970
11243TIP3    H255145   6.124   3.481   2.032 -0.1848 -0.1444 -1.1126
11244TIP3   OH255146   4.365   5.380  13.140  0.8815  0.2154  0.4594
11244TIP3    H155147   4.394   5.332  13.062  0.7157 -1.1590  1.2288
11244TIP3    H255148   4.396   5.470  13.126  2.3959 -0.4236 -0.3681
11245TIP3   OH255149   4.398   6.453   4.483  0.0040  0.2327  0.2601
11245TIP3    H155150   4.472   6.399   4.510  1.1100  1.3921 -0.4250
11245TIP3    H255151   4.415   6.539   4.522 -1.2100  0.3984  0.4633
11246TIP3   OH255152   0.089   3.759   3.514  0.3470  0.1921  0.0060
11246TIP3    H155153   0.173   3.785   3.552  0.5570  1.5489 -1.3680
11246TIP3    H255154   0.112   3.702   3.441  0.1424  1.5649 -1.1528
11247TIP3   OH255155   2.069   2.269  12.091  0.0015  0.0807 -0.0520
11247TIP3    H155156   2.099   2.231  12.173  1.6229  0.5638 -0.3926
11247TIP3    H255157   2.132   2.339  12.072 -0.3037 -0.0599 -1.7299
11248TIP3   OH255158   6.276   5.735  15.653  0.2475 -0.1205 -0.0337
11248TIP3    H155159   6.345   5.786  15.696 -0.2841  1.6018 -1.1560
11248TIP3    H255160   6.237   5.796  15.591 -1.7411 -1.3203 -0.0064
11249TIP3   OH255161   3.474   3.308  11.504  0.2649  0.1147  0.2786
11249TIP3    H155162   3.556   3.304  11.456 -1.3211 -0.3195 -2.5047
11249TIP3    H255163   3.430   3.225  11.485 -1.1934  0.6952  0.9867
11250TIP3   OH255164   3.271   2.022   2.902  0.5360  0.2280  0.2324
11250TIP3    H155165   3.360   2.030   2.867  0.8373 -1.0549  0.6987
11250TIP3    H255166   3.217   2.071   2.840  1.2442 -0.9227 -1.3226
11251TIP3   OH255167   5.609   1.558   4.541 -0.0728  0.3137 -0.3046
11251TIP3    H155168   5.695   1.591   4.517  0.4614 -1.4104 -0.8251
11251TIP3    H255169   5.573   1.625   4.599  1.4348  1.2480 -0.4180
11252TIP3   OH255170   2.287   1.834   3.858 -0.3119  0.6883  0.4841
11252TIP3    H155171   2.302   1.772   3.788  0.1865 -2.0308  2.8977
11252TIP3    H255172   2.329   1.915   3.829  3.3682 -1.5301 -0.6368
11253TIP3   OH255173   4.659   1.756   1.085  0.0067 -0.6604 -0.0112
11253TIP3    H155174   4.656   1.726   0.994 -2.6268  0.2314 -0.2389
11253TIP3    H255175   4.715   1.834   1.083 -0.7414 -0.1398 -1.0147
11254TIP3   OH255176   5.398   4.834  14.082  0.2141  0.0933  0.0059
11254TIP3    H155177   5.486   4.868  14.067  1.1970 -2.6347 -0.7338
11254TIP3    H255178   5.398   4.805  14.173  0.3296 -0.4946 -0.1736
11255TIP3   OH255179   4.713   3.586  14.053 -0.0347  0.1694  0.4168
11255TIP3    H155180   4.742   3.518  13.992 -1.1417  1.4076 -1.5533
11255TIP3    H255181   4.655   3.541  14.113 -1.2407 -0.5336 -1.2467
11256TIP3   OH255182   3.455   1.422   5.491  0.9370 -0.5463  0.6771
11256TIP3    H155183   3.428   1.509   5.521 -0.6698 -0.4914 -0.8174
11256TIP3    H255184   3.532   1.439   5.437  0.0053  0.1118 -0.4851
11257TIP3   OH255185   6.262   4.084   5.068 -0.1150  0.0572  0.2736
11257TIP3    H155186   6.259   4.003   5.120  0.5562  1.2095  2.1708
11257TIP3    H255187   6.204   4.144   5.115  0.3915  1.0815 -0.4035
11258TIP3   OH255188   0.956   0.143  17.054  0.2650  0.0384  0.4511
11258TIP3    H155189   0.878   0.104  17.014  0.0187  1.0687 -0.0587
11258TIP3    H255190   1.024   0.077  17.041 -0.4662 -0.7995  0.7492
11259TIP3   OH255191   0.487   3.706  12.010  0.1311  0.9329 -0.0475
11259TIP3    H155192   0.516   3.775  11.949  0.5626  0.9871  0.2158
11259TIP3    H255193   0.437   3.646  11.956 -0.7277  1.7580 -0.1752
11260TIP3   OH255194   1.922   6.057   0.933  0.2019 -0.2098  0.5661
11260TIP3    H155195   1.857   6.119   0.966 -0.8653 -1.1803  0.3470
11260TIP3    H255196   1.908   6.054   0.839 -1.8267 -3.0008  0.8798
11261TIP3   OH255197   0.900   6.100  17.126  0.0626 -0.5087  0.1819
11261TIP3    H155198   0.814   6.141  17.120  0.1972  0.0251  1.8027
11261TIP3    H255199   0.893   6.039  17.200  0.8442 -1.0238 -0.1625
11262TIP3   OH255200   5.449   6.264  15.133 -0.0557 -0.1703  0.2996
11262TIP3    H155201   5.392   6.308  15.196 -2.4832  1.9488 -3.1566
11262TIP3    H255202   5.535   6.305  15.145 -0.9494  1.5906  0.9499
11263TIP3   OH255203   5.448   3.038   3.224  0.1894  0.0921 -0.0606
11263TIP3    H155204   5.410   3.006   3.305  0.4082  0.0357  0.0201
11263TIP3    H255205   5.424   2.973   3.158 -1.0069  0.7494 -0.2832
11264TIP3   OH255206   1.042   2.098  15.628 -0.8939 -0.0527  0.4287
11264TIP3    H155207   0.979   2.044  15.581  1.3451 -2.7666  0.4659
11264TIP3    H255208   1.108   2.121  15.563  1.3919 -2.5281  1.7614
11265TIP3   OH255209   5.249   2.181  13.923  0.3644 -0.5843 -0.1558
11265TIP3    H155210   5.344   2.172  13.917  0.4993  1.8786 -2.8953
11265TIP3    H255211   5.215   2.126  13.853 -0.1281 -0.2298 -0.1996
11266TIP3   OH255212   5.257   3.097  13.685 -0.3563  0.5133 -0.1311
11266TIP3    H155213   5.282   3.163  13.620 -0.1839  1.0694  0.4978
11266TIP3    H255214   5.169   3.124  13.713 -0.1727  0.6360  0.3278
11267TIP3   OH255215   6.102   5.466  13.592 -0.2599  0.5523 -0.3032
11267TIP3    H155216   6.181   5.516  13.573  0.1926  0.8192  2.1026
11267TIP3    H255217   6.131   5.374  13.592 -0.5208  0.4495 -1.9918
11268TIP3   OH255218   0.597   5.662   5.621  0.2172  0.0515  0.1353
11268TIP3    H155219   0.625   5.695   5.536 -0.4805 -1.3386 -0.6562
11268TIP3    H255220   0.662   5.595   5.643 -1.6729 -2.2896 -1.1141
11269TIP3   OH255221   5.304   5.636   0.466 -0.5059  0.0932 -0.3745
11269TIP3    H155222   5.327   5.720   0.425  1.9017 -0.9147 -1.1870
11269TIP3    H255223   5.340   5.570   0.408  0.3671 -1.4356  1.8334
11270TIP3   OH255224   2.249   3.306   5.392  0.3317 -0.0577  0.1527
11270TIP3    H155225   2.201   3.321   5.311  1.7666  2.7655 -0.2140
11270TIP3    H255226   2.195   3.347   5.460 -0.1822 -1.2090  0.4527
11271TIP3   OH255227   2.913   0.056  14.244  0.2044 -0.1649  0.7907
11271TIP3    H155228   2.990   0.041  14.189  0.0043  0.3787  0.3524
11271TIP3    H255229   2.844   0.003  14.203 -0.0526  0.5709  0.2722
11272TIP3   OH255230   5.943   6.084  11.185 -0.3642 -0.2694 -0.0223
11272TIP3    H155231   5.882   6.022  11.147 -0.2751  0.9232 -2.1878
11272TIP3    H255232   6.026   6.068  11.139 -0.1918  1.0328 -0.1851
11273TIP3   OH255233   5.147   1.390   1.440 -0.4225 -0.0727  0.5790
11273TIP3    H155234   5.165   1.377   1.347  0.2476 -0.5937  0.7756
11273TIP3    H255235   5.054   1.372   1.449 -0.0093 -2.4206  0.4171
11274TIP3   OH255236   2.307   6.361   2.415 -0.0053 -0.0802 -0.7359
11274TIP3    H155237   2.265   6.373   2.500  1.2893  1.7618 -0.3203
11274TIP3    H255238   2.340   6.271   2.417 -0.4640 -0.2328  0.4795
11275TIP3   OH255239   4.876   2.089  15.246 -0.1046  0.1856  0.0805
11275TIP3    H155240   4.864   2.122  15.335  1.5153 -1.1162  0.8245
11275TIP3    H255241   4.955   2.134  15.214 -1.2218  1.3669 -1.0681
11276TIP3   OH255242   3.440   2.533   0.737  0.4810  0.3263  0.0878
11276TIP3    H155243   3.491   2.475   0.794 -0.4385  1.3233  1.9861
11276TIP3    H255244   3.506   2.582   0.688  1.2928 -0.7717  0.0500
11277TIP3   OH255245   6.068   3.449  12.178  0.2805 -0.1867  0.5207
11277TIP3    H155246   5.988   3.413  12.217  0.3042  0.2470  0.9803
11277TIP3    H255247   6.087   3.527  12.231 -1.1041  1.8878 -1.9390
11278TIP3   OH255248   6.106   4.246  11.350  0.0053 -0.0554 -0.7842
11278TIP3    H155249   6.183   4.191  11.362 -1.0715 -2.2140 -3.1915
11278TIP3    H255250   6.135   4.316  11.293  0.7915  0.5532  0.3483
11279TIP3   OH255251   5.068   1.818  14.103  0.7924 -0.0699 -0.6180
11279TIP3    H155252   5.102   1.903  14.132  0.3556 -0.5070  1.2348
11279TIP3    H255253   4.996   1.841  14.044 -0.0803  0.8730  0.7802
11280TIP3   OH255254   4.073   3.421  11.871 -0.4733 -0.3779 -0.0532
11280TIP3    H155255   4.087   3.359  11.943  2.5273 -0.9496 -1.0666
11280TIP3    H255256   4.123   3.499  11.896  1.2916 -0.8911 -1.8530
11281TIP3   OH255257   5.156   5.472  14.179 -0.5008  0.3247  0.4673
11281TIP3    H155258   5.247   5.445  14.168 -1.1419 -1.9930  0.6149
11281TIP3    H255259   5.143   5.541  14.114  1.3139  0.5833  0.3639
11282TIP3   OH255260   4.665   1.240   2.740  0.1471 -0.1818 -1.0986
11282TIP3    H155261   4.612   1.297   2.685 -2.1407  0.0135  1.1711
11282TIP3    H255262   4.707   1.179   2.679 -3.0124 -0.5801 -3.0176
11283TIP3   OH255263   2.875   3.458   0.094  0.2390  0.0747  0.4382
11283TIP3    H155264   2.942   3.440   0.160 -1.1836  0.3574  2.0067
11283TIP3    H255265   2.838   3.372   0.074  0.9215 -0.0585 -0.2934
11284TIP3   OH255266   6.252   0.217  15.774 -0.2045 -0.0121  0.5204
11284TIP3    H155267   6.220   0.198  15.862 -0.7088  0.5555  0.4649
11284TIP3    H255268   6.333   0.266  15.788  0.0132 -0.4111  0.6644
11285TIP3   OH255269   1.995   1.105  16.935  0.0914  0.1383 -0.9470
11285TIP3    H155270   2.028   1.145  17.015 -1.7100  0.1790 -0.1870
11285TIP3    H255271   1.910   1.069  16.960  1.3827 -3.6774 -1.7412
11286TIP3   OH255272   5.600   6.756   2.372 -0.0280  0.3362  0.4818
11286TIP3    H155273   5.516   6.714   2.395 -0.5112  0.9194 -0.1984
11286TIP3    H255274   5.632   6.792   2.455 -0.1355 -0.4422  0.8688
11287TIP3   OH255275   0.779   5.576   2.121 -0.2730  0.3994 -0.1314
11287TIP3    H155276   0.831   5.571   2.041 -2.0099 -1.3189 -1.2052
11287TIP3    H255277   0.733   5.660   2.115  1.7391  1.5773  0.4680
11288TIP3   OH255278   0.504   0.311  13.359 -0.2883 -0.0096  0.0360
11288TIP3    H155279   0.516   0.278  13.448 -1.5828 -2.4133 -0.6290
11288TIP3    H255280   0.506   0.233  13.304  1.0366  1.5019 -2.1287
11289TIP3   OH255281   0.963   3.425   0.416  0.2210 -0.2428 -0.4273
11289TIP3    H155282   0.950   3.343   0.463  0.8794 -1.2796 -1.9814
11289TIP3    H255283   0.956   3.493   0.483  1.9104 -1.7053  1.2836
11290TIP3   OH255284   3.900   0.548   3.955  0.1219  0.1966  0.1655
11290TIP3    H155285   3.906   0.603   3.876 -1.1457  1.2364  0.7783
11290TIP3    H255286   3.824   0.581   4.002 -1.3114 -2.7775  0.0511
11291TIP3   OH255287   0.436   1.993  13.907  0.4159  0.6646  0.6966
11291TIP3    H155288   0.466   1.902  13.908 -0.7165  0.2580 -1.0482
11291TIP3    H255289   0.340   1.987  13.906  0.2970  1.9063  2.0774
11292TIP3   OH255290   3.693   2.277   0.140 -0.1812 -0.0209 -0.3216
11292TIP3    H155291   3.760   2.210   0.149 -0.6879 -0.3363  1.2768
11292TIP3    H255292   3.629   2.239   0.079 -0.3557 -0.9155  0.4033
11293TIP3   OH255293   4.234   0.666  16.798 -0.8683 -0.4107 -0.0440
11293TIP3    H155294   4.236   0.571  16.801 -0.5373 -0.4486 -1.1884
11293TIP3    H255295   4.299   0.694  16.862 -0.6843 -0.9518  0.0075
11294TIP3   OH255296   0.523   2.191   1.826 -0.5301  0.0619  0.1168
11294TIP3    H155297   0.506   2.276   1.784  1.2141  0.4815  0.2232
11294TIP3    H255298   0.436   2.156   1.844 -1.2985  0.7271 -2.1225
11295TIP3   OH255299   3.987   4.903   2.009 -0.1566  0.2841 -0.1174
11295TIP3    H155300   3.943   4.968   2.064  0.9092  1.8171 -1.0030
11295TIP3    H255301   4.065   4.878   2.058 -0.9652 -0.9379  0.5695
11296TIP3   OH255302   3.620   2.478  15.795  0.4975  0.5473  0.5928
11296TIP3    H155303   3.532   2.515  15.786 -0.4352 -1.9328 -1.0221
11296TIP3    H255304   3.618   2.433  15.880 -1.2379 -3.0159 -1.2259
11297TIP3   OH255305   6.627   5.214  17.044 -0.3306 -0.6754  0.1836
11297TIP3    H155306   6.671   5.277  17.100  0.5913  0.0105 -1.2816
11297TIP3    H255307   6.543   5.256  17.022  0.7034  0.5309 -1.6091
11298TIP3   OH255308   2.478   1.580  16.459 -0.1424 -0.0675 -0.6378
11298TIP3    H155309   2.502   1.491  16.436  1.2784  0.4894 -1.3423
11298TIP3    H255310   2.431   1.613  16.383  1.8551  0.7317 -1.5687
11299TIP3   OH255311   2.568   5.010   5.858  0.1313 -0.2459 -0.5081
11299TIP3    H155312   2.628   4.944   5.891 -1.1184 -1.0276  0.2430
11299TIP3    H255313   2.488   4.962   5.837 -1.3122  1.1804  1.4366
11300TIP3   OH255314   5.009   6.518   2.727 -0.3445 -0.0564  0.4021
11300TIP3    H155315   5.026   6.486   2.638 -1.4589 -0.1304  0.2099
11300TIP3    H255316   5.091   6.502   2.774  0.5198  0.6855 -0.8067
11301TIP3   OH255317   5.039   6.107   3.361  0.0682 -0.2198  1.0168
11301TIP3    H155318   4.971   6.067   3.414 -1.6121  2.9434  1.3453
11301TIP3    H255319   5.008   6.098   3.271 -0.8516  1.2146  1.1658
11302TIP3   OH255320   3.433   0.759  11.156  0.3884 -0.6451  0.4548
11302TIP3    H155321   3.436   0.699  11.081  1.4788 -1.9944  1.5412
11302TIP3    H255322   3.416   0.845  11.118 -0.6730 -1.5671 -1.1896
11303TIP3   OH255323   0.041   4.297   0.511 -0.0471  0.0590 -0.4082
11303TIP3    H155324   0.071   4.355   0.441 -0.9439  1.8287  0.6533
11303TIP3    H255325   0.114   4.293   0.572  1.2553 -2.5475 -2.0256
11304TIP3   OH255326   1.939   6.217   6.221  0.0094 -0.2705  0.6483
11304TIP3    H155327   2.011   6.269   6.185 -0.1193  0.7369  1.8257
11304TIP3    H255328   1.860   6.267   6.198 -0.1618 -0.2727  1.2416
11305TIP3   OH255329   5.700   0.147  13.423 -0.7605 -0.4096 -0.0566
11305TIP3    H155330   5.653   0.105  13.351 -0.8499  0.3106 -0.4314
11305TIP3    H255331   5.688   0.241  13.407  0.8052 -0.2062 -0.1781
11306TIP3   OH255332   0.809   5.573   3.558 -0.0873 -0.4480  0.0624
11306TIP3    H155333   0.798   5.646   3.498  0.1770 -0.0690  0.4756
11306TIP3    H255334   0.731   5.575   3.613 -0.1829 -0.6110 -0.0645
11307TIP3   OH255335   2.876   6.352  16.713 -0.8248  0.0519  0.7890
11307TIP3    H155336   2.806   6.302  16.757 -1.4033  1.0401  1.0185
11307TIP3    H255337   2.829   6.422  16.667 -0.1675 -0.6245 -0.9320
11308TIP3   OH255338   5.626   0.860  16.072  0.1319  0.0402 -0.3265
11308TIP3    H155339   5.685   0.921  16.114 -3.1344  2.9669  0.2244
11308TIP3    H255340   5.678   0.821  16.001  3.5761  0.1723  2.0299
11309TIP3   OH255341   6.303   4.991  14.031  0.0777  0.3602 -0.3313
11309TIP3    H155342   6.242   4.928  14.070 -0.0762 -0.3503 -1.7125
11309TIP3    H255343   6.283   5.073  14.076 -2.1762  0.2227 -1.0080
11310TIP3   OH255344   1.602   2.323  14.028 -0.4629  0.3698  0.2060
11310TIP3    H155345   1.673   2.364  13.979 -1.1360 -1.0516 -2.0251
11310TIP3    H255346   1.637   2.240  14.058 -1.2400 -0.4676 -1.1501
11311TIP3   OH255347   3.997   4.562   0.228 -0.1293  0.2281  0.2012
11311TIP3    H155348   4.061   4.498   0.196  0.8633  0.6220  1.3863
11311TIP3    H255349   4.026   4.646   0.193 -0.2455  0.3486  0.3908
11312TIP3   OH255350   6.470   4.671  16.662 -0.4721 -0.2274 -0.1429
11312TIP3    H155351   6.488   4.628  16.746  1.5211 -0.5090 -0.7030
11312TIP3    H255352   6.543   4.732  16.649 -2.2023  1.8898 -0.3502
11313TIP3   OH255353   4.481   6.067   4.274 -0.0906  0.0610 -0.1296
11313TIP3    H155354   4.465   6.017   4.354  0.2303 -1.2578 -0.8629
11313TIP3    H255355   4.565   6.111   4.289 -1.5063  2.3197  1.4500
11314TIP3   OH255356   4.270   1.668   3.385 -0.2610 -0.1547  0.1686
11314TIP3    H155357   4.231   1.650   3.471  1.2741  1.0388  1.1538
11314TIP3    H255358   4.268   1.584   3.340  0.3203 -1.1852  1.9819
11315TIP3   OH255359   4.142   4.718   0.470  0.2949  0.2831  0.0849
11315TIP3    H155360   4.107   4.709   0.381  1.0945 -0.5643 -0.1571
11315TIP3    H255361   4.231   4.683   0.463  0.5003  0.6058  1.1280
11316TIP3   OH255362   6.168   3.918  12.929  0.3812  0.0213 -0.0335
11316TIP3    H155363   6.093   3.962  12.968  0.2074  1.1014 -1.5394
11316TIP3    H255364   6.187   3.969  12.850  1.3630 -1.5023 -0.7982
11317TIP3   OH255365   5.038   4.530   4.600  0.2048  0.1676  0.4705
11317TIP3    H155366   5.054   4.624   4.599 -1.2254  0.4326  1.0895
11317TIP3    H255367   4.978   4.517   4.673  0.6579 -1.2720  0.5983
11318TIP3   OH255368   2.709   0.133   0.423 -0.2070 -0.2706  0.5515
11318TIP3    H155369   2.738   0.153   0.512  0.3830  0.8583  0.1238
11318TIP3    H255370   2.614   0.140   0.425 -0.1144  1.0425  0.8017
11319TIP3   OH255371   5.273   3.867   3.680 -0.3614  0.2140  0.2978
11319TIP3    H155372   5.260   3.774   3.700 -1.0238  0.0869 -0.6642
11319TIP3    H255373   5.222   3.913   3.747 -1.1438 -0.1615 -0.0307
11320TIP3   OH255374   0.963   6.193  16.605  0.5639 -0.1337  0.4044
11320TIP3    H155375   1.025   6.179  16.533 -0.4899  0.2955 -0.6046
11320TIP3    H255376   1.011   6.168  16.683  1.2299 -2.0978 -0.6039
11321TIP3   OH255377   0.703   3.156  12.586  0.4674  0.0924 -0.2655
11321TIP3    H155378   0.706   3.093  12.658  2.4615  0.0287 -0.3783
11321TIP3    H255379   0.740   3.108  12.512  0.5084  0.8818 -0.7598
11322TIP3   OH255380   2.942   5.615  17.221 -0.2077  0.3371 -0.7821
11322TIP3    H155381   2.954   5.526  17.189  0.8250  0.1088  0.2101
11322TIP3    H255382   2.859   5.613  17.269 -0.0428 -0.1469 -0.5235
11323TIP3   OH255383   5.675   0.877  13.677 -0.7334  0.5176 -0.1176
11323TIP3    H155384   5.580   0.879  13.692 -1.1276 -0.5679 -2.1789
11323TIP3    H255385   5.683   0.846  13.587  1.5710  1.3465 -0.2137
11324TIP3   OH255386   1.310   5.681   6.761  0.7567  0.6344  0.0428
11324TIP3    H155387   1.303   5.774   6.782 -0.6546  0.8125 -1.0574
11324TIP3    H255388   1.309   5.679   6.665  0.0837 -0.5528  0.0700
11325TIP3   OH255389   1.604   1.134  10.306 -0.1151 -0.4327  0.3729
11325TIP3    H155390   1.597   1.087  10.223 -0.7711  1.1610 -0.4934
11325TIP3    H255391   1.620   1.065  10.371  0.7840 -1.6596 -1.1140
11326TIP3   OH255392   1.125   6.626   1.742 -0.1436  0.1504  0.2495
11326TIP3    H155393   1.213   6.622   1.779 -0.5864  2.9635  1.8222
11326TIP3    H255394   1.068   6.596   1.813 -0.6355  1.0480  0.2491
11327TIP3   OH255395   3.347   3.904   1.075  0.4616 -0.6013  0.0247
11327TIP3    H155396   3.366   3.821   1.031 -1.4139 -1.1289  0.1442
11327TIP3    H255397   3.284   3.948   1.017 -0.8942 -0.6471  1.4345
11328TIP3   OH255398   3.336   2.756   0.865  0.4568 -0.4260 -0.0569
11328TIP3    H155399   3.355   2.665   0.842 -2.6075 -1.6672  1.9140
11328TIP3    H255400   3.241   2.758   0.877  0.3905  3.1923 -0.6242
11329TIP3   OH255401   0.599   1.208   2.658 -0.4062 -0.0429 -0.3130
11329TIP3    H155402   0.649   1.276   2.611 -3.1161  4.2016  2.5902
11329TIP3    H255403   0.514   1.206   2.614 -1.2891  0.4945  1.3286
11330TIP3   OH255404   4.523   2.491  12.373  0.2657  0.1739  0.0356
11330TIP3    H155405   4.446   2.546  12.358  0.1605 -0.4186 -1.8219
11330TIP3    H255406   4.488   2.402  12.380  0.8524 -0.2943 -2.3313
11331TIP3   OH255407   5.053   5.076  14.888 -0.3445 -0.4986 -0.0865
11331TIP3    H155408   5.007   4.993  14.878 -0.6924 -0.7655  3.2066
11331TIP3    H255409   4.995   5.130  14.942  0.4806  1.4230 -1.0603
11332TIP3   OH255410   6.315   0.260   3.095 -0.1064  0.5390  0.0140
11332TIP3    H155411   6.274   0.245   3.180 -0.2126  0.4763 -0.0476
11332TIP3    H255412   6.365   0.341   3.106  2.6247 -1.2268  1.1305
11333TIP3   OH255413   2.329   0.051   3.571 -0.1896  0.2429 -0.7124
11333TIP3    H155414   2.394  -0.013   3.598  0.0779  0.3508 -1.0912
11333TIP3    H255415   2.247   0.001   3.562  0.0016 -0.0317 -0.9374
11334TIP3   OH255416   0.051   4.547  14.515  0.4937 -0.5893 -0.2608
11334TIP3    H155417   0.138   4.583  14.497  0.1021 -0.5521 -2.2481
11334TIP3    H255418   0.027   4.583  14.600  0.7055  2.7233 -1.5286
11335TIP3   OH255419   5.953   1.758   2.639  0.1295 -0.0400 -0.0624
11335TIP3    H155420   5.954   1.835   2.581  2.4300 -0.4194 -0.5784
11335TIP3    H255421   6.045   1.745   2.663 -0.2069 -2.7498 -0.1187
11336TIP3   OH255422   4.332   1.596  13.010  0.3574 -0.4027  0.5283
11336TIP3    H155423   4.305   1.612  13.100 -0.1386 -4.0447  1.0768
11336TIP3    H255424   4.424   1.569  13.017 -0.3204 -2.9093  0.2246
11337TIP3   OH255425   2.229   1.492  13.007 -0.5750 -0.3342  0.7534
11337TIP3    H155426   2.171   1.566  12.987  0.0563 -0.1057 -0.2960
11337TIP3    H255427   2.308   1.533  13.043 -0.3077 -0.5084  0.3657
11338TIP3   OH255428   4.025   0.128   4.190  0.4088 -0.5102  0.1592
11338TIP3    H155429   4.070   0.152   4.271  0.3865  0.4377 -0.0967
11338TIP3    H255430   4.095   0.128   4.124  0.0316  1.1737 -0.2790
11339TIP3   OH255431   0.007   4.581   3.672 -0.4970  0.2764 -0.1514
11339TIP3    H155432   0.045   4.504   3.715 -0.1711 -0.1364 -1.1578
11339TIP3    H255433   0.082   4.626   3.632 -0.9368 -0.0585 -1.3886
11340TIP3   OH255434   6.709   4.706   2.922  0.0283 -0.0884  0.1353
11340TIP3    H155435   6.621   4.742   2.913  1.0354  2.2067 -0.8268
11340TIP3    H255436   6.761   4.752   2.857  1.6170 -2.6326 -0.4835
11341TIP3   OH255437   5.584   5.716  13.286 -0.3033 -0.4651 -0.1778
11341TIP3    H155438   5.618   5.642  13.335  1.4840 -0.4200 -1.2940
11341TIP3    H255439   5.658   5.745  13.232 -1.4160  1.1792 -0.8666
11342TIP3   OH255440   1.195   1.597  12.867  0.1809 -0.1274  0.1874
11342TIP3    H155441   1.270   1.653  12.887  0.0722  0.6379 -1.5139
11342TIP3    H255442   1.150   1.586  12.951  1.0039  1.1567  0.8005
11343TIP3   OH255443   6.698   6.262   2.407  0.3337  0.1756 -0.1996
11343TIP3    H155444   6.738   6.208   2.339  0.4866 -2.4570  1.8979
11343TIP3    H255445   6.769   6.279   2.469 -0.1795  1.1968  0.1238
11344TIP3   OH255446   2.814   3.672   4.275  0.1637  0.2029 -0.0722
11344TIP3    H155447   2.801   3.596   4.218  1.4657 -0.1438  0.0681
11344TIP3    H255448   2.879   3.725   4.229  2.2126 -0.7064  1.6552
11345TIP3   OH255449   1.311   5.974  12.113  0.1621 -0.0644  0.1115
11345TIP3    H155450   1.320   6.001  12.022  0.1394 -1.4732 -0.3286
11345TIP3    H255451   1.380   6.021  12.160  1.6202 -1.0225 -1.0199
11346TIP3   OH255452   0.391   6.037   2.925  0.0898  0.3712  0.2686
11346TIP3    H155453   0.399   5.960   2.981  0.1291 -1.0552 -1.6464
11346TIP3    H255454   0.451   6.020   2.852 -2.3154  0.6623 -1.8633
11347TIP3   OH255455   0.593   1.537   6.347  0.3733  0.0380  0.1679
11347TIP3    H155456   0.513   1.488   6.366 -0.0347  0.6888  0.1433
11347TIP3    H255457   0.588   1.614   6.404  0.3473  0.7389 -0.7758
11348TIP3   OH255458   6.431   0.776   3.141 -0.1725  0.0983 -0.1648
11348TIP3    H155459   6.353   0.820   3.106  0.4292  2.0912  0.9053
11348TIP3    H255460   6.480   0.846   3.185  0.6695 -1.7207  1.8722
11349TIP3   OH255461   5.966   3.425   5.172 -0.0697 -0.1363  0.0881
11349TIP3    H155462   6.010   3.510   5.165 -0.8454  0.5075  2.5603
11349TIP3    H255463   5.972   3.388   5.084  4.4442  0.4084  0.0327
11350TIP3   OH255464   5.833   4.574  13.844  0.0701 -0.3627  0.1040
11350TIP3    H155465   5.919   4.589  13.882 -0.2210 -3.6083  2.2592
11350TIP3    H255466   5.847   4.505  13.779 -0.4726  1.0045 -1.5080
11351TIP3   OH255467   4.916   4.066  15.372 -0.1615  0.4089  0.1632
11351TIP3    H155468   5.002   4.063  15.413  0.5577 -2.1549 -1.4073
11351TIP3    H255469   4.925   4.129  15.301  0.4294  0.1356 -0.0051
11352TIP3   OH255470   6.536   2.380   0.202 -0.3107 -0.1662  0.0178
11352TIP3    H155471   6.613   2.331   0.173  0.8387  3.3906 -3.3624
11352TIP3    H255472   6.566   2.424   0.282  0.7118  0.0157 -0.4501
11353TIP3   OH255473   5.031   3.663  11.928 -0.1878  0.0352 -0.4716
11353TIP3    H155474   5.091   3.738  11.927 -0.6781  0.4600  1.5003
11353TIP3    H255475   5.087   3.589  11.904  0.6120  0.7993 -1.0193
11354TIP3   OH255476   1.382   0.559  15.634  0.2783 -0.2045 -0.0459
11354TIP3    H155477   1.403   0.503  15.559 -0.2475  0.9575 -1.0889
11354TIP3    H255478   1.293   0.590  15.616  0.1328  0.0450  1.0964
11355TIP3   OH255479   1.520   4.145  17.035  0.4091 -0.3985  0.2945
11355TIP3    H155480   1.614   4.139  17.022  0.2828 -0.0663 -0.8105
11355TIP3    H255481   1.489   4.054  17.036  0.8924 -0.5548  1.8650
11356TIP3   OH255482   6.552   3.880  16.963 -0.2708  0.0717 -0.4858
11356TIP3    H155483   6.629   3.861  17.017  0.3736  0.1913 -1.3573
11356TIP3    H255484   6.513   3.795  16.945 -1.4573  0.1555  1.5732
11357TIP3   OH255485   1.866   2.753   3.150  0.1700 -0.1429 -0.0466
11357TIP3    H155486   1.820   2.671   3.166 -2.3654  1.2577  0.1731
11357TIP3    H255487   1.884   2.788   3.238 -3.6647  2.1020 -0.0302
11358TIP3   OH255488   1.606   5.048  14.641 -0.0595  0.5233 -0.2061
11358TIP3    H155489   1.664   5.035  14.565 -0.7090  1.1677 -0.8243
11358TIP3    H255490   1.666   5.059  14.715  0.5899  0.1265 -0.6660
11359TIP3   OH255491   5.853   4.849   2.646 -0.3157  0.0147  0.0520
11359TIP3    H155492   5.824   4.885   2.562 -0.2510  1.2769  0.5657
11359TIP3    H255493   5.948   4.851   2.642 -0.3012  2.1418  1.0178
11360TIP3   OH255494   3.703   5.179  11.751  0.0208 -0.4727 -0.0510
11360TIP3    H155495   3.719   5.107  11.812  2.1265 -0.0058 -0.0334
11360TIP3    H255496   3.677   5.252  11.807  0.6671 -0.4139  0.1731
11361TIP3   OH255497   5.746   2.375   0.532 -0.3386  0.5223 -0.5993
11361TIP3    H155498   5.761   2.281   0.520 -1.3792  0.3479 -0.5900
11361TIP3    H255499   5.833   2.412   0.547  0.0715 -0.4468 -0.5797
11362TIP3   OH255500   4.898   5.043  11.069  0.3127  0.1373  1.5266
11362TIP3    H155501   4.914   5.113  11.132  1.1817  0.5219  0.8996
11362TIP3    H255502   4.968   5.053  11.004 -1.0615  0.3042  0.0277
11363TIP3   OH255503   5.280   6.093   0.470 -0.4050  0.2407 -0.0343
11363TIP3    H155504   5.220   6.019   0.481 -0.4697 -0.0754 -2.3231
11363TIP3    H255505   5.367   6.056   0.485 -0.2664 -0.7901 -3.0524
11364TIP3   OH255506   0.552   2.222  16.651  0.2135  0.4129  0.4452
11364TIP3    H155507   0.488   2.192  16.715 -0.7755 -0.2823 -0.8630
11364TIP3    H255508   0.506   2.291  16.602  0.9028  0.8053  0.3421
11365TIP3   OH255509   5.242   0.064  11.904  0.1159 -0.2535 -0.4084
11365TIP3    H155510   5.299   0.135  11.934 -1.6285  1.0343 -0.1019
11365TIP3    H255511   5.179   0.051  11.975  0.0669 -1.7350 -0.7012
11366TIP3   OH255512   2.947   2.440   2.313 -0.4114 -0.6604 -0.4165
11366TIP3    H155513   3.013   2.404   2.254 -0.0994 -1.4862  0.4209
11366TIP3    H255514   2.921   2.366   2.368 -0.2769  0.2316  0.8697
11367TIP3   OH255515   0.400   5.057  14.314 -0.1361 -0.0562  0.1315
11367TIP3    H155516   0.340   5.110  14.262  0.7306 -0.8262 -1.6756
11367TIP3    H255517   0.478   5.112  14.324 -0.5732  0.3829  1.2855
11368TIP3   OH255518   1.483   2.254  13.468  0.2880 -0.3934 -0.0936
11368TIP3    H155519   1.459   2.235  13.558 -1.1205  2.3576  0.1716
11368TIP3    H255520   1.403   2.238  13.418  0.2749  0.7040 -0.4383
11369TIP3   OH255521   6.130   4.573  13.573 -0.1381 -0.0916 -0.4477
11369TIP3    H155522   6.090   4.645  13.524  0.5013  1.4283  1.2159
11369TIP3    H255523   6.186   4.529  13.510 -0.1795  1.1629 -1.3716
11370TIP3   OH255524   4.353   2.009  13.999 -0.2689  0.0204 -0.2876
11370TIP3    H155525   4.404   2.013  13.918  1.6168  0.0793  0.8816
11370TIP3    H255526   4.287   1.942  13.982  2.6323 -2.8866 -0.4931
11371TIP3   OH255527   3.998   4.927   4.480 -0.4133  0.5541 -0.2431
11371TIP3    H155528   3.969   5.001   4.428 -0.1594  0.4802 -0.4889
11371TIP3    H255529   3.986   4.955   4.571 -1.3959  0.4778 -0.3340
11372TIP3   OH255530   6.139   4.396  11.128  0.0291 -0.0183 -0.1787
11372TIP3    H155531   6.050   4.417  11.101 -1.1298 -3.5935  0.6135
11372TIP3    H255532   6.191   4.404  11.048 -0.8821  2.5795 -0.5420
11373TIP3   OH255533   0.712   1.145   2.986 -0.4092  0.5891  0.0614
11373TIP3    H155534   0.662   1.071   2.952  0.1830 -1.7899  4.0795
11373TIP3    H255535   0.802   1.128   2.960 -0.1634 -0.5271  1.5835
11374TIP3   OH255536   5.874   4.116  16.458 -0.3787 -0.0312  0.2615
11374TIP3    H155537   5.844   4.155  16.540  1.2389  1.4115  0.2014
11374TIP3    H255538   5.849   4.179  16.390 -0.6398 -0.6447 -0.2165
11375TIP3   OH255539   1.832   2.956   3.479 -0.6539 -0.7678  0.0645
11375TIP3    H155540   1.763   2.923   3.421  0.3718 -1.4395 -0.7870
11375TIP3    H255541   1.813   3.050   3.486  0.4781 -0.2282 -3.2088
11376TIP3   OH255542   1.084   0.183   0.986 -0.0974 -0.2032  0.0055
11376TIP3    H155543   1.161   0.241   0.992 -0.8442  1.0033 -1.7359
11376TIP3    H255544   1.068   0.174   0.892 -2.3957 -0.0280  0.3514
11377TIP3   OH255545   3.924   1.463   0.442  0.8243 -0.6620 -0.0929
11377TIP3    H155546   3.894   1.465   0.533 -0.7205 -0.1845 -0.5980
11377TIP3    H255547   3.846   1.441   0.391  1.7496 -1.2746 -1.2798
11378TIP3   OH255548   4.857   4.136  12.250 -0.6075 -0.8945  0.3852
11378TIP3    H155549   4.775   4.183  12.233 -0.7587 -0.9813  0.8583
11378TIP3    H255550   4.828   4.051  12.285 -0.3062 -0.5494  1.5187
11379TIP3   OH255551   1.670   0.936   5.118  0.2692 -0.2590 -0.1740
11379TIP3    H155552   1.589   0.889   5.097 -0.0617  0.4384 -0.4853
11379TIP3    H255553   1.725   0.871   5.162 -0.3489 -0.8152 -0.2148
11380TIP3   OH255554   5.362   1.666   0.019  0.2984 -0.2632 -0.2339
11380TIP3    H155555   5.329   1.598  -0.040 -0.1427 -0.2913  0.0436
11380TIP3    H255556   5.449   1.635   0.045 -0.7968 -1.8140  1.6717
11381TIP3   OH255557   5.483   4.057   5.032 -0.0074  0.0931 -0.0647
11381TIP3    H155558   5.397   4.050   4.990  0.0077  0.3421 -0.1422
11381TIP3    H255559   5.532   4.117   4.975 -0.3627  1.3473  0.9249
11382TIP3   OH255560   6.186   3.328  12.445 -0.3159  0.6781 -0.5347
11382TIP3    H155561   6.165   3.415  12.412 -2.4335 -0.2516 -1.8131
11382TIP3    H255562   6.207   3.341  12.538  0.9250  2.7189 -1.0895
11383TIP3   OH255563   3.479   2.623   1.823  0.0891 -0.0258 -0.3133
11383TIP3    H155564   3.431   2.543   1.846  0.2516 -0.1058 -0.2505
11383TIP3    H255565   3.446   2.646   1.736 -0.5513  0.2957  0.0094
11384TIP3   OH255566   1.902   1.950  11.027  0.4271  0.2296  0.8052
11384TIP3    H155567   1.835   1.944  11.094  0.8843 -0.5156  1.2040
11384TIP3    H255568   1.903   1.864  10.985  1.0511  0.2720  0.7244
11385TIP3   OH255569   4.143   3.626   3.556 -0.5472  0.2132  0.4041
11385TIP3    H155570   4.153   3.567   3.630 -0.0494  0.9773  0.9537
11385TIP3    H255571   4.196   3.702   3.579 -0.2267  0.3678 -0.8289
11386TIP3   OH255572   2.441   4.434   1.632 -0.9772 -0.5818 -0.6881
11386TIP3    H155573   2.527   4.397   1.651 -1.5173 -1.2749  0.4388
11386TIP3    H255574   2.449   4.527   1.656 -0.8084 -0.8425  0.2835
11387TIP3   OH255575   0.845   3.650   3.965 -0.3655 -0.6367  0.4047
11387TIP3    H155576   0.844   3.557   3.984  0.0798 -0.3060  2.1282
11387TIP3    H255577   0.925   3.683   4.006 -0.4469  0.4768 -0.2920
11388TIP3   OH255578   0.888   2.339  15.563 -0.2654  0.3919  0.0051
11388TIP3    H155579   0.797   2.326  15.536 -1.1386 -1.4889  3.5225
11388TIP3    H255580   0.913   2.257  15.605  2.5767  1.4162  0.4287
11389TIP3   OH255581   1.289   2.589  15.442  0.7064 -0.0674 -0.3089
11389TIP3    H155582   1.322   2.667  15.486  1.7979  0.5312 -2.1496
11389TIP3    H255583   1.246   2.539  15.512  1.8975  1.1131  1.3138
11390TIP3   OH255584   1.555   5.729  13.604 -0.1457 -0.0733  0.7973
11390TIP3    H155585   1.650   5.725  13.592 -0.4293  0.9696 -2.1665
11390TIP3    H255586   1.523   5.643  13.578 -0.0131 -0.5655  2.1952
11391TIP3   OH255587   1.242   3.111   1.949  0.0364  0.1621 -0.2060
11391TIP3    H155588   1.185   3.157   2.011 -0.3319 -0.0199 -0.4033
11391TIP3    H255589   1.198   3.027   1.934  0.0473  0.2593 -0.8200
11392TIP3   OH255590   2.929   3.058   0.096  0.4041  1.0948 -0.3561
11392TIP3    H155591   2.882   2.994   0.043 -1.4834  1.6394  0.6244
11392TIP3    H255592   2.911   3.033   0.186  0.8560  2.1387  0.0358
11393TIP3   OH255593   1.286   3.541   0.100  0.6590 -0.1444 -0.0307
11393TIP3    H155594   1.316   3.522   0.188  2.9094  0.5147 -0.6266
11393TIP3    H255595   1.307   3.463   0.050  2.0221  0.5558 -0.5860
11394TIP3   OH255596   0.744   5.972  14.985  0.4303  0.8320 -0.5263
11394TIP3    H155597   0.773   5.896  14.934  1.1213  0.9123 -0.2481
11394TIP3    H255598   0.654   5.950  15.011 -0.0307  0.9093 -2.0204
11395TIP3   OH255599   2.824   2.602  17.200 -0.7086  0.2192  0.6058
11395TIP3    H155600   2.877   2.595  17.121  1.6509 -0.9260  2.2248
11395TIP3    H255601   2.799   2.694  17.204  0.1963  0.5523 -0.7989
11396TIP3   OH255602   2.687   0.372   3.513  0.0542 -0.7342  0.7049
11396TIP3    H155603   2.767   0.424   3.526 -1.3322  1.4192  0.9056
11396TIP3    H255604   2.638   0.384   3.595 -1.9407  0.6457 -0.6613
11397TIP3   OH255605   6.594   6.473   0.522 -0.0580 -0.2312 -0.1614
11397TIP3    H155606   6.589   6.406   0.455  1.4405  1.2310 -1.8000
11397TIP3    H255607   6.624   6.551   0.475  1.1665  0.7841  2.2364
11398TIP3   OH255608   6.585   6.781   2.186 -0.0419 -0.6012  0.3493
11398TIP3    H155609   6.505   6.768   2.136 -0.0354  0.7326 -0.0179
11398TIP3    H255610   6.605   6.694   2.222 -3.0624 -0.4702  2.5611
11399TIP3   OH255611   4.435   5.338   3.312  0.1393  0.2494  0.3035
11399TIP3    H155612   4.385   5.263   3.344  1.2387 -0.1131  1.2045
11399TIP3    H255613   4.526   5.310   3.317  0.5205  1.4343  0.0917
11400TIP3   OH255614   2.470   0.196  12.838 -0.1275 -0.0813  0.2766
11400TIP3    H155615   2.477   0.100  12.842 -0.7193 -0.1614 -0.5566
11400TIP3    H255616   2.556   0.224  12.806 -0.0182 -0.3512  0.3287
11401TIP3   OH255617   3.415   3.295   3.984  0.4388 -0.2157 -0.1057
11401TIP3    H155618   3.337   3.350   3.994  1.5680  1.1889  1.1852
11401TIP3    H255619   3.388   3.227   3.922 -1.6327  0.5743 -0.1203
11402TIP3   OH255620   4.898   1.502  14.626  0.3917  0.7637  0.2788
11402TIP3    H155621   4.927   1.559  14.697  3.3006 -1.5928  1.1020
11402TIP3    H255622   4.892   1.416  14.666 -1.4928  0.0377 -1.5141
11403TIP3   OH255623   5.361   2.703   1.513 -0.3730  0.5874 -0.4858
11403TIP3    H155624   5.320   2.637   1.569 -0.9101 -0.7121 -2.3830
11403TIP3    H255625   5.303   2.779   1.520 -0.9769  0.0947 -0.0694
11404TIP3   OH255626   6.616   6.669  11.898 -0.2323 -0.3428 -0.3026
11404TIP3    H155627   6.641   6.714  11.979  0.6144  0.4032 -0.9603
11404TIP3    H255628   6.547   6.609  11.924  0.8028 -0.9127  1.1837
11405TIP3   OH255629   6.560   2.926   3.057 -0.9214 -0.4994 -0.8524
11405TIP3    H155630   6.563   2.896   3.148 -1.1147 -1.0411 -1.0250
11405TIP3    H255631   6.629   2.992   3.051  0.2140 -1.6702 -0.7529
11406TIP3   OH255632   3.558   0.538  10.544  0.5215  0.6785  0.3151
11406TIP3    H155633   3.593   0.523  10.632  1.8736  1.7641 -0.0143
11406TIP3    H255634   3.594   0.623  10.519 -1.2819  1.1851 -0.5943
11407TIP3   OH255635   0.196   0.019  11.151 -0.0778  0.3061 -0.5184
11407TIP3    H155636   0.142   0.025  11.072 -0.3107  0.5193 -0.3431
11407TIP3    H255637   0.134   0.023  11.223 -0.0326 -1.7613 -0.3387
11408TIP3   OH255638   1.049   2.819  16.811 -0.3425  0.5314  0.1815
11408TIP3    H155639   0.976   2.874  16.782  1.2087  0.5972 -3.9474
11408TIP3    H255640   1.112   2.879  16.850 -0.8421  0.9809  0.2912
11409TIP3   OH255641   4.355   4.733  15.040 -0.3311  0.0014  0.2013
11409TIP3    H155642   4.335   4.826  15.054  1.3154 -0.0211  2.9120
11409TIP3    H255643   4.448   4.731  15.020 -0.6359 -0.9724 -1.2246
11410TIP3   OH255644   5.578   3.608  12.968 -0.5154  0.0617  0.3140
11410TIP3    H155645   5.635   3.685  12.969 -0.1617 -0.1342 -1.5411
11410TIP3    H255646   5.506   3.632  12.909  0.2126 -1.4183 -1.2336
11411TIP3   OH255647   0.625   3.427   0.367 -0.3487  0.0969  1.3716
11411TIP3    H155648   0.540   3.398   0.335  0.2397 -0.5883  0.3739
11411TIP3    H255649   0.641   3.510   0.322 -0.2847 -0.0189  1.1756
11412TIP3   OH255650   5.513   4.666  12.202 -0.0955 -0.4561 -0.1580
11412TIP3    H155651   5.569   4.719  12.146  0.4493 -0.8885 -0.0130
11412TIP3    H255652   5.484   4.594  12.147  1.7491 -1.7831  0.5825
11413TIP3   OH255653   5.431   2.913  14.983 -0.7449  0.1442  0.7667
11413TIP3    H155654   5.345   2.883  14.953 -1.1173 -0.6268  2.5656
11413TIP3    H255655   5.412   2.991  15.035 -0.4552 -0.5098  1.8679
11414TIP3   OH255656   5.926   0.057   5.414 -0.2044  0.1206 -0.0896
11414TIP3    H155657   5.929   0.061   5.510  0.1820  1.6772 -0.1403
11414TIP3    H255658   5.864   0.126   5.390 -0.0694 -0.0594 -0.9698
11415TIP3   OH255659   6.669   5.554  10.902  0.3245 -0.4474  0.2374
11415TIP3    H155660   6.633   5.542  10.814  0.6330 -0.0255  0.0506
11415TIP3    H255661   6.622   5.491  10.956  0.8000 -1.3653 -0.4102
11416TIP3   OH255662   1.287   2.829  17.201  0.2740 -0.2097  0.5969
11416TIP3    H155663   1.269   2.735  17.203 -0.1962 -0.1256  0.3698
11416TIP3    H255664   1.208   2.868  17.163  1.5680 -0.0010 -2.0314
11417TIP3   OH255665   3.736   0.997  12.605  0.3423  0.1709 -0.0641
11417TIP3    H155666   3.681   0.977  12.680 -0.6794  3.0935  0.0270
11417TIP3    H255667   3.692   0.953  12.531 -0.9677  0.7251  0.3646
11418TIP3   OH255668   4.720   6.484  12.803 -0.0216  0.8255  0.4247
11418TIP3    H155669   4.710   6.541  12.879  0.0173  1.2692  0.1008
11418TIP3    H255670   4.809   6.500  12.772  0.2852 -0.0437  0.8348
11419TIP3   OH255671   6.657   6.238   4.238 -0.3351 -0.0644 -0.6839
11419TIP3    H155672   6.592   6.264   4.303  0.6213  2.4096 -0.6789
11419TIP3    H255673   6.675   6.146   4.258 -1.9463 -0.0654  0.9041
11420TIP3   OH255674   1.192   3.741   3.822  0.0939  0.2556  0.0447
11420TIP3    H155675   1.260   3.762   3.886  1.5268 -1.4802 -0.8573
11420TIP3    H255676   1.233   3.760   3.737 -0.3897 -1.1808 -0.5205
11421TIP3   OH255677   3.636   3.432  12.360 -0.1643  0.3957  1.0254
11421TIP3    H155678   3.714   3.461  12.313 -1.0786  1.0783 -0.0843
11421TIP3    H255679   3.635   3.337  12.350  2.0427  0.0530  3.4317
11422TIP3   OH255680   4.417   1.191  16.178 -0.1386  0.3446 -0.2070
11422TIP3    H155681   4.467   1.222  16.102  0.7583  0.2113  0.3240
11422TIP3    H255682   4.483   1.159  16.239 -0.9223 -0.5096  0.2051
11423TIP3   OH255683   2.302   5.451  12.907 -0.0685  0.5827 -0.4291
11423TIP3    H155684   2.335   5.532  12.869 -0.3855  0.5090 -0.8544
11423TIP3    H255685   2.232   5.479  12.965  0.8205  0.7561  0.5888
11424TIP3   OH255686   1.222   2.128  13.016  0.1624  0.1313 -0.3320
11424TIP3    H155687   1.220   2.134  12.920  0.2143 -1.7263 -0.4653
11424TIP3    H255688   1.130   2.131  13.042  0.2281  2.5673 -0.2830
11425TIP3   OH255689   0.131   2.040   3.272 -0.1811  0.2629 -0.2567
11425TIP3    H155690   0.217   2.004   3.294 -0.4250  0.0733  0.3984
11425TIP3    H255691   0.079   1.963   3.248 -0.7271  0.1526  1.2205
11426TIP3   OH255692   0.443   2.433  14.519  0.4987 -0.2157  0.3128
11426TIP3    H155693   0.519   2.379  14.540  1.0281  0.1127 -0.7152
11426TIP3    H255694   0.447   2.445  14.424 -0.9290 -0.3288  0.2187
11427TIP3   OH255695   3.846   1.586  13.356  0.4782  0.2218  0.3897
11427TIP3    H155696   3.796   1.534  13.293  0.7343  0.1525  0.2444
11427TIP3    H255697   3.883   1.521  13.417 -1.3600  0.4205  1.7583
11428TIP3   OH255698   0.788   4.559  10.761 -0.5891 -0.0815 -0.1306
11428TIP3    H155699   0.846   4.485  10.742 -1.9204 -1.1713 -0.0582
11428TIP3    H255700   0.794   4.570  10.856  0.9586  1.0747 -0.3297
11429TIP3   OH255701   1.526   4.316  16.800 -0.3579 -0.0307  0.3495
11429TIP3    H155702   1.526   4.280  16.888  1.0770  1.6995  1.0859
11429TIP3    H255703   1.591   4.386  16.802 -0.2603  0.0090 -2.0961
11430TIP3   OH255704   1.120   3.419   0.850  0.3769 -0.3552 -0.4282
11430TIP3    H155705   1.158   3.500   0.818  0.1361 -0.3024 -0.5847
11430TIP3    H255706   1.195   3.363   0.871  0.5415  0.0100 -0.0499
11431TIP3   OH255707   1.697   3.024   0.122  0.2182 -0.0365  0.1783
11431TIP3    H155708   1.678   3.118   0.115  1.4202  0.1353 -1.0372
11431TIP3    H255709   1.628   2.982   0.070 -1.1813  0.0566  1.9208
11432TIP3   OH255710   5.070   3.327  15.931  0.3144 -0.6258  0.5755
11432TIP3    H155711   5.156   3.364  15.913 -1.0205  2.6099  0.6429
11432TIP3    H255712   5.056   3.343  16.025  0.1666 -2.3224  0.8627
11433TIP3   OH255713   3.795   0.806  13.659  0.0980  0.1034 -0.3334
11433TIP3    H155714   3.834   0.837  13.578 -1.1246  0.9284 -0.6273
11433TIP3    H255715   3.752   0.883  13.696 -0.7543 -0.6463  0.2615
11434TIP3   OH255716   3.753   3.745  16.740 -0.1466  0.4096  0.2073
11434TIP3    H155717   3.673   3.799  16.746  0.1430  0.8001  0.5728
11434TIP3    H255718   3.804   3.786  16.670  1.8174  2.9507  2.9901
11435TIP3   OH255719   4.942   3.718  12.246 -0.3262  0.3984  0.7509
11435TIP3    H155720   4.919   3.634  12.207  0.8778  0.5941 -0.4093
11435TIP3    H255721   4.923   3.707  12.339 -1.6053 -0.6437  0.3835
11436TIP3   OH255722   6.704   0.637   0.480 -0.1965  0.7101 -0.9272
11436TIP3    H155723   6.742   0.592   0.555 -0.1372  2.2956  0.0332
11436TIP3    H255724   6.623   0.676   0.514 -0.4188  1.0234 -1.8040
11437TIP3   OH255725   3.111   5.440  15.139 -0.0816 -0.0038 -0.5193
11437TIP3    H155726   3.177   5.379  15.105  0.0597 -0.7776  1.0929
11437TIP3    H255727   3.056   5.386  15.196  0.0740  1.4040  0.9710
11438TIP3   OH255728   0.118   6.511   4.616  0.0130 -0.2922  0.8169
11438TIP3    H155729   0.169   6.486   4.693  0.6992  0.7585  0.7103
11438TIP3    H255730   0.182   6.548   4.556 -1.0424  2.2409  1.2030
11439TIP3   OH255731   4.853   2.085   1.507 -0.0867 -0.1530 -0.2979
11439TIP3    H155732   4.837   2.179   1.513 -1.2087 -0.2150 -1.8240
11439TIP3    H255733   4.836   2.064   1.415  0.6227 -1.7670 -0.0792
11440TIP3   OH255734   2.749   2.930  13.197  0.1411  0.2828 -0.3241
11440TIP3    H155735   2.672   2.978  13.167  0.2781  0.8761  0.2579
11440TIP3    H255736   2.818   2.953  13.135 -0.4507 -1.1856 -1.5393
11441TIP3   OH255737   6.081   0.638  16.398 -0.1941 -0.3458  0.2645
11441TIP3    H155738   6.016   0.707  16.413  0.2989  0.5893 -1.7578
11441TIP3    H255739   6.030   0.566  16.360 -0.2383 -0.0338 -0.2712
11442TIP3   OH255740   4.727   0.243   2.237 -0.4056  0.2394 -0.2854
11442TIP3    H155741   4.659   0.190   2.195 -0.3190  1.0624 -1.4974
11442TIP3    H255742   4.712   0.331   2.204 -0.2560  0.8880  1.3562
11443TIP3   OH255743   0.506   6.520  11.745 -0.2051  1.0676 -0.0224
11443TIP3    H155744   0.479   6.445  11.693 -0.5534  2.3852 -1.8001
11443TIP3    H255745   0.496   6.492  11.836  1.1488 -1.5392 -0.6385
11444TIP3   OH255746   1.875   1.864   3.793 -0.1307 -0.6087  0.2818
11444TIP3    H155747   1.805   1.908   3.842  0.5512 -1.0261  1.6805
11444TIP3    H255748   1.933   1.934   3.765  0.0598 -0.4561  1.0442
11445TIP3   OH255749   4.664   5.931  13.808  0.3846  0.3530 -0.1555
11445TIP3    H155750   4.601   6.004  13.814 -0.4594 -0.3381 -0.4911
11445TIP3    H255751   4.609   5.854  13.789  1.0184 -0.7610  2.3840
11446TIP3   OH255752   3.228   6.634   4.189 -0.2139 -0.2443 -0.0980
11446TIP3    H155753   3.227   6.639   4.284 -0.7776 -1.0358 -0.0479
11446TIP3    H255754   3.228   6.540   4.170 -1.5986 -0.1093 -0.8687
11447TIP3   OH255755   2.277   5.421  14.034 -0.3729 -0.2067 -0.4062
11447TIP3    H155756   2.253   5.451  13.947  1.5177 -0.4642 -1.0255
11447TIP3    H255757   2.243   5.331  14.038  1.6613 -1.0861 -1.8213
11448TIP3   OH255758   4.179   1.961   6.476 -0.9477  0.2202 -0.2593
11448TIP3    H155759   4.098   2.000   6.509  0.2790  1.5664  1.2247
11448TIP3    H255760   4.228   2.034   6.440  0.0288 -0.4467 -0.3013
11449TIP3   OH255761   5.955   2.630   6.743  0.0854  0.4083  0.2216
11449TIP3    H155762   6.024   2.565   6.728  0.0405 -0.0609  1.8800
11449TIP3    H255763   5.901   2.627   6.664  1.4197  0.0976 -0.6946
11450TIP3   OH255764   1.374   5.302   3.481 -0.2651 -0.6150  0.8982
11450TIP3    H155765   1.387   5.366   3.410 -1.7176  0.0379  1.2159
11450TIP3    H255766   1.461   5.263   3.493  0.3286  0.3034 -0.2507
11451TIP3   OH255767   2.353   2.273   0.230 -0.4648 -0.2431  0.1989
11451TIP3    H155768   2.292   2.203   0.207 -0.7144  0.2702 -0.7348
11451TIP3    H255769   2.299   2.338   0.276 -0.4446 -0.2068  0.1720
11452TIP3   OH255770   0.705   1.327   0.797  0.1643 -0.8102  0.4945
11452TIP3    H155771   0.672   1.405   0.753  0.1318 -1.4549 -0.6272
11452TIP3    H255772   0.794   1.317   0.765  0.3961 -0.8519  1.1485
11453TIP3   OH255773   3.174   4.511  12.925  0.9805 -0.1436 -0.4861
11453TIP3    H155774   3.153   4.427  12.885  0.1291  0.9714 -2.4286
11453TIP3    H255775   3.098   4.532  12.979  0.6268 -0.0168 -1.0291
11454TIP3   OH255776   6.541   3.046  15.984  0.1081 -0.7162 -0.0792
11454TIP3    H155777   6.517   3.064  15.893 -1.4041  0.8968  0.6121
11454TIP3    H255778   6.528   2.952  15.994  1.6657 -1.1565 -1.9049
11455TIP3   OH255779   5.011   2.817   5.677 -0.5146  0.0515 -0.2893
11455TIP3    H155780   5.070   2.879   5.720  0.8372 -1.7409  0.4701
11455TIP3    H255781   5.017   2.838   5.584 -0.3179  1.2626 -0.0124
11456TIP3   OH255782   5.596   0.411  12.940 -0.4121  0.3172 -0.6027
11456TIP3    H155783   5.675   0.406  12.993 -0.7692 -0.6945 -0.1547
11456TIP3    H255784   5.570   0.503  12.944  2.1648  1.1839 -2.8602
11457TIP3   OH255785   4.923   5.910   3.791 -0.0576  0.1240  0.5949
11457TIP3    H155786   4.941   5.816   3.781 -0.5047 -0.0222  1.1804
11457TIP3    H255787   5.008   5.952   3.778  0.0304 -0.3183 -0.3013
11458TIP3   OH255788   0.355   5.837   5.280  0.1162 -0.2987 -0.0428
11458TIP3    H155789   0.344   5.856   5.186 -0.8118 -1.3868 -0.1615
11458TIP3    H255790   0.318   5.749   5.291  0.8695 -0.4605  1.2145
11459TIP3   OH255791   0.737   5.961   1.201  0.7127 -0.3187 -0.3426
11459TIP3    H155792   0.755   6.010   1.281  0.2799  1.6559 -1.4190
11459TIP3    H255793   0.645   5.935   1.209  0.4809  0.4434 -0.4805
11460TIP3   OH255794   6.170   0.251   5.520 -0.5995  0.0450  0.1502
11460TIP3    H155795   6.112   0.191   5.473 -1.6969  2.3959 -1.6145
11460TIP3    H255796   6.250   0.253   5.469 -0.6345  0.2246  0.1025
11461TIP3   OH255797   5.745   0.490  11.258 -0.3269  0.2520 -0.4919
11461TIP3    H155798   5.747   0.570  11.311  0.5985  0.1620 -0.3742
11461TIP3    H255799   5.698   0.515  11.179  1.1309  1.3002 -1.0486
11462TIP3   OH255800   0.329   5.302  12.176 -0.2517 -0.0651 -0.4094
11462TIP3    H155801   0.322   5.365  12.248 -2.6843  0.5311 -1.1094
11462TIP3    H255802   0.291   5.222  12.211 -1.7201  0.3142 -1.1027
11463TIP3   OH255803   1.087   1.296   5.901 -0.2250 -0.0367 -0.0031
11463TIP3    H155804   1.180   1.299   5.877 -0.0130  1.7913  0.9921
11463TIP3    H255805   1.086   1.301   5.996 -1.2900 -1.9593  0.1204
11464TIP3   OH255806   5.644   4.202  14.030  0.0032  0.6648 -0.9819
11464TIP3    H155807   5.620   4.274  14.088  0.4844 -1.5344  2.1094
11464TIP3    H255808   5.622   4.123  14.080 -0.3627 -1.3604 -4.1823
11465TIP3   OH255809   4.758   5.404  11.189  0.1511 -0.3937 -0.2937
11465TIP3    H155810   4.703   5.328  11.207  0.1495 -0.9020 -2.3232
11465TIP3    H255811   4.848   5.371  11.196  0.1659 -0.2260  0.2980
11466TIP3   OH255812   6.746   4.916  12.429  0.1746 -0.4494  0.4245
11466TIP3    H155813   6.828   4.962  12.444  0.3396 -0.7491  0.4438
11466TIP3    H255814   6.753   4.884  12.339 -1.4744  2.7173 -0.9083
11467TIP3   OH255815   5.545   5.385  11.162 -0.0135 -0.1613 -0.1595
11467TIP3    H155816   5.452   5.366  11.150  0.1445  0.1791 -2.0915
11467TIP3    H255817   5.548   5.449  11.233 -1.1814 -0.7576  0.4372
11468TIP3   OH255818   2.087   5.738   4.975 -0.0473  0.6026  0.4637
11468TIP3    H155819   2.039   5.668   4.931  1.4603 -0.8367  1.0915
11468TIP3    H255820   2.019   5.792   5.015 -1.1363 -1.9586  2.2001
11469TIP3   OH255821   3.129   5.171   6.391 -0.0561  0.4593 -0.4067
11469TIP3    H155822   3.165   5.141   6.308  0.1123 -0.2472 -0.0785
11469TIP3    H255823   3.183   5.247   6.414  2.2005 -1.4592  0.8022
11470TIP3   OH255824   4.926   3.557   3.467 -0.1451  0.2954 -0.3651
11470TIP3    H155825   5.011   3.588   3.435 -0.4316  0.9123 -0.5415
11470TIP3    H255826   4.873   3.636   3.473 -0.9600 -0.1927 -1.0316
11471TIP3   OH255827   3.022   0.402  14.713 -0.3287  0.6987  0.2552
11471TIP3    H155828   3.092   0.339  14.730 -1.0234 -0.1035  0.2010
11471TIP3    H255829   3.022   0.459  14.790 -1.0043 -0.6008  1.2408
11472TIP3   OH255830   5.334   0.711   5.080  0.1255 -0.2952  0.1869
11472TIP3    H155831   5.242   0.703   5.103  0.3958  1.2557  1.9463
11472TIP3    H255832   5.346   0.651   5.006 -2.6388  0.6983 -1.1365
11473TIP3   OH255833   4.511   6.690  15.204 -0.1177  0.0688  0.2996
11473TIP3    H155834   4.551   6.743  15.273  1.7620  0.3171 -0.9338
11473TIP3    H255835   4.576   6.622  15.186 -0.4823  0.1549 -1.3877
11474TIP3   OH255836   4.657   2.698   2.270  1.1948  0.3255  0.1078
11474TIP3    H155837   4.601   2.669   2.198 -1.8087 -2.8249  3.4592
11474TIP3    H255838   4.738   2.647   2.260  0.3356 -0.9686 -0.4128
11475TIP3   OH255839   1.497   1.225  14.167 -0.1296  0.0644 -0.1004
11475TIP3    H155840   1.507   1.134  14.195 -2.6531 -1.0167 -2.5357
11475TIP3    H255841   1.409   1.249  14.194 -0.0789  1.2530 -0.9414
11476TIP3   OH255842   5.634   3.262  16.020  0.0989  0.7632 -0.0727
11476TIP3    H155843   5.652   3.344  15.974 -0.1555  0.4708 -0.6931
11476TIP3    H255844   5.714   3.211  16.011 -0.1700  0.4583 -0.7126
11477TIP3   OH255845   1.154   5.126  14.579 -1.0550  0.3629 -0.2627
11477TIP3    H155846   1.156   5.219  14.599  0.2410  0.3691 -0.3357
11477TIP3    H255847   1.150   5.122  14.483  2.5577  0.3917 -0.4833
11478TIP3   OH255848   2.527   4.457  14.761  0.5700  0.3543 -0.0620
11478TIP3    H155849   2.445   4.413  14.784  0.2368  0.2428 -1.3942
11478TIP3    H255850   2.517   4.546  14.793 -0.7527  0.8005 -1.6398
11479TIP3   OH255851   3.909   2.692  15.056  0.2267  0.0472  0.4580
11479TIP3    H155852   3.862   2.775  15.050  1.7180  1.0826  2.6454
11479TIP3    H255853   4.001   2.716  15.046  0.5874 -1.5217 -0.1934
11480TIP3   OH255854   3.825   4.263  14.216 -0.1169  0.7297  0.4960
11480TIP3    H155855   3.841   4.219  14.300 -2.1369  0.2612  0.6720
11480TIP3    H255856   3.802   4.353  14.241 -1.1954  0.4599  0.4815
11481TIP3   OH255857   0.290   4.635  12.718 -0.1456  0.0050 -0.1093
11481TIP3    H155858   0.310   4.727  12.699  0.0863 -0.3061 -1.4312
11481TIP3    H255859   0.347   4.586  12.659 -0.7195 -0.9793  0.1468
11482TIP3   OH255860   1.761   2.967  14.095 -0.4563  0.5172 -0.0804
11482TIP3    H155861   1.820   2.916  14.149 -0.4171  0.7274  0.0761
11482TIP3    H255862   1.817   3.034  14.055 -0.2984 -0.2588 -1.1725
11483TIP3   OH255863   6.181   0.999  15.339  0.5776  0.3008 -0.1893
11483TIP3    H155864   6.208   1.038  15.256  0.9437 -0.7597 -0.5735
11483TIP3    H255865   6.252   1.020  15.399  0.0965  1.4659 -0.0256
11484TIP3   OH255866   2.655   5.253   4.788 -0.0457  0.4184 -1.0739
11484TIP3    H155867   2.728   5.219   4.838 -0.2254  0.2690 -0.9137
11484TIP3    H255868   2.651   5.198   4.710 -2.5200 -2.1958  0.8298
11485TIP3   OH255869   0.259   2.718   4.759  0.3962  0.1532  0.2415
11485TIP3    H155870   0.201   2.775   4.810 -0.8888  0.8417 -1.9159
11485TIP3    H255871   0.200   2.659   4.713  1.6694 -2.0366  1.3715
11486TIP3   OH255872   6.343   3.920   2.333 -0.6712  0.0817 -0.3100
11486TIP3    H155873   6.293   3.999   2.309 -0.2836  0.5168  0.3101
11486TIP3    H255874   6.346   3.869   2.252  0.2622  1.3389 -1.1047
11487TIP3   OH255875   4.783   0.856   1.578 -0.1737 -0.0026 -0.9206
11487TIP3    H155876   4.799   0.840   1.485  0.7300  1.8342 -1.1104
11487TIP3    H255877   4.755   0.948   1.582  0.0584  0.0163  0.6517
11488TIP3   OH255878   0.562   3.571   2.555 -0.7627  0.5860 -0.6198
11488TIP3    H155879   0.603   3.538   2.635  1.4082  1.2393 -1.4457
11488TIP3    H255880   0.605   3.524   2.484 -1.6244  1.1080 -1.5131
11489TIP3   OH255881   0.467   1.824  14.750  0.4770 -0.2586  0.4628
11489TIP3    H155882   0.402   1.892  14.768  1.2744  1.4277 -2.5673
11489TIP3    H255883   0.534   1.836  14.817  0.1411  1.3265  0.5341
11490TIP3   OH255884   1.348   3.905   0.210  0.3710 -0.2647 -0.3333
11490TIP3    H155885   1.321   3.995   0.192 -0.5012 -0.2306  1.0634
11490TIP3    H255886   1.267   3.860   0.234  1.2136 -0.6719  1.9115
11491TIP3   OH255887   2.586   2.031  16.367 -0.6913  0.1015  0.3102
11491TIP3    H155888   2.648   1.958  16.375 -1.7882 -0.9422 -0.4685
11491TIP3    H255889   2.520   1.999  16.306 -0.0474  2.5768 -1.7344
11492TIP3   OH255890   6.686   6.080   6.174  0.4076  0.5391 -0.5169
11492TIP3    H155891   6.656   6.111   6.260  0.1486 -1.2026  0.0414
11492TIP3    H255892   6.771   6.122   6.162 -0.1680  1.8792 -0.0304
11493TIP3   OH255893   6.227   0.423  14.203 -0.5923  0.1059  0.0576
11493TIP3    H155894   6.266   0.508  14.180 -0.2526 -0.2714 -0.7648
11493TIP3    H255895   6.287   0.358  14.165 -2.9279 -0.4998 -2.7272
11494TIP3   OH255896   6.040   2.003   3.382  0.7515 -0.1252 -0.2626
11494TIP3    H155897   6.031   2.094   3.410  0.4270  0.2992 -1.6856
11494TIP3    H255898   6.118   1.972   3.427  1.0424  0.9562  0.0035
11495TIP3   OH255899   5.371   3.474  13.186 -0.5522 -0.2104 -0.2723
11495TIP3    H155900   5.381   3.517  13.101  0.8302 -1.0059 -0.5314
11495TIP3    H255901   5.400   3.540  13.250 -0.8769  0.1259 -0.4712
11496TIP3   OH255902   0.412   2.809   1.487  0.7401  0.2813  0.2452
11496TIP3    H155903   0.433   2.765   1.404 -2.0615 -0.9705  0.1327
11496TIP3    H255904   0.343   2.871   1.463  0.5383  0.5441  1.4985
11497TIP3   OH255905   3.814   6.451   4.545  0.0504 -0.1949 -0.4522
11497TIP3    H155906   3.795   6.371   4.594  0.1597 -0.1399 -0.3211
11497TIP3    H255907   3.864   6.505   4.606  0.8874 -0.4574 -0.9026
11498TIP3   OH255908   0.101   2.251  16.456 -0.7824 -0.2416  0.4540
11498TIP3    H155909   0.088   2.185  16.524 -0.5003 -1.4214 -0.6144
11498TIP3    H255910   0.194   2.245  16.434 -0.3864  1.6682  1.4928
11499TIP3   OH255911   5.124   3.338  14.056 -0.5290  0.1856 -0.2734
11499TIP3    H155912   5.115   3.377  13.968  0.9381 -1.4272 -1.1672
11499TIP3    H255913   5.219   3.334  14.070 -0.7416 -0.3229  1.0605
11500TIP3   OH255914   3.577   5.813   0.956 -0.1546  0.4733 -0.0308
11500TIP3    H155915   3.651   5.781   1.007  1.5867  1.0088 -2.1582
11500TIP3    H255916   3.534   5.733   0.924  0.9017  0.1587 -0.7056
11501TIP3   OH255917   3.127   4.131  16.505  0.0504  0.5169 -0.1226
11501TIP3    H155918   3.151   4.114  16.596  0.2402  0.1832 -0.2373
11501TIP3    H255919   3.049   4.077  16.490  0.0426  0.5414 -0.1715
11502TIP3   OH255920   3.356   6.516  15.801  0.2764  0.8926 -0.1864
11502TIP3    H155921   3.300   6.447  15.836  0.1901  1.7642  1.4472
11502TIP3    H255922   3.322   6.533  15.713 -0.9174  0.2140  0.1447
11503TIP3   OH255923   4.961   0.501  11.055 -0.0061  0.3803 -0.2449
11503TIP3    H155924   4.932   0.515  10.964 -0.1561 -0.0638 -0.2654
11503TIP3    H255925   5.028   0.568  11.069 -0.9857  1.3863 -0.2223
11504TIP3   OH255926   0.481   2.391   1.628  0.3073 -0.3609  0.1140
11504TIP3    H155927   0.414   2.445   1.586  0.2670  1.6112  2.5860
11504TIP3    H255928   0.454   2.301   1.611 -1.1936  0.3974 -1.6536
11505TIP3   OH255929   5.346   5.290   4.026  0.5602  0.0546  0.2241
11505TIP3    H155930   5.327   5.203   4.063 -1.1760  1.2029  2.1205
11505TIP3    H255931   5.433   5.312   4.058  0.9604 -0.9094 -0.1694
11506TIP3   OH255932   4.615   2.361   1.844 -0.3794  0.2160  0.0369
11506TIP3    H155933   4.664   2.426   1.895  3.5868 -1.0838 -1.8735
11506TIP3    H255934   4.650   2.277   1.874 -1.0772 -0.7409 -1.7650
11507TIP3   OH255935   5.589   5.378  11.556 -0.8208 -0.1306  0.3309
11507TIP3    H155936   5.669   5.333  11.527 -1.6457 -1.3306 -0.1276
11507TIP3    H255937   5.605   5.397  11.649 -0.7731 -2.1544  0.7734
11508TIP3   OH255938   3.457   5.658  16.927 -0.0015  0.4883 -0.5834
11508TIP3    H155939   3.387   5.617  16.977  0.1720  2.2216  1.1341
11508TIP3    H255940   3.537   5.627  16.969  0.1389  2.2161  0.4646
11509TIP3   OH255941   3.478   1.586   0.569  0.4237  0.3493 -0.2793
11509TIP3    H155942   3.414   1.515   0.565 -1.1123  1.5756  1.5120
11509TIP3    H255943   3.440   1.655   0.515  0.8349  0.6268 -0.2140
11510TIP3   OH255944   0.379   6.188   4.926  0.2087 -0.1527  0.0622
11510TIP3    H155945   0.458   6.191   4.979 -0.0999  0.6401  0.4988
11510TIP3    H255946   0.310   6.160   4.987  0.0059 -0.0605 -0.1225
11511TIP3   OH255947   1.129   6.229  17.014 -0.0181  1.1643  0.1345
11511TIP3    H155948   1.133   6.214  16.919  0.9508  2.2758 -0.0193
11511TIP3    H255949   1.070   6.161  17.047  1.5474 -0.7932 -0.9418
11512TIP3   OH255950   6.304   3.201  11.965 -0.2764  0.5263 -0.4731
11512TIP3    H155951   6.302   3.204  11.869  1.5603 -1.2654 -0.5959
11512TIP3    H255952   6.339   3.287  11.991 -0.5081  0.9071 -1.3995
11513TIP3   OH255953   4.193   4.882   4.235 -0.6543  0.2291 -0.4314
11513TIP3    H155954   4.183   4.942   4.309  0.3153 -0.9400  0.6690
11513TIP3    H255955   4.262   4.922   4.181 -0.3110  0.3224  0.0748
11514TIP3   OH255956   0.546   4.259  16.708  0.0638  0.2386 -0.0735
11514TIP3    H155957   0.523   4.168  16.688  0.1088  0.4648 -1.2036
11514TIP3    H255958   0.558   4.300  16.622  1.7341  0.8914  0.4648
11515TIP3   OH255959   3.726   1.309  16.620  0.1535  0.3872 -0.4726
11515TIP3    H155960   3.747   1.296  16.527  1.0503 -2.6356  0.1041
11515TIP3    H255961   3.751   1.227  16.662 -0.1127  1.7603  2.4951
11516TIP3   OH255962   2.167   0.882  15.906  0.2731  0.0280 -0.0004
11516TIP3    H155963   2.259   0.909  15.899 -0.0167  0.7475 -1.1614
11516TIP3    H255964   2.118   0.949  15.859 -0.9481  0.1005  1.3403
11517TIP3   OH255965   3.480   5.976  13.292 -0.1161 -0.0383  0.1947
11517TIP3    H155966   3.536   6.001  13.365 -0.7240 -0.5098  0.8256
11517TIP3    H255967   3.541   5.948  13.224  0.3945 -1.6721  1.2963
11518TIP3   OH255968   2.344   0.235   2.047 -0.0334 -0.0423  0.3380
11518TIP3    H155969   2.321   0.321   2.080 -2.2774 -0.3769 -0.2320
11518TIP3    H255970   2.428   0.214   2.087 -0.1584  1.8003  1.5770
11519TIP3   OH255971   1.963   0.083  13.901  0.0659 -0.4974 -0.8710
11519TIP3    H155972   1.886   0.114  13.948  0.2334 -1.1737 -0.1584
11519TIP3    H255973   2.037   0.126  13.945  0.2141 -1.0537 -0.5800
11520TIP3   OH255974   5.903   4.649  10.519 -0.2105  0.5477  0.0553
11520TIP3    H155975   5.974   4.710  10.539  0.6501  0.3738 -2.3898
11520TIP3    H255976   5.874   4.673  10.431 -0.6046 -1.8428 -0.5118
11521TIP3   OH255977   2.161   3.492  13.404  0.4418 -0.5565 -0.1128
11521TIP3    H155978   2.074   3.521  13.430  0.3217 -1.3369  0.3740
11521TIP3    H255979   2.167   3.512  13.311 -0.1645 -0.2909 -0.0952
11522TIP3   OH255980   1.747   2.553  16.187 -0.2022 -0.3307  0.1250
11522TIP3    H155981   1.713   2.473  16.227 -0.0203  0.2994  1.5600
11522TIP3    H255982   1.684   2.573  16.118 -0.1802 -1.7712 -0.3302
11523TIP3   OH255983   4.623   2.708   6.652 -0.2474  0.6253 -0.5053
11523TIP3    H155984   4.693   2.773   6.644  0.2260  0.0880 -0.6966
11523TIP3    H255985   4.663   2.625   6.628 -1.0603  0.3803 -1.0687
11524TIP3   OH255986   1.305   4.479  13.963 -0.1097 -0.1231  0.4370
11524TIP3    H155987   1.349   4.430  13.894  0.2272 -0.7169  1.0697
11524TIP3    H255988   1.228   4.426  13.986 -0.8222  0.6044 -0.2295
11525TIP3   OH255989   2.576   3.646   3.895  0.1015 -0.5940 -0.4870
11525TIP3    H155990   2.598   3.678   3.808  2.1938  0.3065  0.3459
11525TIP3    H255991   2.481   3.656   3.901  0.0072 -0.1619 -2.4577
11526TIP3   OH255992   5.296   4.800   0.035 -0.8644 -0.1358  0.1412
11526TIP3    H155993   5.258   4.718   0.063  1.2829 -0.8348  1.1414
11526TIP3    H255994   5.276   4.862   0.105 -4.8634  0.9880 -1.8537
11527TIP3   OH255995   4.827   6.289   3.650 -0.4191 -0.3174  0.2259
11527TIP3    H155996   4.735   6.301   3.627  0.3014  1.2294 -1.9492
11527TIP3    H255997   4.849   6.202   3.616 -0.4285  0.3341 -1.4909
11528TIP3   OH255998   5.249   2.412  13.728  0.0089 -0.8064 -0.2408
11528TIP3    H155999   5.244   2.337  13.787  1.0970 -2.7953 -2.5872
11528TIP3    H256000   5.312   2.471  13.771  3.7275 -3.9053 -1.1278
11529TIP3   OH256001   2.829   4.778  16.021  0.3275  0.1609 -0.0261
11529TIP3    H156002   2.822   4.870  15.999 -1.2256 -0.1520 -0.9028
11529TIP3    H256003   2.768   4.734  15.962 -0.2124 -1.2392  1.5220
11530TIP3   OH256004   4.271   0.183   4.882 -0.4268  0.0406  0.2690
11530TIP3    H156005   4.327   0.237   4.827 -1.9940  1.8141  0.3659
11530TIP3    H256006   4.314   0.183   4.967 -1.2010  2.4334  0.6836
11531TIP3   OH256007   0.545   4.806   3.004  0.8708 -0.2313 -0.5395
11531TIP3    H156008   0.567   4.853   2.924 -0.2970  0.0315 -0.7128
11531TIP3    H256009   0.578   4.717   2.990  0.0416 -0.3800 -1.6143
11532TIP3   OH256010   4.074   0.010  11.148 -0.1343 -0.0450  0.3557
11532TIP3    H156011   4.097   0.083  11.092 -0.2468 -0.4419 -0.2100
11532TIP3    H256012   3.980  -0.003  11.135 -0.1140 -0.2960  0.4482
11533TIP3   OH256013   4.999   5.981  10.420  0.0121  0.3472 -0.5868
11533TIP3    H156014   5.057   5.916  10.459 -1.7831  0.4069  2.2705
11533TIP3    H256015   4.955   5.934  10.349  1.7695 -0.3229 -1.2922
11534TIP3   OH256016   4.424   6.606  16.588  0.5267  0.6836 -0.2764
11534TIP3    H156017   4.391   6.662  16.658  2.1777  0.1429  0.9835
11534TIP3    H256018   4.513   6.638  16.573  0.8836 -0.5055 -0.7172
11535TIP3   OH256019   1.226   3.138   0.104  0.1403  0.2337  0.0030
11535TIP3    H156020   1.284   3.150   0.179  2.4352 -0.3427 -1.5862
11535TIP3    H256021   1.154   3.199   0.118  0.3229 -0.1449  2.8288
11536TIP3   OH256022   3.144   2.817   2.185 -0.2296 -0.3610 -0.2885
11536TIP3    H156023   3.095   2.773   2.116  0.4625 -0.2571 -0.8534
11536TIP3    H256024   3.078   2.845   2.248 -0.8222 -0.8271 -0.7009
11537TIP3   OH256025   5.255   3.762   0.580 -0.6599 -0.2545  0.0200
11537TIP3    H156026   5.240   3.686   0.637 -1.4127 -2.4857 -3.0603
11537TIP3    H256027   5.350   3.765   0.569 -0.5225  0.0739  1.1677
11538TIP3   OH256028   1.189   1.708  12.428 -0.0671  0.5319  0.0490
11538TIP3    H156029   1.177   1.785  12.484 -3.5644 -1.8106  2.7594
11538TIP3    H256030   1.273   1.672  12.455  0.1938  1.7490  0.8952
11539TIP3   OH256031   4.566   5.166   1.751 -0.3387 -0.2559  0.1366
11539TIP3    H156032   4.541   5.090   1.699 -0.7603  0.9226 -1.4203
11539TIP3    H256033   4.530   5.241   1.703 -0.3055  0.9032  1.8563
11540TIP3   OH256034   6.000   2.397  12.883 -0.0285  0.1804 -0.0133
11540TIP3    H156035   6.030   2.423  12.970 -0.5133 -1.2545  0.6009
11540TIP3    H256036   5.947   2.319  12.898  0.0123 -0.1803 -1.6097
11541TIP3   OH256037   0.092   0.799  14.103 -0.3792  0.6555  0.4958
11541TIP3    H156038  -0.001   0.780  14.108 -0.9130  2.9910  0.2064
11541TIP3    H256039   0.108   0.863  14.173  0.7981  0.9931 -0.0525
11542TIP3   OH256040   3.622   3.521  14.258  0.2236  0.2321  0.2012
11542TIP3    H156041   3.650   3.446  14.205 -2.6287 -0.6495 -0.1481
11542TIP3    H256042   3.627   3.490  14.348  3.9182  1.3369  0.4451
11543TIP3   OH256043   3.338   0.348  16.650  0.1401 -0.2804  0.5979
11543TIP3    H156044   3.283   0.338  16.572  0.6422 -1.0653  0.3410
11543TIP3    H256045   3.301   0.424  16.695 -0.1861  0.1531 -0.3760
11544TIP3   OH256046   4.083   5.377   2.584 -0.0956  0.3586  0.7914
11544TIP3    H156047   4.013   5.352   2.644 -0.6743 -0.6715 -0.2783
11544TIP3    H256048   4.037   5.415   2.509  0.4857 -0.3052  0.0964
11545TIP3   OH256049   2.653   6.568  12.109 -0.0879  0.1429  0.2615
11545TIP3    H156050   2.738   6.610  12.098 -0.1137  0.2203  0.3577
11545TIP3    H256051   2.654   6.495  12.046  0.6983 -0.8785  1.4211
11546TIP3   OH256052   4.508   1.966   5.385 -0.0050 -0.0529  0.1359
11546TIP3    H156053   4.519   2.018   5.465 -0.2769  0.2650 -0.0373
11546TIP3    H256054   4.499   1.876   5.417  1.3169 -0.1127  0.3897
11547TIP3   OH256055   6.030   1.433   2.656  0.0284  0.3048 -0.6600
11547TIP3    H156056   5.948   1.469   2.622 -0.3680  0.7817  0.7623
11547TIP3    H256057   6.002   1.365   2.717  0.6375  1.6168  1.1232
11548TIP3   OH256058   2.120   4.603  16.608 -0.0070  0.3085 -0.4195
11548TIP3    H156059   2.162   4.622  16.692  0.3154  0.1906 -0.5536
11548TIP3    H256060   2.161   4.664  16.547 -0.4114  0.5568 -0.4487
11549TIP3   OH256061   5.869   0.272   1.439  0.1147 -0.2565 -0.1863
11549TIP3    H156062   5.927   0.338   1.402 -1.1925  0.0029 -1.8597
11549TIP3    H256063   5.871   0.287   1.533 -0.1997  2.2027 -0.5440
11550TIP3   OH256064   3.914   1.767   4.549  0.5647 -0.7914 -0.2439
11550TIP3    H156065   3.869   1.791   4.630  1.3891  0.2722 -0.1004
11550TIP3    H256066   4.003   1.798   4.560  0.3953  0.4246 -2.0450
11551TIP3   OH256067   6.097   3.945  16.441 -0.4736 -1.0974 -0.2762
11551TIP3    H156068   6.153   4.007  16.488  0.3488  0.0130 -2.6184
11551TIP3    H256069   6.022   3.997  16.413 -0.5690 -1.5438 -0.8515
11552TIP3   OH256070   2.779   3.795  15.565  0.3498  0.2376 -0.2901
11552TIP3    H156071   2.689   3.799  15.595 -0.0477 -1.9368 -1.0857
11552TIP3    H256072   2.832   3.801  15.644 -0.5633 -0.6409  0.3939
11553TIP3   OH256073   5.583   0.768   0.877  0.5226 -0.0330  0.5260
11553TIP3    H156074   5.595   0.858   0.846 -0.5080  0.1835  0.7370
11553TIP3    H256075   5.578   0.716   0.797  0.2718  0.2104  0.3821
11554TIP3   OH256076   6.215   2.070   2.770 -0.0897 -0.2268  0.1121
11554TIP3    H156077   6.231   2.058   2.676 -0.0476 -0.1798  0.1135
11554TIP3    H256078   6.293   2.113   2.803 -0.3371  0.2631  0.0648
11555TIP3   OH256079   2.041   4.143  11.873  0.0974 -0.2097  0.7326
11555TIP3    H156080   1.962   4.191  11.848 -0.2781 -1.0848  0.2468
11555TIP3    H256081   2.091   4.135  11.792 -0.6308 -2.1181  0.4500
11556TIP3   OH256082   2.298   1.921  14.021  0.2601 -0.0728 -0.1192
11556TIP3    H156083   2.362   1.928  13.951 -0.3008  0.9385 -0.5465
11556TIP3    H256084   2.339   1.864  14.086  1.2690 -0.0456 -0.7280
11557TIP3   OH256085   1.234   3.054  14.182 -0.0677  0.0134 -0.0340
11557TIP3    H156086   1.218   3.138  14.138 -1.2472  1.1624  2.4848
11557TIP3    H256087   1.202   2.989  14.120 -0.1979  1.4866 -1.5567
11558TIP3   OH256088   3.458   1.359  14.723 -0.3664 -0.0210 -0.0187
11558TIP3    H156089   3.393   1.422  14.691 -0.4968 -0.6080 -0.9419
11558TIP3    H256090   3.542   1.395  14.696 -0.4521 -0.3195 -0.6980
11559TIP3   OH256091   1.435   4.836  11.581 -0.1204  0.3747 -0.6772
11559TIP3    H156092   1.414   4.895  11.654  0.7948 -1.0192  0.7664
11559TIP3    H256093   1.529   4.820  11.590 -0.6728 -2.7405  0.1224
11560TIP3   OH256094   5.759   5.965  12.440 -0.0863  0.0252  0.3787
11560TIP3    H156095   5.753   5.884  12.390 -1.9765 -0.4949  1.3872
11560TIP3    H256096   5.699   6.025  12.394  3.2322  1.7511 -1.9025
11561TIP3   OH256097   0.232   3.216   4.370  0.0903  0.3643  0.1902
11561TIP3    H156098   0.321   3.246   4.386  0.4436 -1.0501  0.9377
11561TIP3    H256099   0.242   3.127   4.335 -0.9836  0.6400 -0.8682
11562TIP3   OH256100   2.093   5.962   3.769 -0.5012 -0.0074  0.4923
11562TIP3    H156101   2.090   5.916   3.854 -3.2964 -1.1808 -0.1880
11562TIP3    H256102   2.024   5.921   3.718  1.0072  0.8666 -2.3083
11563TIP3   OH256103   3.588   1.286  12.967 -0.1157  0.2411  0.3279
11563TIP3    H156104   3.617   1.348  12.900 -0.7682  0.2352  0.0374
11563TIP3    H256105   3.541   1.218  12.918 -1.4153  0.7265  0.8832
11564TIP3   OH256106   5.276   4.832  16.974 -0.2398 -0.5369  0.3184
11564TIP3    H156107   5.290   4.821  17.068 -0.2087  1.4579  0.5687
11564TIP3    H256108   5.183   4.854  16.966 -0.5315 -1.9265 -0.2446
11565TIP3   OH256109   4.647   1.578   4.685  0.1269 -0.8493  0.4662
11565TIP3    H156110   4.597   1.659   4.682  0.8743 -0.3977  0.0782
11565TIP3    H256111   4.723   1.595   4.630  0.6901 -1.5443  1.0261
11566TIP3   OH256112   3.395   3.318  15.486  0.0136 -0.3457  0.1279
11566TIP3    H156113   3.302   3.302  15.503  0.1220 -0.5834  0.4801
11566TIP3    H256114   3.436   3.232  15.494  0.0907 -0.4367 -1.1394
11567TIP3   OH256115   4.429   6.614   2.590  0.7994  0.0958 -1.1276
11567TIP3    H156116   4.438   6.707   2.570  1.7263  0.7139  2.0090
11567TIP3    H256117   4.497   6.572   2.537  3.8730  1.8115  1.2476
11568TIP3   OH256118   2.082   6.644   6.495 -0.1961  0.2734  0.5960
11568TIP3    H156119   2.005   6.610   6.541  0.6092  0.9645  2.5206
11568TIP3    H256120   2.130   6.565   6.468 -1.1720 -0.1484  0.0742
11569TIP3   OH256121   1.268   0.966   3.333 -0.0102 -0.0583 -0.4270
11569TIP3    H156122   1.235   1.055   3.316  0.2924 -0.1124 -1.3060
11569TIP3    H256123   1.356   0.966   3.296  0.0887 -0.6478 -0.1895
11570TIP3   OH256124   4.919   1.507   4.280 -0.3097  0.8225  0.0632
11570TIP3    H156125   4.835   1.546   4.305 -0.3819  0.2663  0.7126
11570TIP3    H256126   4.953   1.469   4.362 -1.0784 -2.0059 -0.8546
11571TIP3   OH256127   2.932   0.791  11.436 -0.0274 -0.1100  0.2573
11571TIP3    H156128   2.845   0.816  11.468 -0.3931 -0.5962 -0.3505
11571TIP3    H256129   2.992   0.821  11.504 -0.5990  0.9975  0.2899
11572TIP3   OH256130   6.134   2.494   4.088 -0.1103 -0.0339 -0.7088
11572TIP3    H156131   6.220   2.474   4.124 -0.7168  0.4308  1.0478
11572TIP3    H256132   6.130   2.444   4.006  1.9533  0.2286 -1.0105
11573TIP3   OH256133   2.714   5.332  10.722 -0.1016 -0.3314  0.2979
11573TIP3    H156134   2.774   5.355  10.650  0.4937  1.5557  1.3462
11573TIP3    H256135   2.627   5.342  10.684  0.1845  1.7959  0.1103
11574TIP3   OH256136   1.311   6.773  12.360  0.1729 -0.0689  0.3610
11574TIP3    H156137   1.283   6.861  12.384 -1.8540 -0.0976 -1.7084
11574TIP3    H256138   1.292   6.766  12.267  2.8701 -1.7670 -0.1215
11575TIP3   OH256139   6.009   1.905   5.133  0.6197 -0.3234  0.0822
11575TIP3    H156140   6.020   1.970   5.064  0.8381 -1.9369 -1.4522
11575TIP3    H256141   5.914   1.890   5.137  0.4574  0.9462  1.2723
11576TIP3   OH256142   1.924   0.588   0.920  0.3129 -0.2714  0.5246
11576TIP3    H156143   1.938   0.624   1.007 -0.8639 -1.3357  1.1716
11576TIP3    H256144   2.012   0.578   0.883  1.0177 -2.3945  2.6738
11577TIP3   OH256145   4.793   0.999  14.947 -0.3704 -0.1204  0.0101
11577TIP3    H156146   4.823   0.924  14.896 -0.7234 -0.3621  0.1569
11577TIP3    H256147   4.698   0.990  14.950 -0.4971  0.9542 -0.9244
11578TIP3   OH256148   0.976   4.886   0.553 -0.1691 -0.0142 -0.3772
11578TIP3    H156149   0.889   4.897   0.514 -0.2980  0.1910 -0.0400
11578TIP3    H256150   0.973   4.799   0.594 -0.6812  0.5340  0.7880
11579TIP3   OH256151   2.353   4.918   1.896  0.0505 -0.2425 -0.0912
11579TIP3    H156152   2.434   4.873   1.923  0.3392  0.2318 -0.1631
11579TIP3    H256153   2.364   5.008   1.927 -0.6063 -0.2650  0.2139
11580TIP3   OH256154   0.327   6.540   1.317  0.7339  0.3043 -0.6880
11580TIP3    H156155   0.327   6.623   1.271 -2.0195  0.3672 -0.6357
11580TIP3    H256156   0.367   6.478   1.256 -0.0391  1.0169 -1.9234
11581TIP3   OH256157   6.046   0.877  14.888  0.4120  0.6482 -0.4318
11581TIP3    H156158   6.097   0.944  14.933 -0.6196  1.8101 -0.9819
11581TIP3    H256159   6.109   0.834  14.830  1.0855  1.0646 -0.0197
11582TIP3   OH256160   0.769   0.922  12.463  0.4613  0.4788 -0.2926
11582TIP3    H156161   0.819   0.895  12.540 -0.3346 -2.7726 -0.8350
11582TIP3    H256162   0.678   0.904  12.486  0.2361 -0.7771 -2.0686
11583TIP3   OH256163   1.515   2.893   3.924 -0.1526  0.1227 -0.5263
11583TIP3    H156164   1.465   2.966   3.888 -1.2017 -0.6584 -0.6866
11583TIP3    H256165   1.455   2.818   3.920  0.9472 -0.7811 -0.4885
11584TIP3   OH256166   1.539   1.386  15.852 -0.2271 -0.1662  0.0484
11584TIP3    H156167   1.505   1.403  15.940  0.4738  0.4245  0.2137
11584TIP3    H256168   1.486   1.314  15.819  0.1919 -1.1070  1.3568
11585TIP3   OH256169   5.368   4.110  14.300  0.3500 -0.0437 -0.2482
11585TIP3    H156170   5.431   4.142  14.364 -0.1571  2.4703 -0.9404
11585TIP3    H256171   5.421   4.070  14.232  1.2050  1.5302 -0.5351
11586TIP3   OH256172   6.758   5.155  11.526  0.5440 -0.2667  0.6835
11586TIP3    H156173   6.679   5.141  11.577 -0.5437  0.0868 -0.8763
11586TIP3    H256174   6.801   5.069  11.523  0.3420 -0.4060  1.7194
11587TIP3   OH256175   1.840   0.608  11.895  0.1746  0.6386 -0.3368
11587TIP3    H156176   1.805   0.535  11.946  2.8286 -0.3975  0.0715
11587TIP3    H256177   1.838   0.682  11.957  0.1460  0.2199  0.1705
11588TIP3   OH256178   2.811   4.046   3.929 -0.1850  0.4788  0.3879
11588TIP3    H156179   2.823   3.962   3.886 -1.0273  0.4482  0.2094
11588TIP3    H256180   2.721   4.071   3.910 -0.7137  0.2832  2.4621
11589TIP3   OH256181   3.604   4.276   1.165  0.4975  0.3507  0.1206
11589TIP3    H156182   3.649   4.337   1.106  1.1211 -1.6272 -1.5116
11589TIP3    H256183   3.601   4.193   1.117 -3.0779 -0.1465  1.0274
11590TIP3   OH256184   1.575   3.742  13.014  0.0381 -0.3286 -0.0079
11590TIP3    H156185   1.519   3.684  12.963  0.3479 -0.1008 -0.6086
11590TIP3    H256186   1.641   3.685  13.053 -0.3798 -0.5440  0.3936
11591TIP3   OH256187   4.103   3.221  12.086  0.1144  0.2641  0.3815
11591TIP3    H156188   4.121   3.217  12.180 -0.6367 -1.5945  0.4644
11591TIP3    H256189   4.071   3.133  12.064 -0.4980  0.9258 -1.4484
11592TIP3   OH256190   2.801   1.899  16.529  0.3364  0.0110  0.0868
11592TIP3    H156191   2.816   1.979  16.479 -0.7964  0.4439  0.4236
11592TIP3    H256192   2.875   1.894  16.590 -0.4719  1.7123  1.2215
11593TIP3   OH256193   0.113   6.427   1.827 -0.1545 -0.2147 -0.0032
11593TIP3    H156194   0.203   6.441   1.797  0.3933 -1.7545  0.8475
11593TIP3    H256195   0.093   6.337   1.802 -0.9679 -0.3242  1.0134
11594TIP3   OH256196   6.051   0.013  11.352 -0.1106 -0.5234 -0.2626
11594TIP3    H156197   5.966   0.041  11.386  0.8461  2.3426 -0.1341
11594TIP3    H256198   6.042  -0.082  11.341 -2.6781 -0.5438  1.5572
11595TIP3   OH256199   3.373   5.570   5.201  0.1840 -0.0131  0.8831
11595TIP3    H156200   3.325   5.493   5.233 -1.2930 -0.1023 -1.3782
11595TIP3    H256201   3.304   5.634   5.184  1.1540  0.8500  0.2030
11596TIP3   OH256202   5.768   1.741   1.723  0.4544  0.0770 -0.1701
11596TIP3    H156203   5.772   1.647   1.708  1.4385  0.5479 -3.3191
11596TIP3    H256204   5.848   1.762   1.771 -0.6319 -0.9192  2.1075
11597TIP3   OH256205   3.286   3.601   3.805  0.5085 -0.0006 -0.2915
11597TIP3    H156206   3.263   3.511   3.783 -0.2239  0.2300 -0.5015
11597TIP3    H256207   3.256   3.613   3.895  2.0652 -0.4562  0.2922
11598TIP3   OH256208   6.061   2.148  15.892 -0.0323 -0.1454  0.0923
11598TIP3    H156209   5.995   2.217  15.881 -0.7165 -0.4838  1.9774
11598TIP3    H256210   6.121   2.183  15.957  1.1576 -0.2339 -0.9305
11599TIP3   OH256211   3.796   6.766   2.073 -0.2954  0.1937  0.0548
11599TIP3    H156212   3.790   6.753   2.168 -1.6926  0.2546 -0.0178
11599TIP3    H256213   3.846   6.847   2.063  2.6735 -1.4896  0.6481
11600TIP3   OH256214   2.724   0.425  13.464  0.3169 -0.4516  0.4465
11600TIP3    H156215   2.705   0.334  13.442 -0.8749 -0.1587  0.2638
11600TIP3    H256216   2.644   0.472  13.445  1.9948  1.2550 -2.7770
11601TIP3   OH256217   6.259   2.897  16.118  0.0777  0.1032  0.0525
11601TIP3    H156218   6.333   2.872  16.174 -1.1277 -1.4075  1.0113
11601TIP3    H256219   6.271   2.846  16.038  0.3202  0.2087  0.0191
11602TIP3   OH256220   3.002   4.473   4.303  0.1477  0.2020  0.2989
11602TIP3    H156221   2.986   4.381   4.284 -1.9990  0.7624 -0.7680
11602TIP3    H256222   3.001   4.516   4.217 -0.1201  1.4115  0.8923
11603TIP3   OH256223   4.342   5.744   5.469  0.0194 -0.7146 -0.6268
11603TIP3    H156224   4.371   5.798   5.542  0.4207 -2.7325  0.7410
11603TIP3    H256225   4.305   5.806   5.406 -2.9046  0.8379  2.4963
11604TIP3   OH256226   5.230   3.357  15.633 -0.2967  0.4672  0.3136
11604TIP3    H156227   5.255   3.344  15.725 -1.5554 -2.5833  0.2780
11604TIP3    H256228   5.241   3.271  15.593 -2.5970  1.0526 -1.6855
11605TIP3   OH256229   3.596   1.793  14.909 -0.0640  0.5696 -0.1698
11605TIP3    H156230   3.524   1.730  14.904  0.9558 -0.6618  0.3788
11605TIP3    H256231   3.555   1.878  14.892 -1.7127 -0.0691  0.5259
11606TIP3   OH256232   6.520   6.692   5.858 -0.3377  0.3739 -0.2132
11606TIP3    H156233   6.480   6.632   5.921 -0.4707  0.5914 -0.0886
11606TIP3    H256234   6.521   6.777   5.903 -1.9859  0.9078 -1.1107
11607TIP3   OH256235   5.369   5.710  11.169 -0.1503  0.2273 -0.2987
11607TIP3    H156236   5.450   5.711  11.117  0.4543  0.2523  0.6231
11607TIP3    H256237   5.387   5.648  11.239 -0.2640  1.5707  0.9390
11608TIP3   OH256238   6.157   6.688  12.484  0.2522  0.0553 -0.2837
11608TIP3    H156239   6.165   6.660  12.575  1.0498 -1.2323 -0.7291
11608TIP3    H256240   6.206   6.771  12.481  0.9318 -0.3154  0.2765
11609TIP3   OH256241   0.483   5.321   2.049 -0.3358 -0.7392  0.3717
11609TIP3    H156242   0.428   5.250   2.016 -1.1714 -0.1008  0.3984
11609TIP3    H256243   0.570   5.281   2.056 -1.0171 -2.0972  1.4505
11610TIP3   OH256244   3.057   5.393  13.511  0.6115  0.2756 -0.7958
11610TIP3    H156245   3.099   5.347  13.438  0.9367  1.3310 -1.2976
11610TIP3    H256246   2.989   5.446  13.470  1.6699  1.9052 -0.5186
11611TIP3   OH256247   1.750   2.276  14.397 -0.2704 -0.2291 -0.5649
11611TIP3    H156248   1.845   2.269  14.393 -0.0938  1.5444  0.0659
11611TIP3    H256249   1.731   2.366  14.373 -1.6202  0.0818  1.5109
11612TIP3   OH256250   0.627   3.187  14.957  0.1839  0.8755 -0.6058
11612TIP3    H156251   0.696   3.234  15.005 -0.6094  1.6366 -0.2129
11612TIP3    H256252   0.577   3.255  14.913  0.2204  0.2543 -1.6159
11613TIP3   OH256253   4.539   3.321  12.393 -0.2919  0.6881  0.0800
11613TIP3    H156254   4.629   3.349  12.380  0.1867 -0.6334  0.5523
11613TIP3    H256255   4.536   3.231  12.362 -0.5233 -0.5525  3.5459
11614TIP3   OH256256   1.693   4.548   2.666  1.1426  0.4794 -0.2218
11614TIP3    H156257   1.669   4.631   2.624  1.5779  0.8998  0.3343
11614TIP3    H256258   1.634   4.483   2.629 -1.1185  1.5372  1.4009
11615TIP3   OH256259   6.330   5.225  11.837  0.0574 -0.6669  0.3204
11615TIP3    H156260   6.292   5.173  11.908 -0.0911  0.7973  1.3163
11615TIP3    H256261   6.374   5.160  11.782 -2.1444 -2.1459  0.2403
11616TIP3   OH256262   2.123   3.472  13.063 -0.4017 -0.2096 -0.0330
11616TIP3    H156263   2.068   3.455  12.986  0.4199 -0.6627 -0.5232
11616TIP3    H256264   2.193   3.407  13.056  1.6413  2.0383 -0.7990
11617TIP3   OH256265   2.893   3.265   4.931 -0.3308 -0.6842 -0.0974
11617TIP3    H156266   2.844   3.307   5.002 -1.0236 -0.0963 -0.9209
11617TIP3    H256267   2.883   3.172   4.947  0.1302 -0.5539  1.0042
11618TIP3   OH256268   3.656   4.068  16.113 -0.8425 -0.1317 -0.0388
11618TIP3    H156269   3.597   3.998  16.087  0.1844 -0.4857 -1.4952
11618TIP3    H256270   3.721   4.025  16.168 -1.6787  0.1776  1.2097
11619TIP3   OH256271   5.834   5.564  16.749  0.4959 -0.1587  0.1976
11619TIP3    H156272   5.927   5.542  16.753  0.0885 -1.8455  0.6682
11619TIP3    H256273   5.833   5.659  16.735  2.2723  0.0547  1.2620
11620TIP3   OH256274   4.247   6.647   1.735 -0.4086  0.4597 -0.3375
11620TIP3    H156275   4.243   6.619   1.643 -0.1682 -0.6106 -0.0207
11620TIP3    H256276   4.174   6.708   1.744 -1.8882 -1.2208 -0.6409
11621TIP3   OH256277   3.439   2.428   4.215  0.3108  0.1100 -0.3831
11621TIP3    H156278   3.376   2.357   4.216  0.4159  0.0095 -0.6717
11621TIP3    H256279   3.502   2.406   4.283 -0.2448  0.4667  0.2454
11622TIP3   OH256280   1.052   5.760   4.026  0.4702  0.3863 -0.3347
11622TIP3    H156281   1.059   5.803   4.111 -2.1466  0.4578 -0.1114
11622TIP3    H256282   0.973   5.706   4.032  0.6053 -0.1131 -2.4815
11623TIP3   OH256283   3.858   1.604   3.841 -0.6978 -0.7451 -0.3090
11623TIP3    H156284   3.921   1.612   3.770  0.4167  2.2467  0.9488
11623TIP3    H256285   3.904   1.554   3.908 -0.8795 -1.4564 -0.7079
11624TIP3   OH256286   0.296   1.104  11.222  0.4383 -0.1424 -0.3166
11624TIP3    H156287   0.223   1.088  11.163  1.4674  0.7346 -1.8611
11624TIP3    H256288   0.264   1.172  11.282 -1.1634 -2.1788  1.1836
11625TIP3   OH256289   2.940   3.617  14.681 -0.4678  0.1112 -0.4414
11625TIP3    H156290   3.024   3.633  14.725 -0.7422 -0.2351  0.2048
11625TIP3    H256291   2.955   3.539  14.628 -1.0143 -1.2538  1.3625
11626TIP3   OH256292   0.021   2.498   3.704  0.4166  0.6118  0.2936
11626TIP3    H156293  -0.042   2.538   3.645 -0.5401 -0.1689  0.7698
11626TIP3    H256294   0.099   2.482   3.650  0.0028  1.0630 -0.4328
11627TIP3   OH256295   1.937   1.868   1.378  0.4088 -0.1727 -0.7016
11627TIP3    H156296   1.861   1.852   1.322 -1.4270  0.4091  1.5586
11627TIP3    H256297   1.938   1.794   1.438 -1.7022  2.4699  2.8033
11628TIP3   OH256298   2.932   3.891   0.085 -0.7873 -0.2452  0.3455
11628TIP3    H156299   2.844   3.874   0.118 -0.8638  2.0166  1.3438
11628TIP3    H256300   2.922   3.894  -0.010 -2.3032  2.5486  0.5420
11629TIP3   OH256301   1.879   5.460   5.834 -0.3286 -0.5483 -0.1335
11629TIP3    H156302   1.915   5.493   5.752  0.6273 -2.6298 -0.6033
11629TIP3    H256303   1.874   5.365   5.821  0.0275 -0.9357  2.2736
11630TIP3   OH256304   2.773   0.533   1.358  0.6102  0.2831  0.4771
11630TIP3    H156305   2.689   0.492   1.337  1.3041 -0.4100 -0.9690
11630TIP3    H256306   2.800   0.576   1.277  1.6024  0.6185  0.9754
11631TIP3   OH256307   2.377   0.616  15.174 -0.1158  0.2906  0.5028
11631TIP3    H156308   2.384   0.580  15.262  2.2078 -0.6931 -0.0536
11631TIP3    H256309   2.349   0.707  15.188 -2.0972 -0.5261  2.1083
11632TIP3   OH256310   2.709   0.269  15.388 -0.2260 -0.2805 -0.2042
11632TIP3    H156311   2.786   0.212  15.393  0.2440  0.4092  0.7052
11632TIP3    H256312   2.683   0.282  15.480 -0.1152  1.2446 -0.3807
11633TIP3   OH256313   3.999   4.402   4.295  0.0224  0.2902  0.1847
11633TIP3    H156314   3.929   4.427   4.235 -1.5027 -0.7955  1.4602
11633TIP3    H256315   4.073   4.384   4.238 -1.6641 -1.6769 -1.4761
11634TIP3   OH256316   1.181   6.241  16.061 -0.2716 -0.1065  0.2809
11634TIP3    H156317   1.187   6.146  16.049 -0.1133 -0.1137  0.4280
11634TIP3    H256318   1.098   6.265  16.018  0.5449 -0.0617 -1.2988
11635TIP3   OH256319   2.123   2.198  16.146 -0.3233 -0.0229 -0.2831
11635TIP3    H156320   2.119   2.285  16.186 -0.6113 -0.2407  0.1662
11635TIP3    H256321   2.201   2.158  16.184 -0.8154 -0.3764  0.3654
11636TIP3   OH256322   2.043   3.879  16.146 -0.8369 -0.2842  0.3277
11636TIP3    H156323   2.121   3.846  16.190 -0.8280  0.1075  0.6094
11636TIP3    H256324   2.036   3.826  16.067 -0.5074 -0.5807  0.4962
11637TIP3   OH256325   0.406   4.910   1.262  0.8639 -0.4189 -0.0099
11637TIP3    H156326   0.326   4.954   1.233 -0.2806 -2.4091 -0.0168
11637TIP3    H256327   0.416   4.837   1.202  1.1025 -1.8434  1.7117
11638TIP3   OH256328   6.131   3.869   4.188  0.2087 -0.4516  0.4957
11638TIP3    H156329   6.211   3.885   4.139 -1.1103 -0.8105 -1.8370
11638TIP3    H256330   6.066   3.925   4.146 -1.5350 -2.6091  0.2148
11639TIP3   OH256331   2.404   5.590  11.723  0.2383  0.1451 -0.0646
11639TIP3    H156332   2.311   5.589  11.698  0.1781  0.4922  0.1411
11639TIP3    H256333   2.451   5.601  11.641  0.1085 -0.3647 -0.2078
11640TIP3   OH256334   2.306   2.779   2.602 -0.3772 -0.0372  0.2646
11640TIP3    H156335   2.300   2.778   2.506 -0.5557 -0.9947  0.2757
11640TIP3    H256336   2.395   2.808   2.620  0.3322 -1.8504 -0.2328
11641TIP3   OH256337   4.953   5.952   1.571 -0.4246 -0.4929  0.1906
11641TIP3    H156338   4.996   6.033   1.543 -1.1521  0.1896  1.0348
11641TIP3    H256339   4.994   5.931   1.655 -0.9102 -0.4833  0.4288
11642TIP3   OH256340   6.281   3.047   3.100 -0.1871 -0.5219 -0.1124
11642TIP3    H156341   6.355   3.005   3.056 -0.6349 -0.7399 -0.6689
11642TIP3    H256342   6.319   3.091   3.176  0.2955 -1.8209  0.3947
11643TIP3   OH256343   1.671   4.575   1.490 -0.3455  0.3010 -0.4505
11643TIP3    H156344   1.716   4.491   1.496  0.6618  0.9544  1.5905
11643TIP3    H256345   1.668   4.594   1.396  0.4545 -1.4342 -0.8508
11644TIP3   OH256346   6.784   0.269   5.020  0.7254 -0.3135 -0.0545
11644TIP3    H156347   6.782   0.176   4.999 -0.5528 -0.0925 -0.9629
11644TIP3    H256348   6.782   0.271   5.116 -0.7490 -1.2103 -0.0469
11645TIP3   OH256349   4.760   4.081   5.945  0.6451  0.5191  0.1773
11645TIP3    H156350   4.687   4.043   5.994  1.0189 -0.0178  0.3282
11645TIP3    H256351   4.820   4.114   6.013  0.3775  1.2845  0.0499
11646TIP3   OH256352   1.524   3.579   4.936 -0.0281  0.0057 -0.1591
11646TIP3    H156353   1.438   3.537   4.939 -0.0782  0.1338  0.1742
11646TIP3    H256354   1.578   3.527   4.995 -0.1263  0.4893  0.3622
11647TIP3   OH256355   6.572   6.239   5.129 -0.1095  0.5498 -0.1929
11647TIP3    H156356   6.586   6.239   5.034  0.5662  1.6154 -0.1010
11647TIP3    H256357   6.639   6.179   5.163 -1.1441 -0.8114 -0.4806
11648TIP3   OH256358   4.728   0.235  13.408 -0.3626  0.1417 -0.1824
11648TIP3    H156359   4.762   0.312  13.363  0.8774  0.5182  1.3364
11648TIP3    H256360   4.802   0.203  13.460 -1.0895 -1.6120 -0.1965
11649TIP3   OH256361   1.270   4.971   2.626 -0.3235  0.6208 -0.6798
11649TIP3    H156362   1.321   5.011   2.697 -0.8166  1.5059 -0.8217
11649TIP3    H256363   1.306   5.008   2.546  0.8656 -1.0922 -0.9708
11650TIP3   OH256364   1.614   5.536   5.511  0.8338 -0.6701  0.0943
11650TIP3    H156365   1.686   5.486   5.473  0.7433 -0.2156 -0.6935
11650TIP3    H256366   1.605   5.612   5.453  0.0187 -0.4969  0.4448
11651TIP3   OH256367   4.789   5.501  15.541  0.4167  0.5353  0.2529
11651TIP3    H156368   4.695   5.484  15.531  0.3759  2.0262 -2.4629
11651TIP3    H256369   4.831   5.422  15.507  0.1408  0.3019  0.4525
11652TIP3   OH256370   0.417   0.545  13.858  0.6005 -0.2881 -0.3362
11652TIP3    H156371   0.512   0.536  13.863  0.8385  1.3192 -1.5957
11652TIP3    H256372   0.390   0.481  13.792  0.6317 -1.6408  0.9241
11653TIP3   OH256373   5.438   2.693  11.750  0.0969  0.6865  0.1977
11653TIP3    H156374   5.474   2.609  11.722  1.5778  0.8278  1.6485
11653TIP3    H256375   5.381   2.719  11.677  1.4199 -0.4574 -1.2957
11654TIP3   OH256376   1.171   5.161  14.308  0.1465  0.1031 -0.2327
11654TIP3    H156377   1.166   5.129  14.218  1.0352 -0.3851 -0.1210
11654TIP3    H256378   1.165   5.256  14.301 -0.5553  0.0172 -0.7449
11655TIP3   OH256379   4.535   2.340  14.243  0.5022 -0.1931  0.2720
11655TIP3    H156380   4.580   2.423  14.229  0.1962 -0.2592 -1.1983
11655TIP3    H256381   4.594   2.274  14.208 -0.7840 -0.2632 -1.8717
11656TIP3   OH256382   4.987   5.792  17.148  0.6457 -0.2403  0.7511
11656TIP3    H156383   4.962   5.849  17.220  0.9494  1.1995 -0.2664
11656TIP3    H256384   5.081   5.782  17.156  0.7381  0.2670  0.3047
11657TIP3   OH256385   2.731   6.403   0.492  0.1836 -0.1534  0.2858
11657TIP3    H156386   2.735   6.433   0.401  1.2212  0.3877  0.4983
11657TIP3    H256387   2.704   6.481   0.541 -0.7422 -0.5399  0.4086
11658TIP3   OH256388   4.446   0.961   3.649  0.2222 -0.1489  0.1419
11658TIP3    H156389   4.485   0.988   3.566 -0.5776  0.4978 -0.0260
11658TIP3    H256390   4.361   1.005   3.652  0.0058 -0.6015  1.0521
11659TIP3   OH256391   1.988   3.628  16.616 -0.4277 -0.5072  0.2497
11659TIP3    H156392   2.005   3.602  16.526 -1.1132  1.6991 -0.5385
11659TIP3    H256393   1.977   3.545  16.663  2.0546 -1.7152 -1.2369
11660TIP3   OH256394   5.421   2.759   3.921  0.3282  0.2930  0.2954
11660TIP3    H156395   5.478   2.808   3.980  0.5124 -0.3763  0.6752
11660TIP3    H256396   5.352   2.725   3.978 -1.0294  1.9461 -0.3084
11661TIP3   OH256397   4.754   3.444  11.327 -0.0069 -0.7464 -0.3837
11661TIP3    H156398   4.828   3.437  11.267 -0.9971 -1.5601 -1.5417
11661TIP3    H256399   4.746   3.358  11.367  0.9952 -0.0548  1.3821
11662TIP3   OH256400   4.608   6.098   4.940  0.2371  0.1068  0.1832
11662TIP3    H156401   4.684   6.085   4.884 -0.2144  0.0863 -0.4336
11662TIP3    H256402   4.611   6.190   4.965  0.4655  0.1035  0.1671
11663TIP3   OH256403   5.953   0.631  15.991  0.0651  0.3508 -0.0736
11663TIP3    H156404   6.026   0.620  15.930 -0.1123  1.7060 -0.5531
11663TIP3    H256405   5.961   0.721  16.023 -1.4860  0.5913 -0.2847
11664TIP3   OH256406   1.260   3.911  13.055 -0.0605 -0.6289  0.0607
11664TIP3    H156407   1.316   3.948  12.987  0.5687 -0.2542  0.7751
11664TIP3    H256408   1.279   3.817  13.053  0.3943 -0.5382  0.1181
11665TIP3   OH256409   1.962   1.345  13.527 -0.0409  0.5663 -0.3163
11665TIP3    H156410   2.017   1.266  13.517 -2.9131 -1.8217  1.8124
11665TIP3    H256411   1.888   1.330  13.469  0.7232  3.0852 -2.0268
11666TIP3   OH256412   4.796   1.426  13.267 -0.3518  0.0015 -0.0065
11666TIP3    H156413   4.738   1.352  13.248  0.0349 -0.2905 -0.0417
11666TIP3    H256414   4.777   1.489  13.197 -1.8184  0.6082  0.9081
11667TIP3   OH256415   5.943   1.893  15.441 -0.4006 -0.0513  0.0866
11667TIP3    H156416   6.011   1.894  15.508 -0.4956  0.7654  0.1793
11667TIP3    H256417   5.882   1.962  15.468 -1.1952 -0.6839 -0.0631
11668TIP3   OH256418   1.543   4.273  15.143  0.3330 -0.1405  0.3005
11668TIP3    H156419   1.465   4.218  15.146  0.2640 -0.0832 -0.3664
11668TIP3    H256420   1.616   4.212  15.140  0.2697 -0.1996 -0.0908
11669TIP3   OH256421   1.180   1.664  13.846  0.2766  0.5074 -0.6466
11669TIP3    H156422   1.225   1.748  13.839  0.3251  0.4503 -1.0486
11669TIP3    H256423   1.136   1.654  13.761 -1.6779  1.2539  0.2261
11670TIP3   OH256424   0.241   1.616  11.036  0.2600 -0.2633  0.3851
11670TIP3    H156425   0.159   1.638  10.992  0.1625 -0.5338  0.4305
11670TIP3    H256426   0.260   1.526  11.009  0.4916 -0.2345  0.4479
11671TIP3   OH256427   6.777   3.804  12.650  0.3048 -0.4955 -0.3540
11671TIP3    H156428   6.731   3.731  12.691  0.1348 -0.7318 -0.9593
11671TIP3    H256429   6.806   3.858  12.723 -2.3244  0.5079 -0.0011
11672TIP3   OH256430   1.997   3.613   3.744 -0.0888  0.3014  0.5884
11672TIP3    H156431   1.955   3.562   3.813 -2.6703  0.2942 -0.9101
11672TIP3    H256432   2.034   3.548   3.685  0.3832  0.2643  0.9229
11673TIP3   OH256433   2.990   5.158   5.337 -0.2101  0.0939 -0.0614
11673TIP3    H156434   2.930   5.135   5.408 -0.0944  1.3472  0.4683
11673TIP3    H256435   3.055   5.089   5.337 -0.7973 -0.4623  0.3799
11674TIP3   OH256436   2.209   3.069   4.965  0.4154  0.5813  0.0885
11674TIP3    H156437   2.252   3.014   4.900  0.7797  0.5524  0.3588
11674TIP3    H256438   2.277   3.091   5.028  0.2286  1.1822  0.0884
11675TIP3   OH256439   6.652   2.773  11.836 -0.1627  0.0556 -0.3957
11675TIP3    H156440   6.563   2.739  11.824 -0.4572  0.2960  0.9812
11675TIP3    H256441   6.641   2.848  11.894  0.5802  2.0212 -2.6954
11676TIP3   OH256442   3.171   2.465  12.306 -0.0842  0.2995  0.3655
11676TIP3    H156443   3.226   2.505  12.239  0.2588 -1.0270 -0.1615
11676TIP3    H256444   3.082   2.481  12.276  0.0638  0.0890 -0.1932
11677TIP3   OH256445   3.315   4.869   3.732  0.3835 -0.5575 -0.5687
11677TIP3    H156446   3.248   4.817   3.687  1.9096 -1.2509 -2.1118
11677TIP3    H256447   3.313   4.954   3.687  0.3620 -0.4928 -0.4451
11678TIP3   OH256448   0.473   3.261   5.251 -0.7752 -0.4162  0.7421
11678TIP3    H156449   0.565   3.247   5.229 -0.8423 -0.7579  0.6651
11678TIP3    H256450   0.472   3.269   5.346 -0.9733 -3.0540  1.0098
11679TIP3   OH256451   1.413   6.132   3.729  0.2181 -0.2970  0.5454
11679TIP3    H156452   1.359   6.170   3.660  0.4227  0.5674  0.8549
11679TIP3    H256453   1.402   6.037   3.719  0.1027 -0.1709 -0.5555
11680TIP3   OH256454   4.128   1.603   0.122 -0.6800 -0.0467  0.0860
11680TIP3    H156455   4.145   1.594   0.028 -0.4963  0.3307  0.0807
11680TIP3    H256456   4.053   1.662   0.127 -0.3921  0.3110  0.1919
11681TIP3   OH256457   3.346   1.622   6.510  0.3718 -0.1908  0.3370
11681TIP3    H156458   3.279   1.690   6.506  0.8804  0.3371  0.7099
11681TIP3    H256459   3.300   1.544   6.542  0.2091  0.5289  1.8953
11682TIP3   OH256460   6.579   4.954   1.194 -0.3711 -0.3513 -0.1823
11682TIP3    H156461   6.516   5.025   1.182 -0.6043 -0.7095 -1.1382
11682TIP3    H256462   6.526   4.882   1.229 -0.2465 -0.2393  0.2340
11683TIP3   OH256463   0.960   4.338   5.389 -0.1813 -0.1516  0.4039
11683TIP3    H156464   0.919   4.337   5.302 -0.4844 -1.1020  0.5530
11683TIP3    H256465   1.047   4.374   5.373 -1.0247  1.8557  0.0755
11684TIP3   OH256466   2.420   2.815  12.857  0.0188  0.0391  0.0235
11684TIP3    H156467   2.403   2.846  12.767  1.3528  0.5850 -0.0503
11684TIP3    H256468   2.505   2.772  12.852 -0.9153 -1.9454  0.5626
11685TIP3   OH256469   3.216   6.737   0.859 -0.2435  0.2950 -0.0710
11685TIP3    H156470   3.286   6.743   0.794 -0.5794  0.9322 -0.3781
11685TIP3    H256471   3.144   6.788   0.822 -0.6255  0.2214  0.5597
11686TIP3   OH256472   1.561   4.802  13.788  0.1852 -0.1649 -0.1694
11686TIP3    H156473   1.547   4.893  13.815 -0.2280 -0.6666  1.3069
11686TIP3    H256474   1.558   4.805  13.692 -1.4434  1.1184 -0.0928
11687TIP3   OH256475   2.949   5.499  16.754 -0.3303 -0.4036  0.3216
11687TIP3    H156476   2.950   5.591  16.727 -0.0458  0.5742  3.4172
11687TIP3    H256477   2.914   5.452  16.679  2.6157  1.8110 -2.5671
11688TIP3   OH256478   0.897   1.218  11.339 -0.3236 -0.3599 -0.5836
11688TIP3    H156479   0.875   1.281  11.270 -1.2441 -0.0018  0.0199
11688TIP3    H256480   0.952   1.153  11.296  0.3543  0.6669 -1.3063
11689TIP3   OH256481   5.049   3.912  16.910 -0.4107 -0.1760  0.5230
11689TIP3    H156482   5.056   3.834  16.855 -0.4323  0.1497  0.0526
11689TIP3    H256483   5.088   3.886  16.994 -1.0730 -0.9141  0.6113
11690TIP3   OH256484   3.235   4.668   0.898 -0.0639  0.3633 -0.0501
11690TIP3    H156485   3.323   4.696   0.872  0.5268 -0.8001  0.6719
11690TIP3    H256486   3.195   4.635   0.818 -0.2450  1.8731 -0.6093
11691TIP3   OH256487   4.343   0.252  13.796  0.2847 -0.1782 -0.2490
11691TIP3    H156488   4.259   0.298  13.790  0.4523  0.2885  0.9158
11691TIP3    H256489   4.408   0.322  13.791  0.6456 -0.6158 -2.0852
11692TIP3   OH256490   1.790   4.823   1.202  0.5980 -0.6069 -0.1082
11692TIP3    H156491   1.858   4.867   1.151 -1.3389  1.1662 -1.2638
11692TIP3    H256492   1.761   4.888   1.265 -0.3274 -1.1910  0.0841
11693TIP3   OH256493   5.063   4.852   5.285 -0.0709  0.1647  0.3444
11693TIP3    H156494   5.017   4.921   5.237  0.3092  1.2619  1.5092
11693TIP3    H256495   5.143   4.837   5.234 -0.5666 -0.0249 -0.3817
11694TIP3   OH256496   0.948   6.330   4.544 -0.7170  0.2850 -0.1250
11694TIP3    H156497   0.993   6.272   4.483 -2.9039 -0.8801 -0.6899
11694TIP3    H256498   0.970   6.295   4.631  1.8460  1.5394 -0.2147
11695TIP3   OH256499   1.957   4.886   5.942 -0.0219  0.2658 -0.1286
11695TIP3    H156500   2.036   4.901   5.995 -0.1375  0.4458 -0.0059
11695TIP3    H256501   1.888   4.869   6.007 -0.1421  0.3832 -0.2264
11696TIP3   OH256502   6.138   5.058   4.115  0.6208  0.5861 -0.2842
11696TIP3    H156503   6.144   5.099   4.029  1.0855  0.6974 -0.1989
11696TIP3    H256504   6.046   5.067   4.139  0.5658  0.8984 -0.6017
11697TIP3   OH256505   2.508   0.558   6.133  0.2055  0.1085 -0.0245
11697TIP3    H156506   2.432   0.574   6.188  0.0339  0.2800 -0.3100
11697TIP3    H256507   2.583   0.572   6.191  0.0035 -2.0505  0.7964
11698TIP3   OH256508   4.226   1.100   3.081 -0.1624 -0.2247  0.1433
11698TIP3    H156509   4.287   1.161   3.040  0.1382 -1.1001 -0.7407
11698TIP3    H256510   4.280   1.024   3.104 -0.4961 -0.0963  1.3881
11699TIP3   OH256511   1.819   4.298  16.211 -0.1229 -0.3782 -0.0282
11699TIP3    H156512   1.859   4.223  16.254 -0.0976 -0.0790  0.4709
11699TIP3    H256513   1.846   4.374  16.264  0.8219  0.1161 -1.2064
11700TIP3   OH256514   2.092   1.850   0.925 -0.4297 -0.6589 -0.2815
11700TIP3    H156515   2.185   1.832   0.942  0.0816 -0.1196 -2.3283
11700TIP3    H256516   2.056   1.766   0.894 -0.5322 -0.7633  0.1167
11701TIP3   OH256517   1.278   4.931   6.272 -0.3752 -0.0912 -0.4149
11701TIP3    H156518   1.284   4.857   6.211 -0.2756  0.2429 -0.8145
11701TIP3    H256519   1.366   4.938   6.310 -0.9963 -1.6428  1.3717
11702TIP3   OH256520   1.285   4.812  17.193  0.6764  0.5195  0.2783
11702TIP3    H156521   1.214   4.836  17.134  0.5908  0.6637  0.4411
11702TIP3    H256522   1.303   4.892  17.243  1.4755  0.7085 -0.2983
11703TIP3   OH256523   2.925   3.608  15.157  0.3480 -0.2600  0.1673
11703TIP3    H156524   2.954   3.643  15.072 -0.2047  1.6792  0.7648
11703TIP3    H256525   2.990   3.641  15.219 -0.3513 -0.0561  0.7871
11704TIP3   OH256526   0.418   0.161  14.143 -0.3620  0.1831  0.4673
11704TIP3    H156527   0.493   0.219  14.157 -0.5403  0.3908  0.5749
11704TIP3    H256528   0.440   0.081  14.190  0.4860 -0.3429 -0.8137
11705TIP3   OH256529   4.795   2.197  14.125  0.2174  0.1171 -0.0042
11705TIP3    H156530   4.888   2.177  14.134  0.1830 -0.6617 -1.1673
11705TIP3    H256531   4.756   2.116  14.090 -1.1703 -0.0899  1.9639
11706TIP3   OH256532   5.658   3.855  13.117  0.4332 -0.1591  0.0166
11706TIP3    H156533   5.660   3.902  13.034 -0.5267  2.6244  1.5312
11706TIP3    H256534   5.749   3.855  13.147  0.7047 -0.7590 -0.7984
11707TIP3   OH256535   3.867   3.333   5.782 -0.7949 -0.7262  0.1831
11707TIP3    H156536   3.921   3.348   5.860  0.8192 -1.4893 -0.7567
11707TIP3    H256537   3.921   3.364   5.709 -1.6273 -1.5242 -0.7896
11708TIP3   OH256538   5.653   1.953   4.029  0.2956 -0.5771  0.7946
11708TIP3    H156539   5.723   1.959   4.093  0.4548 -1.6638  0.7331
11708TIP3    H256540   5.697   1.932   3.947  0.0007 -0.1944  0.5340
11709TIP3   OH256541   4.815   2.069  10.936  0.4189 -0.5095  0.4939
11709TIP3    H156542   4.814   2.103  11.026 -0.2523 -0.0698  0.3202
11709TIP3    H256543   4.876   2.126  10.889 -1.4954  1.1249 -0.0535
11710TIP3   OH256544   4.197   6.295   0.262  0.2715  0.1641 -0.2710
11710TIP3    H156545   4.151   6.292   0.346 -0.0809 -1.0328 -0.4987
11710TIP3    H256546   4.283   6.331   0.283  0.1769 -0.1031  0.5915
11711TIP3   OH256547   6.589   2.301  11.951  0.4067 -0.7250 -0.3976
11711TIP3    H156548   6.672   2.255  11.959  1.2661  1.0720  1.5135
11711TIP3    H256549   6.525   2.232  11.931  1.7719 -2.6753  1.6506
11712TIP3   OH256550   3.012   1.295  17.231 -0.2688  0.2707 -0.0958
11712TIP3    H156551   2.977   1.330  17.149 -0.6544 -1.6916 -0.7903
11712TIP3    H256552   2.952   1.328  17.298 -0.5012  1.0968 -0.6960
11713TIP3   OH256553   4.718   3.610   5.476  0.5819  0.7566 -0.4762
11713TIP3    H156554   4.757   3.525   5.498  1.1879  0.9601 -0.7383
11713TIP3    H256555   4.675   3.638   5.557 -0.5665 -0.3022 -0.7068
11714TIP3   OH256556   5.531   4.030  15.999 -0.4281  0.3359 -0.0253
11714TIP3    H156557   5.551   3.970  15.927 -4.1136  1.0607 -1.7718
11714TIP3    H256558   5.596   4.100  15.991 -1.3973  0.9437 -3.3904
11715TIP3   OH256559   4.541   0.889  15.842  0.0903  0.7535  0.3199
11715TIP3    H156560   4.490   0.811  15.862  0.4073  0.4240 -0.1581
11715TIP3    H256561   4.618   0.857  15.795  1.1346  1.1672  1.7150
11716TIP3   OH256562   3.399   1.539   4.852 -0.1145 -0.7844  0.9268
11716TIP3    H156563   3.446   1.459   4.830  0.0843 -0.2223 -0.7400
11716TIP3    H256564   3.456   1.584   4.914  1.2622 -0.4330 -0.5564
11717TIP3   OH256565   4.075   5.980   4.167 -0.3304 -0.5271 -0.0460
11717TIP3    H156566   4.110   6.032   4.095 -1.1450 -0.6316 -0.5288
11717TIP3    H256567   3.983   6.006   4.172 -0.0009  0.3395  1.7173
11718TIP3   OH256568   6.535   3.245   0.116  0.5634  0.2007  0.2835
11718TIP3    H156569   6.512   3.337   0.105 -0.6000  0.3751  3.5604
11718TIP3    H256570   6.477   3.214   0.185  0.5115 -3.1891 -1.1907
11719TIP3   OH256571   0.238   1.153   6.477  0.5158  0.3721 -0.2366
11719TIP3    H156572   0.243   1.211   6.552 -0.4542 -0.3533  0.4113
11719TIP3    H256573   0.243   1.065   6.514  2.1158  0.0266 -1.2133
11720TIP3   OH256574   1.469   0.062   1.032 -0.0731  0.2959  0.2657
11720TIP3    H156575   1.495   0.146   1.070  0.0263  0.9414 -1.1969
11720TIP3    H256576   1.416   0.085   0.956  1.0785 -0.9484 -0.9412
11721TIP3   OH256577   5.234   2.658  11.015 -0.2415 -0.0271 -0.2879
11721TIP3    H156578   5.169   2.590  11.034 -0.5348  0.2002 -0.4647
11721TIP3    H256579   5.244   2.655  10.920 -0.5637  0.4578 -0.3375
11722TIP3   OH256580   1.664   6.503  11.235  0.0693 -0.4602  0.5679
11722TIP3    H156581   1.629   6.577  11.185 -1.5182 -1.5775 -0.0328
11722TIP3    H256582   1.747   6.482  11.193 -2.2657 -2.8042 -3.1248
11723TIP3   OH256583   1.535   4.063  12.133 -0.2564 -0.3974  0.1774
11723TIP3    H156584   1.578   4.067  12.048  1.6196 -0.8742  1.0747
11723TIP3    H256585   1.592   4.114  12.191 -2.4602  1.4693  0.7784
11724TIP3   OH256586   0.918   5.483  11.249 -0.8289  0.8942 -0.4292
11724TIP3    H156587   0.954   5.420  11.187  1.0554  0.7575  0.7541
11724TIP3    H256588   0.867   5.544  11.195 -1.9552 -1.1273 -1.6807
11725TIP3   OH256589   5.793   1.448   6.062  0.0319 -0.1470 -0.0242
11725TIP3    H156590   5.867   1.400   6.026  0.6991 -0.7513  2.1020
11725TIP3    H256591   5.753   1.387   6.125 -1.7742  0.4800 -0.5151
11726TIP3   OH256592   5.748   0.688   2.435 -0.2890 -0.4241  0.4225
11726TIP3    H156593   5.716   0.640   2.359  0.5934  0.3971 -0.4775
11726TIP3    H256594   5.670   0.701   2.490 -0.6060 -2.5141  0.4949
11727TIP3   OH256595   0.856   1.850  16.826  0.0231  0.0268  0.8582
11727TIP3    H156596   0.775   1.800  16.841  0.0137  0.2449  1.5490
11727TIP3    H256597   0.854   1.870  16.733 -1.3581  1.1272  1.1020
11728TIP3   OH256598   6.515   1.220   5.736  0.0662 -0.4277 -0.6414
11728TIP3    H156599   6.544   1.234   5.646 -1.4685 -0.7015 -1.1974
11728TIP3    H256600   6.566   1.145   5.766 -1.2404 -1.9701 -2.1745
11729TIP3   OH256601   5.559   3.657  14.768  0.3811  0.1249  0.1684
11729TIP3    H156602   5.654   3.655  14.761  0.6101 -2.8366  2.8996
11729TIP3    H256603   5.527   3.621  14.685  1.7345 -0.8543  0.0651
11730TIP3   OH256604   0.622   1.740  14.229  0.1742  0.3527 -0.3110
11730TIP3    H156605   0.583   1.716  14.313  0.0014 -3.2881 -1.3241
11730TIP3    H256606   0.716   1.743  14.247  0.0625  0.5806  0.2437
11731TIP3   OH256607   2.291   1.540   2.422 -0.6215  0.4481 -0.1272
11731TIP3    H156608   2.223   1.601   2.452 -0.2680 -0.3991  2.5606
11731TIP3    H256609   2.244   1.458   2.406 -0.9252  1.0805 -2.7259
11732TIP3   OH256610   3.380   0.695   5.941 -0.3504  0.0468 -0.3601
11732TIP3    H156611   3.382   0.757   5.867  2.0874  0.9522  0.3918
11732TIP3    H256612   3.450   0.726   5.999 -0.2146 -2.4596  0.8569
11733TIP3   OH256613   5.878   1.275  12.423 -0.7203 -0.1383  0.1133
11733TIP3    H156614   5.871   1.310  12.334 -0.7784  0.6509  0.4216
11733TIP3    H256615   5.839   1.343  12.479  1.0103  0.2112  0.9311
11734TIP3   OH256616   6.002   3.098   5.208 -0.7601 -0.4541 -0.2630
11734TIP3    H156617   6.072   3.045   5.171 -0.0999 -0.2585  0.6655
11734TIP3    H256618   6.032   3.188   5.195 -0.2029 -0.3968  1.3163
11735TIP3   OH256619   3.510   1.947  16.582  0.3359  0.0634 -0.0281
11735TIP3    H156620   3.436   1.956  16.522 -1.0369  0.5209  1.7029
11735TIP3    H256621   3.548   1.862  16.560  1.3669  1.2724 -3.1985
11736TIP3   OH256622   5.900   2.187   3.085  0.2010  0.4057  0.1785
11736TIP3    H156623   5.813   2.178   3.125  0.9831  1.5352  2.1694
11736TIP3    H256624   5.908   2.280   3.066 -0.9993 -0.3236 -4.7067
11737TIP3   OH256625   2.871   5.993   3.767  0.1390 -0.1737 -0.7119
11737TIP3    H156626   2.791   6.013   3.814  0.6387 -0.0832  0.1112
11737TIP3    H256627   2.849   5.919   3.711 -0.2785 -0.7118  0.1657
11738TIP3   OH256628   1.095   1.317  11.557  0.2953  0.0484 -0.2759
11738TIP3    H156629   1.036   1.266  11.500  0.8519  0.0110 -0.8189
11738TIP3    H256630   1.089   1.273  11.642 -0.7541  0.2659 -0.2269
11739TIP3   OH256631   2.629   3.658   3.257  0.1542  0.1916  0.4150
11739TIP3    H156632   2.543   3.651   3.299  0.0145 -0.2264  0.0647
11739TIP3    H256633   2.643   3.752   3.246  0.5921  0.3675  2.2064
11740TIP3   OH256634   3.953   3.015  13.214 -0.4233  0.1687  0.0176
11740TIP3    H156635   4.024   2.986  13.158 -0.6668  0.2127 -0.3156
11740TIP3    H256636   3.993   3.081  13.271 -0.0693 -0.2097  0.2116
11741TIP3   OH256637   2.050   2.211  10.658 -0.0251 -0.0611 -0.2233
11741TIP3    H156638   2.145   2.209  10.670  0.0462 -1.7364 -1.0036
11741TIP3    H256639   2.015   2.223  10.746  0.9188  1.2976 -0.0133
11742TIP3   OH256640   0.998   1.651   0.256  0.0961  0.2776 -0.3536
11742TIP3    H156641   0.950   1.582   0.302  0.4374  0.4457  0.2713
11742TIP3    H256642   1.003   1.621   0.166 -0.5733 -0.0722 -0.2811
11743TIP3   OH256643   1.522   5.025  12.849 -0.3689 -0.2709  0.1010
11743TIP3    H156644   1.580   5.033  12.925 -1.8885  0.1945  1.2212
11743TIP3    H256645   1.555   4.949  12.802  0.2470 -0.8970  1.5195
11744TIP3   OH256646   1.937   1.997  16.052  0.3449 -0.2610  0.3857
11744TIP3    H156647   2.013   1.941  16.034  0.8187 -0.1219  1.9187
11744TIP3    H256648   1.975   2.079  16.084 -0.4222  0.1533  0.2324
11745TIP3   OH256649   3.234   1.718   4.471 -0.4887 -0.0702 -0.1828
11745TIP3    H156650   3.309   1.714   4.412  0.1674  1.4796  0.4938
11745TIP3    H256651   3.234   1.809   4.502 -0.4473 -0.9729  2.6278
11746TIP3   OH256652   0.029   0.583   0.064 -0.1290  0.5452  0.3303
11746TIP3    H156653  -0.029   0.607  -0.008  1.0910 -1.7536 -1.5083
11746TIP3    H256654   0.100   0.648   0.061  0.5968 -0.2745 -1.4362
11747TIP3   OH256655   3.992   3.334  11.032 -0.2850  0.4349 -0.6902
11747TIP3    H156656   4.028   3.313  11.118 -1.5574  2.1165  0.2851
11747TIP3    H256657   4.060   3.387  10.990  0.6972 -1.0979 -1.0876
11748TIP3   OH256658   0.875   1.819  14.651 -0.4451  0.0416 -0.7416
11748TIP3    H156659   0.862   1.801  14.744 -0.1481  2.2896 -0.2545
11748TIP3    H256660   0.805   1.880  14.628  0.0745  0.2701 -1.7568
11749TIP3   OH256661   5.651   3.320   5.199  0.1097  0.5963 -0.3436
11749TIP3    H156662   5.744   3.334   5.179  0.6074  0.0965  1.5004
11749TIP3    H256663   5.629   3.390   5.260 -1.3039  1.9353 -2.3372
11750TIP3   OH256664   1.482   6.264   1.809  0.2312  0.5925  0.1960
11750TIP3    H156665   1.556   6.207   1.831  0.6390  0.8792 -0.4246
11750TIP3    H256666   1.427   6.211   1.752  1.3731  1.3116 -1.6174
11751TIP3   OH256667   1.796   5.306   2.441  0.1802 -0.5383  0.0889
11751TIP3    H156668   1.814   5.363   2.515 -2.4008 -1.6342  1.6433
11751TIP3    H256669   1.863   5.327   2.377  2.4992  0.4061  2.7427
11752TIP3   OH256670   5.552   3.254  14.605  0.8589  0.5788  0.3713
11752TIP3    H156671   5.635   3.231  14.562  1.6805  0.3375  2.0372
11752TIP3    H256672   5.543   3.189  14.675 -0.2898  1.1580  0.7730
11753TIP3   OH256673   0.865   4.902   0.997  0.8378 -0.8243 -0.3548
11753TIP3    H156674   0.852   4.971   1.062  0.0449 -1.1486 -0.1534
11753TIP3    H256675   0.797   4.917   0.932  1.9785 -0.1752 -1.4042
11754TIP3   OH256676   5.190   6.386  12.702 -0.1494 -0.5180  0.1053
11754TIP3    H156677   5.119   6.429  12.750 -0.5616  0.3351 -1.2358
11754TIP3    H256678   5.180   6.418  12.612  0.7843 -1.8684 -0.4836
11755TIP3   OH256679   5.732   1.234   3.445  0.3628  0.6308 -0.4197
11755TIP3    H156680   5.822   1.236   3.412  0.5294  0.0541 -0.0279
11755TIP3    H256681   5.700   1.147   3.421  0.3275  0.3825  0.5096
11756TIP3   OH256682   4.455   0.824  11.671  0.9686  0.0785 -0.5875
11756TIP3    H156683   4.463   0.878  11.593  1.6993  1.5538  0.4930
11756TIP3    H256684   4.404   0.877  11.733 -0.0861 -1.2960 -0.2487
11757TIP3   OH256685   2.053   2.839   3.380  0.1940  0.2306  0.0667
11757TIP3    H156686   2.072   2.889   3.302  0.4208  1.2180  0.7453
11757TIP3    H256687   1.978   2.884   3.420  1.1220  0.7342  1.2866
11758TIP3   OH256688   3.876   1.991  16.207 -0.2109  0.1856 -0.5272
11758TIP3    H156689   3.814   2.061  16.226 -1.2750 -0.3506 -1.9345
11758TIP3    H256690   3.952   2.011  16.262 -0.4412  2.5028 -0.9757
11759TIP3   OH256691   1.133   6.419  14.074 -0.0008  0.2674  0.3120
11759TIP3    H156692   1.137   6.327  14.099  0.0236  0.4370  0.9404
11759TIP3    H256693   1.107   6.418  13.982  0.7289 -0.3918  0.1061
11760TIP3   OH256694   0.620   2.088  12.664  0.3296 -0.3207  0.3092
11760TIP3    H156695   0.525   2.078  12.671  0.2780 -0.3907 -0.5099
11760TIP3    H256696   0.633   2.175  12.626  0.5352 -1.0542 -1.3543
11761TIP3   OH256697   2.503   3.131  12.425 -0.1306 -0.7734 -0.6143
11761TIP3    H156698   2.586   3.157  12.464  0.4156 -1.3687 -1.3446
11761TIP3    H256699   2.448   3.208  12.431  0.6940 -0.1675 -0.6992
11762TIP3   OH256700   2.725   4.859   1.420  0.3248  0.4381  0.2077
11762TIP3    H156701   2.666   4.901   1.483  0.7280  0.5285  0.5246
11762TIP3    H256702   2.692   4.886   1.335  0.7315  1.6085  0.4123
11763TIP3   OH256703   6.445   3.942   3.807  0.8269 -0.2672 -0.6350
11763TIP3    H156704   6.498   3.897   3.874 -0.4707 -1.5324 -0.4387
11763TIP3    H256705   6.378   3.988   3.857  0.3324 -0.5733 -1.0098
11764TIP3   OH256706   4.723   4.575   2.581  0.1195  0.0730  0.5942
11764TIP3    H156707   4.800   4.558   2.635  0.7811  0.4572 -0.2079
11764TIP3    H256708   4.758   4.586   2.492 -0.8068  0.7140  0.2965
11765TIP3   OH256709   5.922   0.369  11.964  0.0613 -0.3255 -0.1572
11765TIP3    H156710   6.004   0.322  11.981  0.7227  0.9429  0.2629
11765TIP3    H256711   5.949   0.461  11.960 -0.9767 -0.0998 -2.3555
11766TIP3   OH256712   4.660   5.467  16.615  0.5885  0.3135 -0.2059
11766TIP3    H156713   4.708   5.541  16.578 -0.1322  0.4752 -0.8201
11766TIP3    H256714   4.658   5.402  16.545  0.0416  0.2432 -0.1239
11767TIP3   OH256715   2.413   6.137  15.024  0.4899  0.1700 -0.2075
11767TIP3    H156716   2.338   6.077  15.020  0.5722  0.0925 -0.5782
11767TIP3    H256717   2.381   6.217  14.982 -0.1529  0.9617  1.7009
11768TIP3   OH256718   2.252   5.316   3.836 -0.5154  1.0051 -0.5514
11768TIP3    H156719   2.162   5.330   3.804 -0.0247  0.5073 -2.1904
11768TIP3    H256720   2.295   5.269   3.765  1.1800  1.6163  0.0639
11769TIP3   OH256721   5.173   4.484  13.603  0.1958  0.0912 -0.1973
11769TIP3    H156722   5.101   4.457  13.545 -1.0180  0.8310  0.9232
11769TIP3    H256723   5.158   4.578  13.617 -0.3556 -0.3734  2.4432
11770TIP3   OH256724   0.083   1.217  11.409  0.5936 -0.3252  0.4267
11770TIP3    H156725   0.103   1.310  11.402  1.1847 -0.4978 -0.2542
11770TIP3    H256726   0.017   1.201  11.341  1.2572 -0.6149 -0.1472
11771TIP3   OH256727   3.541   1.705  13.576  0.2253  0.6043  0.3192
11771TIP3    H156728   3.609   1.771  13.592  2.9480 -2.2758  0.9974
11771TIP3    H256729   3.490   1.740  13.503  2.9482  2.4299 -0.7672
11772TIP3   OH256730   2.687   6.308  16.939  0.3729  0.3780  0.0300
11772TIP3    H156731   2.619   6.320  17.006 -0.9348 -0.0578 -1.1977
11772TIP3    H256732   2.666   6.223  16.900  2.5366 -0.4733  0.6615
11773TIP3   OH256733   5.815   2.373  13.167 -0.4778  0.7627 -0.5834
11773TIP3    H156734   5.755   2.332  13.105 -3.0555  0.9256  1.6806
11773TIP3    H256735   5.764   2.444  13.206  0.5751 -0.1108  2.5613
11774TIP3   OH256736   1.456   4.425   1.640 -0.2307  0.1317  0.0947
11774TIP3    H156737   1.522   4.469   1.586 -1.1348  1.3889 -0.0260
11774TIP3    H256738   1.501   4.406   1.722 -0.0828  2.2875  0.5557
11775TIP3   OH256739   3.704   5.392   0.702 -0.9709  0.2006  0.6239
11775TIP3    H156740   3.781   5.373   0.754  1.5516  0.1700 -2.9480
11775TIP3    H256741   3.679   5.308   0.664 -1.6425  0.5341  0.3178
11776TIP3   OH256742   6.250   2.990  16.907 -0.1687 -1.1503  0.5623
11776TIP3    H156743   6.272   3.043  16.983  1.0204 -0.3771 -0.3080
11776TIP3    H256744   6.169   3.027  16.874  0.6532  0.1548 -0.0385
11777TIP3   OH256745   0.241   0.167  16.296  0.5207  0.2231 -0.2131
11777TIP3    H156746   0.231   0.247  16.245 -0.0068  0.0783 -0.3425
11777TIP3    H256747   0.241   0.097  16.231 -1.6756 -0.0765  0.0866
11778TIP3   OH256748   1.762   6.038   4.993  0.2703 -0.2720  0.5983
11778TIP3    H156749   1.850   6.035   5.030  0.1303 -1.0389  0.8637
11778TIP3    H256750   1.727   5.950   5.004 -0.5154  0.0091  0.4395
11779TIP3   OH256751   5.736   6.785  12.404 -0.0280 -0.3248  0.3776
11779TIP3    H156752   5.801   6.760  12.470  1.3170 -0.6101 -1.0464
11779TIP3    H256753   5.785   6.837  12.340 -1.4434  0.4407 -0.1118
11780TIP3   OH256754   4.033   2.066   3.085  0.1156  0.0109  0.0668
11780TIP3    H156755   3.974   2.140   3.070  0.1955  0.5023  2.0168
11780TIP3    H256756   4.114   2.107   3.116 -0.8183 -1.0116  4.1093
11781TIP3   OH256757   6.377   2.371   4.082 -0.6916 -0.1680 -0.4049
11781TIP3    H156758   6.407   2.456   4.050 -0.4970  0.0319  0.3018
11781TIP3    H256759   6.370   2.317   4.004  2.9609 -0.7003 -0.4481
11782TIP3   OH256760   0.384   1.050  17.189 -0.2119 -0.1539  0.4917
11782TIP3    H156761   0.384   1.141  17.220 -0.8729 -0.8238  2.5706
11782TIP3    H256762   0.436   1.052  17.109 -0.2849  2.0670  0.4547
11783TIP3   OH256763   6.483   2.788   2.066 -0.2201 -0.0876  0.0216
11783TIP3    H156764   6.474   2.869   2.117 -2.4801 -0.5539  0.4506
11783TIP3    H256765   6.490   2.818   1.975 -1.2872  0.5997  0.1557
11784TIP3   OH256766   2.512   4.822  10.334  0.3691 -0.2093  0.5531
11784TIP3    H156767   2.479   4.742  10.375 -0.4666 -0.5124 -0.6997
11784TIP3    H256768   2.607   4.809  10.332  0.2224 -1.2989  0.1020
11785TIP3   OH256769   2.247   6.334  11.204  0.7941  0.7692 -0.1915
11785TIP3    H156770   2.300   6.366  11.132 -0.8115  2.6868 -0.5848
11785TIP3    H256771   2.272   6.243  11.215  3.9393  1.5529 -0.5143
11786TIP3   OH256772   2.065   3.068   1.967  1.1777  0.2735  0.0071
11786TIP3    H156773   2.088   3.008   1.896  2.6515  0.8535 -0.0280
11786TIP3    H256774   2.070   3.014   2.046 -2.4741 -0.8808 -0.4944
11787TIP3   OH256775   3.580   4.210  17.188 -0.3912  0.5572  0.5064
11787TIP3    H156776   3.601   4.130  17.236 -1.2030  0.8677  1.4175
11787TIP3    H256777   3.653   4.223  17.129 -0.6809 -1.3601 -0.3168
11788TIP3   OH256778   2.396   6.783   5.734  0.2541 -0.3069  0.1204
11788TIP3    H156779   2.408   6.784   5.829 -3.3729  1.0099  0.6270
11788TIP3    H256780   2.369   6.872   5.712  0.9962 -0.6097 -2.1822
11789TIP3   OH256781   4.799   1.985   5.309  0.2445 -0.2539 -0.0270
11789TIP3    H156782   4.798   1.926   5.234 -0.3697 -1.5876  1.0067
11789TIP3    H256783   4.764   1.933   5.381  0.4309  1.1340  1.0942
11790TIP3   OH256784   4.527   1.738  16.829  0.1979 -0.7482  0.2173
11790TIP3    H156785   4.437   1.744  16.861  0.8847 -0.3946  2.1724
11790TIP3    H256786   4.562   1.827  16.838  0.1787 -0.4589 -2.3105
11791TIP3   OH256787   5.477   2.159   5.089  0.1547  0.5306 -0.5272
11791TIP3    H156788   5.553   2.208   5.120 -0.2608  0.1762  1.1497
11791TIP3    H256789   5.402   2.209   5.123 -0.3098 -0.0624 -0.6826
11792TIP3   OH256790   6.655   3.876   0.122 -0.1769 -0.4710 -0.1925
11792TIP3    H156791   6.561   3.879   0.142 -0.1434  0.1622 -0.1166
11792TIP3    H256792   6.683   3.968   0.127  0.9500 -0.9148  2.2453
11793TIP3   OH256793   1.379   3.687  16.699  0.3313 -0.0629  0.1984
11793TIP3    H156794   1.339   3.692  16.612 -0.8684 -1.2187  0.6582
11793TIP3    H256795   1.334   3.614  16.741  2.5577 -1.0248  0.9524
11794TIP3   OH256796   2.289   6.035  10.355  0.5225 -0.1058  0.1206
11794TIP3    H156797   2.310   6.124  10.327 -0.3632 -0.2275 -0.9468
11794TIP3    H256798   2.375   5.994  10.369  0.9558  0.4605 -0.8279
11795TIP3   OH256799   6.187   4.587  10.669  0.3086 -0.4738 -0.1529
11795TIP3    H156800   6.152   4.581  10.758  0.0940  0.3910 -0.1716
11795TIP3    H256801   6.209   4.680  10.659  1.4440 -0.7777 -0.5753
11796TIP3   OH256802   6.610   4.508  14.349 -0.6400 -0.1171 -0.1659
11796TIP3    H156803   6.660   4.544  14.275 -1.7153  0.9353 -0.4127
11796TIP3    H256804   6.669   4.516  14.424 -0.3462  0.9030 -0.4917
11797TIP3   OH256805   5.231   4.445  12.272  0.2915  0.0072  0.0480
11797TIP3    H156806   5.318   4.462  12.235 -0.3796  0.7539 -1.2545
11797TIP3    H256807   5.189   4.388  12.208 -0.5398  0.5030  0.1429
11798TIP3   OH256808   0.767   5.771  14.808 -0.4968 -0.3848 -0.1186
11798TIP3    H156809   0.674   5.764  14.786 -0.4012  3.1670 -2.0541
11798TIP3    H256810   0.811   5.777  14.723  1.4324 -1.0937  0.7920
11799TIP3   OH256811   1.544   0.791  11.661 -0.2019  0.2349  0.5549
11799TIP3    H156812   1.549   0.821  11.752 -1.7717  1.0268  0.3968
11799TIP3    H256813   1.583   0.862  11.610 -1.6261  0.9215  0.4011
11800TIP3   OH256814   3.979   1.430   4.977 -0.1142 -0.4147  0.2281
11800TIP3    H156815   3.900   1.415   4.925  0.0187 -1.8845  0.4454
11800TIP3    H256816   3.988   1.525   4.979 -2.7478 -0.1416  1.4568
11801TIP3   OH256817   5.408   5.643  11.865  0.6673  0.3926  1.3508
11801TIP3    H156818   5.354   5.618  11.790 -0.2501  1.9529  1.4726
11801TIP3    H256819   5.463   5.566  11.882 -0.2500 -0.5554  0.0989
11802TIP3   OH256820   0.645   0.889   3.739 -0.2548 -0.1447  0.0534
11802TIP3    H156821   0.619   0.945   3.813  0.7016  0.0792  0.2253
11802TIP3    H256822   0.577   0.822   3.735 -1.5618  1.1821 -0.3125
11803TIP3   OH256823   1.153   3.511  11.946 -0.1432  0.1954 -0.5575
11803TIP3    H156824   1.189   3.542  12.029  2.1922  0.7468 -1.7046
11803TIP3    H256825   1.161   3.416  11.949 -0.6715  0.1705  0.0989
11804TIP3   OH256826   3.481   4.788   0.822 -0.1450 -0.1829  0.4928
11804TIP3    H156827   3.574   4.785   0.798 -0.3773 -0.3652 -0.3642
11804TIP3    H256828   3.449   4.868   0.781 -0.3541 -0.0892  0.8410
11805TIP3   OH256829   5.373   4.846   5.496  0.1682 -0.1674  0.5218
11805TIP3    H156830   5.314   4.792   5.549 -1.1622  0.6968 -0.0715
11805TIP3    H256831   5.414   4.905   5.559  0.4492 -0.7872  0.9348
11806TIP3   OH256832   3.166   4.586  11.378 -0.4546 -0.1927 -0.5777
11806TIP3    H156833   3.076   4.616  11.388 -0.6708 -1.0038  0.0316
11806TIP3    H256834   3.165   4.496  11.412  0.6388 -0.1190 -0.3275
11807TIP3   OH256835   3.628   5.154  16.092  0.2758  0.2541 -0.4386
11807TIP3    H156836   3.668   5.214  16.029 -2.4039  1.7592 -0.7899
11807TIP3    H256837   3.689   5.152  16.166  1.3238  1.8999 -1.2365
11808TIP3   OH256838   5.113   6.353   1.228 -0.3747 -0.2918 -0.2162
11808TIP3    H156839   5.057   6.429   1.246  1.6040  1.7780 -2.3050
11808TIP3    H256840   5.063   6.299   1.167 -0.1864  1.5625 -2.1018
11809TIP3   OH256841   1.116   3.309  13.253 -0.2850  0.5571 -0.1380
11809TIP3    H156842   1.126   3.231  13.308 -0.2190 -0.2193 -1.2260
11809TIP3    H256843   1.050   3.283  13.188 -0.2154  1.3884 -0.5433
11810TIP3   OH256844   2.047   3.507   0.690 -0.1101  0.2347  0.3770
11810TIP3    H156845   2.128   3.465   0.721  0.6937  1.5641  0.1200
11810TIP3    H256846   2.048   3.594   0.730 -0.6850  0.7910 -0.7819
11811TIP3   OH256847   5.500   2.832   3.421 -0.0190  0.2028  0.4405
11811TIP3    H156848   5.489   2.754   3.475 -2.0351  1.0404  1.3026
11811TIP3    H256849   5.586   2.867   3.446  1.1000 -1.9602 -0.2977
11812TIP3   OH256850   1.235   1.038  13.541 -0.0680 -0.0747 -0.6349
11812TIP3    H156851   1.259   1.036  13.449  0.1363 -0.3365 -0.5767
11812TIP3    H256852   1.309   0.997  13.586  0.3434  1.0514 -0.2466
11813TIP3   OH256853   4.022   1.021  13.837  0.4625 -0.4096 -0.4162
11813TIP3    H156854   4.116   1.037  13.845  0.5262 -0.4707 -1.0205
11813TIP3    H256855   4.007   1.012  13.743 -0.1784 -0.2103 -0.3376
11814TIP3   OH256856   4.602   1.300   1.307  0.2262 -0.0669  0.3051
11814TIP3    H156857   4.661   1.359   1.262  0.3193 -1.1285 -0.9802
11814TIP3    H256858   4.543   1.267   1.239 -1.4018  0.4418  1.4377
11815TIP3   OH256859   0.893   0.312  15.537 -0.6209 -0.1851  0.5053
11815TIP3    H156860   0.905   0.242  15.601 -1.4281 -1.0762 -0.2948
11815TIP3    H256861   0.882   0.391  15.590 -0.3347 -0.7585  1.4372
11816TIP3   OH256862   6.293   2.423  13.867 -0.0043 -0.3137  0.0492
11816TIP3    H156863   6.363   2.389  13.812  1.3637 -0.0219  1.5721
11816TIP3    H256864   6.335   2.488  13.923 -0.6985 -2.6886  3.4876
11817TIP3   OH256865   0.761   1.002   5.908 -0.1359  0.0180  0.6929
11817TIP3    H156866   0.745   1.086   5.952  0.6478  1.3009 -1.3727
11817TIP3    H256867   0.691   0.995   5.843 -1.8109 -2.2868  2.6987
11818TIP3   OH256868   3.595   5.092   5.413  0.0671 -0.2835  0.0108
11818TIP3    H156869   3.662   5.079   5.345 -0.2607  1.3267 -0.6639
11818TIP3    H256870   3.577   5.186   5.409  0.4870 -0.0623  2.7643
11819TIP3   OH256871   0.496   3.624  15.068  0.0590 -0.5592 -0.1356
11819TIP3    H156872   0.515   3.713  15.039  0.4944 -0.6086 -0.0033
11819TIP3    H256873   0.580   3.579  15.064  0.1683 -0.5302  1.3425
11820TIP3   OH256874   5.074   2.611   3.831 -0.3195 -0.1736  0.6095
11820TIP3    H156875   5.099   2.592   3.921  1.6679 -0.5153  0.0203
11820TIP3    H256876   4.996   2.665   3.838  1.3046  1.9919  2.6026
11821TIP3   OH256877   5.193   1.896   1.187  0.4690 -0.3399 -0.2184
11821TIP3    H156878   5.287   1.901   1.206  0.6740 -0.9594 -1.0624
11821TIP3    H256879   5.169   1.987   1.167  0.5011  0.1236  1.7382
11822TIP3   OH256880   4.730   2.840  15.061  0.1795  0.2302  0.0754
11822TIP3    H156881   4.715   2.845  15.156 -2.0679 -1.9366 -0.1013
11822TIP3    H256882   4.655   2.887  15.023 -0.3591 -1.1827 -0.6451
11823TIP3   OH256883   3.837   4.368   4.524  0.0195  0.0712 -0.4064
11823TIP3    H156884   3.919   4.340   4.484 -0.8088 -0.8426 -1.4961
11823TIP3    H256885   3.770   4.349   4.458 -0.9714  1.5844  0.1390
11824TIP3   OH256886   1.334   2.923  15.074  0.2937 -0.3392  0.3416
11824TIP3    H156887   1.243   2.944  15.053  0.5432  0.3833 -0.0200
11824TIP3    H256888   1.331   2.832  15.102 -0.2822 -0.8727 -1.3614
11825TIP3   OH256889   3.362   3.292  11.743  0.2177 -0.3361  0.6603
11825TIP3    H156890   3.271   3.269  11.720  0.1667 -2.2131  2.5144
11825TIP3    H256891   3.411   3.276  11.663 -1.1181  0.8534 -0.4178
11826TIP3   OH256892   3.766   3.828   3.631 -0.0724 -0.3348  0.2535
11826TIP3    H156893   3.798   3.776   3.557  0.5510  1.0504 -0.4730
11826TIP3    H256894   3.829   3.814   3.701  2.9743  3.3186 -1.5369
11827TIP3   OH256895   1.723   1.741  14.708 -0.6969  0.0776  0.3620
11827TIP3    H156896   1.753   1.787  14.787 -1.0659 -1.9653  1.7266
11827TIP3    H256897   1.796   1.747  14.647  0.0644  0.5886  1.3181
11828TIP3   OH256898   3.669   3.243   1.444  0.0497 -0.2822  0.2828
11828TIP3    H156899   3.623   3.322   1.471 -1.1582 -1.4010  1.6079
11828TIP3    H256900   3.761   3.269   1.439 -0.3566  1.2417  0.5344
11829TIP3   OH256901   3.389   0.793   6.747 -0.5687 -0.1861 -0.1170
11829TIP3    H156902   3.301   0.761   6.727 -0.7437  1.8952 -3.0894
11829TIP3    H256903   3.376   0.880   6.785  0.1771  0.6563 -1.7087
11830TIP3   OH256904   4.364   3.933  15.868  0.1748  0.1849 -0.1206
11830TIP3    H156905   4.422   4.009  15.866 -0.4995  0.6933 -2.9441
11830TIP3    H256906   4.420   3.859  15.845  0.2529  0.2632 -0.1811
11831TIP3   OH256907   0.362   0.830  16.317  0.0572 -0.1766 -0.1442
11831TIP3    H156908   0.382   0.798  16.229  1.9488  2.7081 -0.8418
11831TIP3    H256909   0.447   0.832  16.361 -0.0367  3.3917 -0.0240
11832TIP3   OH256910   5.932   4.088   2.406  0.5108  0.6523  0.7932
11832TIP3    H156911   5.844   4.066   2.375  1.7665 -1.0757 -1.7918
11832TIP3    H256912   5.939   4.047   2.492 -0.2427 -1.6588 -0.2176
11833TIP3   OH256913   4.267   3.706  14.554 -0.5933 -0.4091  0.3304
11833TIP3    H156914   4.223   3.670  14.477 -0.2771  0.9761 -0.5158
11833TIP3    H256915   4.242   3.799  14.555  0.0949 -0.2241  1.4061
11834TIP3   OH256916   0.711   6.084  11.437  0.1410 -0.0142  0.0202
11834TIP3    H156917   0.758   6.002  11.453  1.1102  0.1919 -1.7375
11834TIP3    H256918   0.647   6.088  11.508  1.5910 -1.1663  1.4289
11835TIP3   OH256919   0.061   1.319   1.764  0.0340 -0.2130  0.0376
11835TIP3    H156920   0.055   1.227   1.737  1.3626 -0.0547 -0.8524
11835TIP3    H256921  -0.002   1.328   1.836 -0.9567 -1.5303 -0.6547
11836TIP3   OH256922   5.530   2.781  14.039 -0.2290  0.4937 -0.2562
11836TIP3    H156923   5.589   2.825  14.101 -0.0048  0.5431 -0.5039
11836TIP3    H256924   5.503   2.701  14.084 -0.0958  0.5483 -0.0789
11837TIP3   OH256925   3.542   5.709  16.328  0.1521 -0.1448  0.9446
11837TIP3    H156926   3.466   5.765  16.341 -1.5776 -2.7603  2.6670
11837TIP3    H256927   3.556   5.667  16.413  1.7239 -1.8382 -0.1040
11838TIP3   OH256928   5.027   3.149   0.186 -0.3434  0.0598  0.1423
11838TIP3    H156929   5.024   3.127   0.093 -0.6043 -1.0651  0.4094
11838TIP3    H256930   4.941   3.122   0.219 -0.1575  0.2218  0.7554
11839TIP3   OH256931   0.319   1.654  12.429  0.1704 -0.4595 -0.3395
11839TIP3    H156932   0.266   1.613  12.497 -0.3750  1.0819  0.1757
11839TIP3    H256933   0.398   1.600  12.425 -0.1388 -1.0314  0.9465
11840TIP3   OH256934   5.808   0.475  13.114 -0.4967  0.3141 -0.1245
11840TIP3    H156935   5.759   0.488  13.195  0.7250  1.3703  0.4547
11840TIP3    H256936   5.819   0.563  13.079 -0.1599 -0.0485 -0.9373
11841TIP3   OH256937   1.362   2.582  11.881 -0.7487  0.8499  0.5968
11841TIP3    H156938   1.415   2.548  11.953 -1.2303  0.7232  0.8974
11841TIP3    H256939   1.400   2.668  11.862  0.8393 -0.0947 -0.5597
11842TIP3   OH256940   1.774   4.973  17.056 -0.1569  0.2308  0.4890
11842TIP3    H156941   1.816   5.059  17.049 -0.6125  0.3799 -0.4384
11842TIP3    H256942   1.680   4.991  17.051 -0.2564 -0.3069  0.3619
11843TIP3   OH256943   2.520   6.660   1.059  0.1266 -0.8111 -1.0020
11843TIP3    H156944   2.433   6.658   1.098  1.0762 -0.4454  1.2301
11843TIP3    H256945   2.531   6.572   1.022  0.0874 -1.9719  1.6652
11844TIP3   OH256946   4.577   2.591   3.119  0.3064 -0.1050  0.4700
11844TIP3    H156947   4.486   2.561   3.124  0.8754 -2.3624 -1.5288
11844TIP3    H256948   4.580   2.647   3.041  0.4679  0.5978  0.9764
11845TIP3   OH256949   0.953   0.757   5.761  0.5034  0.0982  0.4057
11845TIP3    H156950   0.942   0.792   5.672 -0.4982  1.3623  1.0021
11845TIP3    H256951   0.879   0.696   5.771  0.4368  0.1905  0.4764
11846TIP3   OH256952   4.122   0.490   6.696 -0.1369  0.0669 -0.4699
11846TIP3    H156953   4.047   0.522   6.645 -0.2639  0.0479 -0.2957
11846TIP3    H256954   4.165   0.570   6.727 -0.4859  0.0695  0.0102
11847TIP3   OH256955   5.646   2.976  15.884 -0.2931 -0.1490 -0.6407
11847TIP3    H156956   5.722   2.984  15.942 -0.4096 -2.3938 -0.1532
11847TIP3    H256957   5.678   3.003  15.799  0.6162  0.5069 -0.0978
11848TIP3   OH256958   2.061   0.089  15.263  0.2381  0.0613  0.0699
11848TIP3    H156959   2.017   0.008  15.288 -1.3376  0.9514  0.2527
11848TIP3    H256960   2.063   0.087  15.168  1.7990 -1.0046  0.1030
11849TIP3   OH256961   0.708   5.627   4.710  0.0957  0.0784  0.2311
11849TIP3    H156962   0.749   5.668   4.634  0.4698 -0.0660  0.3541
11849TIP3    H256963   0.781   5.599   4.765 -0.0802 -2.9906 -1.0216
11850TIP3   OH256964   4.562   4.870  11.849  0.3584  0.5529 -0.8294
11850TIP3    H156965   4.627   4.801  11.863 -0.3271 -0.0904 -0.7488
11850TIP3    H256966   4.482   4.835  11.890  0.0812  1.5188 -0.5423
11851TIP3   OH256967   5.089   6.415   3.354 -0.0006  0.2630  0.1036
11851TIP3    H156968   5.036   6.489   3.385 -2.2890 -0.4868 -1.8664
11851TIP3    H256969   5.054   6.339   3.401  0.2117 -0.0502 -0.2448
11852TIP3   OH256970   1.478   1.843   0.065 -0.6632  0.4700  0.1126
11852TIP3    H156971   1.435   1.780   0.008 -0.6318  1.1904 -0.7058
11852TIP3    H256972   1.554   1.874   0.016 -0.7132  1.1958  0.4771
11853TIP3   OH256973   3.439   5.318   2.406  0.2751  0.3909  0.3021
11853TIP3    H156974   3.380   5.348   2.337  2.0883  1.2132 -0.9234
11853TIP3    H256975   3.490   5.248   2.366 -0.7863 -1.2387  1.7681
11854TIP3   OH256976   5.102   5.217   2.158  0.4033 -0.3774  0.2006
11854TIP3    H156977   5.141   5.137   2.191 -0.0933 -0.9516 -0.5787
11854TIP3    H256978   5.054   5.190   2.080 -0.1705  0.5903  0.2021
11855TIP3   OH256979   2.150   2.823  12.903 -0.2287 -0.0119  0.3605
11855TIP3    H156980   2.243   2.819  12.880 -0.7522  2.1080 -2.4993
11855TIP3    H256981   2.143   2.772  12.984  3.8109  1.8046  2.0019
11856TIP3   OH256982   4.460   0.221  16.547  0.3236  0.3383  0.6292
11856TIP3    H156983   4.478   0.284  16.477 -0.0133  2.2279  2.2025
11856TIP3    H256984   4.545   0.209  16.591  0.2089  0.3458  0.8524
11857TIP3   OH256985   2.521   1.807  17.066  0.3758 -0.4744 -0.4249
11857TIP3    H156986   2.604   1.823  17.021 -0.0012 -1.2304 -1.3954
11857TIP3    H256987   2.455   1.809  16.997 -0.2900 -0.9011  0.1926
11858TIP3   OH256988   2.081   5.408   3.475  0.1510 -0.6574  0.0531
11858TIP3    H156989   2.107   5.390   3.385 -1.7442 -0.0956 -0.6286
11858TIP3    H256990   1.985   5.412   3.473  0.1627  2.6979  1.4432
11859TIP3   OH256991   5.141   6.647   3.709 -0.9498  0.5553  0.6410
11859TIP3    H156992   5.155   6.720   3.769  1.7247 -0.5069  1.3881
11859TIP3    H256993   5.216   6.651   3.648 -2.4467  0.3094 -1.2662
11860TIP3   OH256994   3.218   0.952   6.222 -0.6984  0.0248 -0.4365
11860TIP3    H156995   3.168   0.930   6.144 -0.0371 -1.6761 -0.4136
11860TIP3    H256996   3.202   0.879   6.282  0.6084  0.1783  0.1320
11861TIP3   OH256997   0.798   1.047  14.792  0.2194 -0.7645 -0.1081
11861TIP3    H156998   0.770   1.022  14.704 -0.3179 -1.8506  0.3673
11861TIP3    H256999   0.893   1.033  14.792  0.5492  1.2672 -1.1733
11862TIP3   OH257000   3.584   6.636  11.967 -0.1164  0.0102 -0.1880
11862TIP3    H157001   3.660   6.610  12.019  1.4023  0.5513 -2.0521
11862TIP3    H257002   3.546   6.554  11.937  0.6914 -0.2393 -0.5517
11863TIP3   OH257003   5.374   6.392   3.416 -0.4222  0.6475  0.3757
11863TIP3    H157004   5.280   6.388   3.402 -0.2437  1.0903 -1.0760
11863TIP3    H257005   5.412   6.385   3.328  0.9296 -0.3829  1.0145
11864TIP3   OH257006   5.658   4.029  15.128 -0.1678  0.9259 -0.0172
11864TIP3    H157007   5.716   4.051  15.055 -2.1108  0.8419 -1.6089
11864TIP3    H257008   5.682   4.091  15.197  0.6459  2.0058 -1.2512
11865TIP3   OH257009   3.839   5.188  16.294 -0.4295 -0.3190 -0.4177
11865TIP3    H157010   3.789   5.258  16.334  0.5315  0.3907 -0.4451
11865TIP3    H257011   3.914   5.175  16.352  0.4562  0.0623 -1.4596
11866TIP3   OH257012   6.631   1.433  14.653 -0.7022  0.3659  0.2890
11866TIP3    H157013   6.672   1.352  14.621  1.2063  0.8457  1.4798
11866TIP3    H257014   6.662   1.501  14.593  1.2160  0.9164  1.8417
11867TIP3   OH257015   4.308   4.295  15.888 -0.6514 -0.5035 -0.3266
11867TIP3    H157016   4.215   4.316  15.885 -1.4370 -3.8696 -2.7057
11867TIP3    H257017   4.329   4.266  15.799  2.5888 -0.1732  0.2607
11868TIP3   OH257018   5.397   1.263  14.907 -0.4674 -0.5127 -0.3570
11868TIP3    H157019   5.460   1.231  14.841 -0.4163 -1.0135 -0.0699
11868TIP3    H257020   5.312   1.241  14.870 -0.4039 -2.0190  0.3513
11869TIP3   OH257021   2.728   3.267   3.237  0.7845 -0.2613 -0.1531
11869TIP3    H157022   2.687   3.322   3.171  0.1349  1.8452  1.9339
11869TIP3    H257023   2.800   3.321   3.271  0.5424 -0.9291  1.4619
11870TIP3   OH257024   3.381   3.074   4.861  0.0360 -0.3307 -0.1632
11870TIP3    H157025   3.286   3.072   4.849 -0.2346 -0.9041  1.8450
11870TIP3    H257026   3.407   3.161   4.832 -1.1832  0.0101 -0.2642
11871TIP3   OH257027   0.561   6.290   1.983  0.1661  0.0137 -0.1199
11871TIP3    H157028   0.539   6.199   2.002  0.9357  0.2185  1.8405
11871TIP3    H257029   0.627   6.314   2.049  1.5045  1.3673 -1.9032
11872TIP3   OH257030   4.383   0.510   1.418  0.4780  0.2437 -0.0024
11872TIP3    H157031   4.361   0.417   1.415  0.3688  0.2320  1.0404
11872TIP3    H257032   4.332   0.545   1.491  0.3399  1.1718 -0.5264
11873TIP3   OH257033   3.729   3.684  12.791 -0.6188  0.4730  1.2119
11873TIP3    H157034   3.721   3.613  12.727  0.6428 -0.5206  2.1218
11873TIP3    H257035   3.701   3.762  12.743 -0.6434 -0.3983 -0.2503
11874TIP3   OH257036   6.026   4.563  16.799 -0.1241  0.0418 -0.3238
11874TIP3    H157037   5.989   4.561  16.887  0.7786  1.1784  0.0923
11874TIP3    H257038   5.951   4.557  16.740 -0.9784  2.3543  0.4987
11875TIP3   OH257039   2.415   2.795  15.205 -0.2261 -0.0627  0.1119
11875TIP3    H157040   2.490   2.750  15.166  0.0009  1.0715 -0.7854
11875TIP3    H257041   2.375   2.730  15.263  2.4872 -0.1732  1.9673
11876TIP3   OH257042   0.464   5.806   3.077  0.8525  0.1249 -0.1153
11876TIP3    H157043   0.512   5.729   3.049  0.6433 -0.8571  2.1482
11876TIP3    H257044   0.381   5.772   3.111  1.3812  1.1644  2.3189
11877TIP3   OH257045   2.525   1.165   6.741 -0.2902  0.3894  0.0597
11877TIP3    H157046   2.517   1.141   6.649 -1.1790 -0.7541  0.4347
11877TIP3    H257047   2.612   1.206   6.747  0.9566 -2.0709 -0.7169
11878TIP3   OH257048   4.960   5.904   4.537  0.0691  0.0212 -0.1660
11878TIP3    H157049   4.968   5.967   4.466  1.2931  0.5973  0.4706
11878TIP3    H257050   4.933   5.823   4.494  2.4410 -0.0812 -1.5386
11879TIP3   OH257051   4.850   1.938   4.785  0.4349 -0.1360  0.4008
11879TIP3    H157052   4.759   1.912   4.769 -0.1810  0.4369  2.7866
11879TIP3    H257053   4.858   2.025   4.747  0.3976 -0.7679 -1.0700
11880TIP3   OH257054   3.791   1.994   1.269  0.6883 -0.1730  0.3506
11880TIP3    H157055   3.801   2.087   1.290  0.2594 -0.0913  0.2116
11880TIP3    H257056   3.702   1.973   1.297 -0.3301  0.2323 -2.3812
11881TIP3   OH257057   2.323   6.374  16.370 -0.2039 -0.1125 -1.0437
11881TIP3    H157058   2.288   6.303  16.425  1.6908  0.2367  0.6853
11881TIP3    H257059   2.263   6.447  16.385  1.4522  0.6505  2.3022
11882TIP3   OH257060   6.440   0.926  15.067 -0.1240 -0.4978  0.1477
11882TIP3    H157061   6.390   1.003  15.095 -1.3688 -0.4509 -2.0677
11882TIP3    H257062   6.397   0.853  15.111 -0.6453 -0.2021  0.1372
11883TIP3   OH257063   0.120   5.911  13.873 -0.2929 -0.1533 -0.0267
11883TIP3    H157064   0.146   5.994  13.833 -1.9606  1.9867  3.0716
11883TIP3    H257065   0.032   5.894  13.839  0.1859 -0.8576 -0.9292
11884TIP3   OH257066   1.096   0.202   1.523  0.7447 -0.0604  0.5957
11884TIP3    H157067   1.046   0.243   1.453  0.5511  0.8423  1.2437
11884TIP3    H257068   1.154   0.141   1.479  0.7593  0.6309 -0.3697
11885TIP3   OH257069   0.464   3.000  14.382 -0.0308  0.3001 -0.1093
11885TIP3    H157070   0.456   2.951  14.463 -0.3827 -0.5933 -0.6757
11885TIP3    H257071   0.395   2.965  14.326 -0.2412  1.3963 -0.5438
11886TIP3   OH257072   5.546   5.286   0.186  0.0272  0.2162  0.6857
11886TIP3    H157073   5.531   5.269   0.093 -0.5993  1.5397  0.5320
11886TIP3    H257074   5.616   5.226   0.211 -0.5386 -0.8932 -0.3855
11887TIP3   OH257075   2.774   2.381  13.848  0.2874  0.1783  0.1597
11887TIP3    H157076   2.712   2.320  13.807 -1.0012 -0.2104  2.5950
11887TIP3    H257077   2.775   2.457  13.791 -0.9129 -0.6413 -0.9687
11888TIP3   OH257078   5.455   2.393   6.443 -0.0229 -0.3472 -0.3330
11888TIP3    H157079   5.401   2.473   6.445 -0.0350 -0.3542 -0.3767
11888TIP3    H257080   5.404   2.328   6.491 -0.4413 -0.5967 -1.1097
11889TIP3   OH257081   5.332   2.864   2.370 -0.2771 -0.0403  0.1185
11889TIP3    H157082   5.404   2.904   2.321 -0.4462  0.0362 -0.0689
11889TIP3    H257083   5.375   2.807   2.434 -0.0631 -0.3147 -0.2720
11890TIP3   OH257084   2.283   3.792  16.564 -0.3195 -0.2326  0.6989
11890TIP3    H157085   2.299   3.698  16.554 -1.7983 -0.4571  0.3041
11890TIP3    H257086   2.268   3.823  16.475 -1.3369  0.0767  0.9654
11891TIP3   OH257087   0.959   1.967  10.151 -0.2712  0.5211  0.4528
11891TIP3    H157088   0.966   2.019  10.232 -1.5391 -0.7913  1.4481
11891TIP3    H257089   0.866   1.942  10.148 -0.5537  1.7925 -2.2107
11892TIP3   OH257090   5.197   4.075   0.560  0.4516  0.1306  0.6770
11892TIP3    H157091   5.224   3.995   0.606 -2.1719 -0.4217  1.3222
11892TIP3    H257092   5.160   4.130   0.629 -2.9992 -0.4640 -0.6310
11893TIP3   OH257093   1.030   1.111   0.932  0.0211  0.2893  0.4571
11893TIP3    H157094   1.092   1.058   0.883 -0.8626 -0.7679  0.4696
11893TIP3    H257095   1.018   1.190   0.879  1.2300  0.4125  0.3681
11894TIP3   OH257096   5.816   3.755  13.484 -0.0214 -0.0948  0.4961
11894TIP3    H157097   5.769   3.780  13.563  0.1749  0.0907  0.5556
11894TIP3    H257098   5.871   3.681  13.510  1.5785  1.2558  1.0461
11895TIP3   OH257099   1.358   2.620  10.681  0.1592 -0.0650  0.2809
11895TIP3    H157100   1.441   2.655  10.649 -0.8250 -0.5856 -2.9393
11895TIP3    H257101   1.292   2.651  10.619 -2.2960  1.3214  3.3947
11896TIP3   OH257102   4.046   0.952   5.592  0.1970  0.5645  0.1703
11896TIP3    H157103   4.045   0.960   5.688 -1.1866 -0.6626  0.2756
11896TIP3    H257104   4.138   0.944   5.570  0.5038  0.5094  1.4329
11897TIP3   OH257105   3.690   0.399   1.821 -0.3201 -0.1886  0.4092
11897TIP3    H157106   3.633   0.341   1.770 -1.9447 -0.9931  3.0199
11897TIP3    H257107   3.632   0.437   1.887  1.1377  2.9722 -0.0286
11898TIP3   OH257108   0.728   1.839  11.240  0.0422 -0.2737 -0.1100
11898TIP3    H157109   0.810   1.858  11.285  0.1984  0.7902 -0.8201
11898TIP3    H257110   0.684   1.775  11.296  0.3566  0.7915  1.3870
11899TIP3   OH257111   6.546   6.406  14.237 -0.0714  0.0927  0.1239
11899TIP3    H157112   6.626   6.453  14.261 -0.0607 -0.3671  1.0249
11899TIP3    H257113   6.544   6.409  14.142  0.3510  1.2102  0.1468
11900TIP3   OH257114   4.389   0.072  16.330  0.1674 -0.4972  0.1096
11900TIP3    H157115   4.412   0.099  16.419  0.4786 -1.6716  0.3926
11900TIP3    H257116   4.313   0.016  16.341  1.1954 -1.9722 -0.2015
11901TIP3   OH257117   4.446   3.813   0.437  0.1639 -0.7541 -0.4916
11901TIP3    H157118   4.531   3.789   0.474  0.9924  3.1240  0.2973
11901TIP3    H257119   4.463   3.891   0.385 -2.7215 -0.5671 -1.2496
11902TIP3   OH257120   3.952   2.216  11.116 -0.5179 -0.2111  0.2291
11902TIP3    H157121   3.925   2.273  11.188  1.5190 -0.0965  0.9234
11902TIP3    H257122   3.929   2.265  11.037  2.0848  2.0858  0.7993
11903TIP3   OH257123   1.155   3.634   5.408 -0.0479 -0.0291 -0.6767
11903TIP3    H157124   1.118   3.676   5.331 -1.5330  0.6582  0.3752
11903TIP3    H257125   1.217   3.698   5.443  1.4783 -0.7964 -1.9052
11904TIP3   OH257126   4.219   4.837   2.157  0.2553  0.2924 -0.3572
11904TIP3    H157127   4.309   4.872   2.156  0.5921 -0.4774  1.2326
11904TIP3    H257128   4.175   4.888   2.226 -1.1558  2.1222 -2.5393
11905TIP3   OH257129   6.436   5.246  15.786  0.0892 -0.6781  0.3477
11905TIP3    H157130   6.357   5.291  15.756  0.1374 -0.5947  0.3411
11905TIP3    H257131   6.480   5.218  15.705  0.2266 -0.4423  0.3380
11906TIP3   OH257132   0.082   4.990  13.362 -0.3781  0.6981 -0.0185
11906TIP3    H157133   0.088   5.020  13.452  0.7091 -0.7977  0.4292
11906TIP3    H257134   0.008   4.928  13.361 -0.4971  0.8414 -0.1866
11907TIP3   OH257135   4.083   1.109  11.811  0.0204  0.2157  0.4746
11907TIP3    H157136   4.109   1.197  11.838  1.8030 -0.5213  1.2371
11907TIP3    H257137   4.097   1.108  11.717 -1.4482  1.2138  0.2275
11908TIP3   OH257138   3.862   0.493   0.951  0.1836 -0.1374 -0.1652
11908TIP3    H157139   3.856   0.495   0.855  2.7043  1.7273 -0.3205
11908TIP3    H257140   3.952   0.466   0.968  0.4140  1.6816  1.6450
11909TIP3   OH257141   1.841   3.646  15.161  0.1045  0.4773 -0.0195
11909TIP3    H157142   1.874   3.662  15.073 -0.7331 -2.0756 -0.8566
11909TIP3    H257143   1.918   3.651  15.217  1.2403 -1.2308 -1.3868
11910TIP3   OH257144   4.807   0.120   6.429 -0.6063  0.5639 -0.0705
11910TIP3    H157145   4.805   0.193   6.491 -3.7065 -0.8665  1.6741
11910TIP3    H257146   4.816   0.042   6.485  2.7504 -0.4449 -1.8852
11911TIP3   OH257147   1.814   1.504  12.628 -0.3040 -0.3458  0.4753
11911TIP3    H157148   1.848   1.543  12.548  2.8053 -2.4681  0.6906
11911TIP3    H257149   1.843   1.564  12.698 -4.4248  2.4070  0.0150
11912TIP3   OH257150   4.081   1.095  16.742 -0.4822  0.4246  0.8301
11912TIP3    H157151   4.124   1.170  16.783 -0.6765  0.5087  0.8814
11912TIP3    H257152   4.143   1.023  16.753 -0.2871  0.5824  0.7668
11913TIP3   OH257153   0.760   6.401  16.363  0.6828  0.2336  0.1379
11913TIP3    H157154   0.782   6.459  16.435  1.3751 -2.8407  2.5093
11913TIP3    H257155   0.683   6.353  16.393  0.3773 -0.3975 -1.5705
11914TIP3   OH257156   1.480   2.217   1.849  0.1367  0.1821 -0.3276
11914TIP3    H157157   1.564   2.197   1.889  0.2487 -0.4962 -0.8924
11914TIP3    H257158   1.424   2.244   1.923  0.7804  0.4202  0.0722
11915TIP3   OH257159   1.955   5.192  16.992 -0.5881 -0.0938  0.5772
11915TIP3    H157160   1.967   5.272  17.043 -2.3609 -0.2058  1.2025
11915TIP3    H257161   2.036   5.184  16.942 -0.3421  2.0408  0.5653
11916TIP3   OH257162   4.913   3.899  12.029  0.7650 -0.3218 -0.1148
11916TIP3    H157163   4.914   3.834  12.100  1.9569  0.4160  0.5662
11916TIP3    H257164   5.006   3.910  12.006  0.5040  0.5891 -0.7283
11917TIP3   OH257165   0.393   0.989  14.690  0.9169 -0.0613  0.3593
11917TIP3    H157166   0.438   1.060  14.643 -0.9886  1.9809  1.5573
11917TIP3    H257167   0.448   0.971  14.766  1.5367 -0.0503 -0.0853
11918TIP3   OH257168   5.878   6.737  16.347  0.3559  0.1065  0.4108
11918TIP3    H157169   5.965   6.717  16.381  0.4271  0.9729  0.7593
11918TIP3    H257170   5.828   6.656  16.359  1.3887 -0.7088 -0.7265
11919TIP3   OH257171   2.402   6.088   2.414 -0.1245  0.4409  0.5869
11919TIP3    H157172   2.392   5.996   2.441  0.3171  0.1619 -0.1821
11919TIP3    H257173   2.413   6.083   2.319  1.6089  1.1656  0.7309
11920TIP3   OH257174   0.408   4.973   4.172 -0.0020  0.1114 -0.1604
11920TIP3    H157175   0.442   5.062   4.179  2.4461 -0.7292 -0.8806
11920TIP3    H257176   0.447   4.927   4.246 -0.9314 -0.4701 -0.0272
11921TIP3   OH257177   0.624   0.039  12.718  0.3822  0.3866  0.2128
11921TIP3    H157178   0.545   0.006  12.675  0.7258  0.3487 -0.3921
11921TIP3    H257179   0.631   0.130  12.691  0.3680  0.4826  0.5277
11922TIP3   OH257180   3.241   2.488   5.419  0.2046 -0.2973 -0.5725
11922TIP3    H157181   3.262   2.581   5.426 -0.0011 -0.3444  0.6947
11922TIP3    H257182   3.155   2.479   5.459  0.0822 -0.9914 -0.9750
11923TIP3   OH257183   0.812   4.084  12.081 -0.2727  0.4791 -0.0020
11923TIP3    H157184   0.907   4.080  12.093 -0.1019  1.9775 -0.8391
11923TIP3    H257185   0.780   4.129  12.159 -0.4825 -1.4562  1.0664
11924TIP3   OH257186   4.356   6.140  16.954  0.0034  0.2876 -0.0346
11924TIP3    H157187   4.371   6.182  17.038 -1.4230 -2.1344  1.4940
11924TIP3    H257188   4.429   6.080  16.944 -0.4454 -0.2815  0.0551
11925TIP3   OH257189   1.331   2.702   1.317 -0.3620  0.1583  0.5434
11925TIP3    H157190   1.279   2.700   1.237  0.5193 -2.2320 -0.0261
11925TIP3    H257191   1.422   2.707   1.287 -0.0767  0.2729  1.4089
11926TIP3   OH257192   2.861   5.040   2.347 -0.2740  0.7891 -0.4927
11926TIP3    H157193   2.925   5.107   2.326  0.6270 -0.4661 -1.8206
11926TIP3    H257194   2.873   5.024   2.441  2.0647 -0.1677 -0.9343
11927TIP3   OH257195   1.735   4.247  14.810 -0.2308 -0.3709  0.7276
11927TIP3    H157196   1.812   4.245  14.867  0.2577 -0.1905  0.0770
11927TIP3    H257197   1.715   4.155  14.793  0.5132 -0.3931 -0.0077
11928TIP3   OH257198   2.943   6.153  13.013 -0.4922 -0.1203  0.0901
11928TIP3    H157199   2.972   6.235  12.972  0.3385 -0.1620  0.5762
11928TIP3    H257200   2.906   6.180  13.097 -1.6207 -0.0999 -0.3974
11929TIP3   OH257201   1.089   0.572  17.125  0.2439  0.6557 -0.0739
11929TIP3    H157202   1.035   0.651  17.132  0.7808  1.2013 -1.7598
11929TIP3    H257203   1.177   0.600  17.146  0.1062  0.0503  1.3523
11930TIP3   OH257204   1.559   4.042   3.421  0.4592  0.3026  0.8992
11930TIP3    H157205   1.472   4.080   3.437 -0.4481 -1.9284  1.3840
11930TIP3    H257206   1.618   4.096   3.474 -0.7952  1.0535  1.5782
11931TIP3   OH257207   0.256   2.624  14.895  0.1066 -0.4341 -0.0339
11931TIP3    H157208   0.164   2.597  14.889 -0.0249  0.0958 -0.4252
11931TIP3    H257209   0.259   2.710  14.853  0.5550  0.0849  1.0429
11932TIP3   OH257210   6.366   3.496  10.593 -0.2408 -0.1461  0.1533
11932TIP3    H157211   6.281   3.487  10.636 -1.1062 -0.3483 -1.5492
11932TIP3    H257212   6.363   3.583  10.553 -0.2018 -0.6873 -1.0522
11933TIP3   OH257213   0.113   2.525  13.759 -0.3041  0.1919  0.0383
11933TIP3    H157214   0.111   2.540  13.664 -0.5381  0.4190  0.0789
11933TIP3    H257215   0.028   2.555  13.790  0.6153  2.2545  0.6321
11934TIP3   OH257216   5.767   2.893   3.792 -0.1195 -0.2932  0.2218
11934TIP3    H157217   5.702   2.840   3.746  0.8661 -0.8555 -0.5427
11934TIP3    H257218   5.791   2.841   3.868 -1.0927  0.2436  0.9132
11935TIP3   OH257219   6.248   3.756   4.417 -0.3072  0.1728 -0.0106
11935TIP3    H157220   6.325   3.808   4.440  1.0050 -0.5788 -2.5280
11935TIP3    H257221   6.195   3.815   4.363 -0.3800 -0.0589 -0.1920
11936TIP3   OH257222   2.187   1.344   4.402 -0.6653  0.4004 -0.2323
11936TIP3    H157223   2.121   1.275   4.388 -0.2615 -0.1109  0.3411
11936TIP3    H257224   2.155   1.392   4.478 -0.8102  0.6845 -0.4711
11937TIP3   OH257225   6.740   5.057   2.946 -0.5304  0.9090  0.5525
11937TIP3    H157226   6.833   5.072   2.928 -0.4219 -1.7234 -1.2643
11937TIP3    H257227   6.739   5.016   3.033  0.1991 -0.8872 -0.2559
11938TIP3   OH257228   6.622   4.646  12.476 -0.2365 -0.6636 -0.3566
11938TIP3    H157229   6.703   4.601  12.452  1.0707  0.3645  1.9647
11938TIP3    H257230   6.633   4.736  12.445 -1.1206 -0.8690 -1.3131
11939TIP3   OH257231   3.123   5.900   3.807  0.3235 -0.6355  0.2938
11939TIP3    H157232   3.032   5.927   3.796  0.7054  0.3748 -0.5344
11939TIP3    H257233   3.174   5.977   3.779  1.4206 -0.9236  1.4708
11940TIP3   OH257234   0.335   2.066  14.866 -0.4012  0.8873  0.0804
11940TIP3    H157235   0.348   2.035  14.955  0.4487  0.6336 -0.1272
11940TIP3    H257236   0.272   2.138  14.874 -0.9296  0.3536  0.7859
11941TIP3   OH257237   5.350   6.439  13.236 -0.9278  0.4376 -0.1651
11941TIP3    H157238   5.421   6.481  13.188  0.4773 -0.7101  0.8681
11941TIP3    H257239   5.291   6.405  13.169  1.3762 -1.7714 -1.1254
11942TIP3   OH257240   1.831   5.748  13.556  0.1821 -0.0783 -0.5735
11942TIP3    H157241   1.895   5.816  13.540 -1.3049  1.1215 -1.5126
11942TIP3    H257242   1.830   5.695  13.477  0.4643 -0.4626 -0.3200
11943TIP3   OH257243   5.523   1.882   2.649  0.3380  0.2365  0.1589
11943TIP3    H157244   5.552   1.838   2.569  1.0884  0.0894  0.5062
11943TIP3    H257245   5.484   1.964   2.619  0.8936  0.3221 -0.3408
11944TIP3   OH257246   6.099   4.712  14.722 -0.1277  0.8008  0.4923
11944TIP3    H157247   6.161   4.683  14.788 -2.3582  1.0949  2.7763
11944TIP3    H257248   6.153   4.735  14.646  2.4865  0.6955  2.2910
11945TIP3   OH257249   4.976   5.800  12.180 -0.3271 -0.8009  0.3183
11945TIP3    H157250   4.989   5.811  12.086 -1.0321  0.6668  0.3776
11945TIP3    H257251   4.985   5.706  12.195  0.3327 -0.9740 -1.1275
11946TIP3   OH257252   4.928   0.527   2.769 -0.3200 -0.0555  0.8222
11946TIP3    H157253   4.973   0.519   2.853  0.6014 -0.6122  0.2834
11946TIP3    H257254   4.968   0.603   2.727  0.7252 -1.0525 -0.0157
11947TIP3   OH257255   4.774   3.913  15.619  0.5978  0.8407  0.3131
11947TIP3    H157256   4.758   4.004  15.597  3.0536  0.8329 -1.7876
11947TIP3    H257257   4.729   3.863  15.551 -0.9218  0.4469  1.5776
11948TIP3   OH257258   6.538   0.893  13.773 -0.2034 -0.2058 -0.2705
11948TIP3    H157259   6.485   0.949  13.717  0.0806  0.1725 -0.1717
11948TIP3    H257260   6.541   0.940  13.857  0.1578 -0.2955 -0.2317
11949TIP3   OH257261   6.777   3.084  12.884  0.5529 -0.0023 -0.5744
11949TIP3    H157262   6.798   3.139  12.960  0.3828  1.0002 -1.2422
11949TIP3    H257263   6.764   2.997  12.921  0.3658  0.4908  0.5661
11950TIP3   OH257264   3.657   6.177   5.390 -0.0660  0.0242 -0.0966
11950TIP3    H157265   3.691   6.140   5.472 -0.0424 -0.0208 -0.1261
11950TIP3    H257266   3.731   6.226   5.354  0.0360 -0.2538 -0.2709
11951TIP3   OH257267   2.640   2.919   4.293 -0.8028  0.1329 -0.0824
11951TIP3    H157268   2.716   2.956   4.248 -0.2260  0.0112  0.7766
11951TIP3    H257269   2.675   2.844   4.342 -1.2270  0.8343  1.3386
11952TIP3   OH257270   1.027   1.672   1.249 -0.0107 -0.2768 -0.2830
11952TIP3    H157271   0.991   1.585   1.235  0.2742 -0.3696 -0.4438
11952TIP3    H257272   0.969   1.712   1.314  2.3086 -2.1196  3.0814
11953TIP3   OH257273   0.811   3.754   2.062 -0.3216  0.2982 -0.3416
11953TIP3    H157274   0.728   3.761   2.110  0.6859  0.6688  1.3592
11953TIP3    H257275   0.869   3.707   2.121  1.1186  1.2930 -0.9453
11954TIP3   OH257276   5.254   4.982   2.241  0.1961  0.1621  0.2655
11954TIP3    H157277   5.217   4.972   2.328 -2.1982  0.1387 -0.7297
11954TIP3    H257278   5.314   4.908   2.231  0.8110  0.3965  2.0225
11955TIP3   OH257279   3.817   5.792   1.084 -0.3005 -0.3479 -0.4149
11955TIP3    H157280   3.839   5.710   1.129  0.6457 -0.8898 -1.8062
11955TIP3    H257281   3.877   5.857   1.122 -0.4316 -0.4948  0.0494
11956TIP3   OH257282   3.253   5.361  13.139  0.1150  0.0539  0.6115
11956TIP3    H157283   3.288   5.324  13.220 -1.7057  0.7731  1.7600
11956TIP3    H257284   3.218   5.447  13.165 -0.2819  0.3933 -0.9895
11957TIP3   OH257285   4.387   3.495  11.858  0.7485 -0.0382  0.5689
11957TIP3    H157286   4.466   3.481  11.804 -0.3709 -1.8382 -0.6849
11957TIP3    H257287   4.404   3.444  11.937  1.0202 -0.1113  0.4686
11958TIP3   OH257288   2.503   1.386   4.902 -0.4490 -0.9516  0.0937
11958TIP3    H157289   2.555   1.340   4.836  0.5535  1.6467 -0.9924
11958TIP3    H257290   2.498   1.325   4.976  2.0363 -2.2464 -0.7706
11959TIP3   OH257291   5.311   0.058  13.988  0.3759  0.1260 -0.0637
11959TIP3    H157292   5.373   0.110  13.937  1.2672 -2.3926 -1.6957
11959TIP3    H257293   5.282  -0.010  13.927 -3.1909  0.5742  0.9998
11960TIP3   OH257294   5.973   2.490   2.276 -0.0420 -0.0997 -0.2003
11960TIP3    H157295   5.919   2.412   2.279 -3.4613  2.2062  1.3302
11960TIP3    H257296   6.039   2.477   2.345 -0.9571 -1.3457  0.4392
11961TIP3   OH257297   4.822   4.945   6.083  0.4163 -0.1984 -0.7001
11961TIP3    H157298   4.761   4.887   6.129  0.5117 -1.0678 -1.6537
11961TIP3    H257299   4.905   4.931   6.127  0.0863  0.4758  0.1581
11962TIP3   OH257300   5.387   5.918   5.721 -0.3222  0.3666  0.0232
11962TIP3    H157301   5.415   5.831   5.692 -0.7522  0.2253  0.0238
11962TIP3    H257302   5.351   5.959   5.642  0.2642  0.7043 -0.0748
11963TIP3   OH257303   5.996   4.556  17.105  0.5160 -0.2545 -0.0106
11963TIP3    H157304   5.949   4.639  17.106 -2.2143 -1.7108 -1.4473
11963TIP3    H257305   5.930   4.492  17.133  2.7793 -1.8355  1.8243
11964TIP3   OH257306   4.410   5.636  16.727  0.2175  1.1229  0.2459
11964TIP3    H157307   4.434   5.568  16.664  0.0621  0.4926  0.8715
11964TIP3    H257308   4.316   5.623  16.741  0.1031  1.7271  0.0477
11965TIP3   OH257309   0.564   6.020  16.524  0.3096 -0.5247 -0.3586
11965TIP3    H157310   0.589   5.952  16.587  0.7158  0.2430  0.3133
11965TIP3    H257311   0.610   6.098  16.553  0.1654 -0.0576 -1.3708
11966TIP3   OH257312   5.545   5.278  17.134  0.3746 -0.1169  0.0447
11966TIP3    H157313   5.592   5.203  17.099 -0.8018 -0.4978 -0.7378
11966TIP3    H257314   5.559   5.348  17.071 -2.5400 -1.0755 -1.7459
11967TIP3   OH257315   5.750   1.834   2.803 -0.0010 -0.0442  0.4191
11967TIP3    H157316   5.815   1.804   2.740 -0.4176 -1.5605  0.6774
11967TIP3    H257317   5.667   1.833   2.755 -0.4487 -1.9999  1.1977
11968TIP3   OH257318   3.266   6.591   4.491  0.0902 -0.3567 -0.1863
11968TIP3    H157319   3.208   6.537   4.545  0.1471 -0.8163 -0.5840
11968TIP3    H257320   3.328   6.629   4.553 -2.5769  2.6973  0.7146
11969TIP3   OH257321   0.631   0.760  13.712  0.1375  0.3780 -0.0796
11969TIP3    H157322   0.585   0.837  13.748 -0.1730 -0.3542  1.1280
11969TIP3    H257323   0.572   0.726  13.645 -0.5190  0.1860  0.5871
11970TIP3   OH257324   0.909   0.164   5.971  0.2847  0.0836  0.1075
11970TIP3    H157325   0.887   0.175   6.063 -1.0387  0.5180 -0.2460
11970TIP3    H257326   0.933   0.252   5.940 -1.1378  0.2993 -0.4186
11971TIP3   OH257327   3.571   0.327   5.878  0.2177 -0.4356  0.0578
11971TIP3    H157328   3.575   0.360   5.789 -0.2281  1.3335  0.6716
11971TIP3    H257329   3.553   0.405   5.932  1.5050 -1.2903  1.7847
11972TIP3   OH257330   0.458   4.534   4.757  1.0626 -0.6959 -0.1050
11972TIP3    H157331   0.385   4.587   4.788 -0.5243 -2.1185 -1.3078
11972TIP3    H257332   0.498   4.499   4.837 -1.2942 -2.1383  0.4983
11973TIP3   OH257333   0.672   5.801   0.358  0.3705  0.0404  0.4552
11973TIP3    H157334   0.644   5.886   0.323 -2.7350 -0.9128  0.4031
11973TIP3    H257335   0.622   5.738   0.306  1.8333 -1.7665  1.2255
11974TIP3   OH257336   5.243   6.726  14.895 -0.2522  0.0299 -0.4124
11974TIP3    H157337   5.313   6.681  14.848 -0.0646 -0.8792  0.7323
11974TIP3    H257338   5.220   6.800  14.838  2.4369  1.0313 -0.2695
11975TIP3   OH257339   0.551   4.174   1.381 -0.2522  0.1606 -0.3198
11975TIP3    H157340   0.530   4.169   1.287  2.4330  0.1224 -0.9532
11975TIP3    H257341   0.603   4.095   1.397 -0.2271  0.4623  1.0969
11976TIP3   OH257342   2.196   0.234   6.063 -0.3632  0.3751  0.0236
11976TIP3    H157343   2.238   0.255   6.147 -0.0863  0.0995 -0.0452
11976TIP3    H257344   2.169   0.143   6.074 -2.3380  1.0180  0.6508
11977TIP3   OH257345   1.136   4.890  14.950  0.0497  0.0635  0.3598
11977TIP3    H157346   1.048   4.895  14.912 -1.0759  0.8632  2.9500
11977TIP3    H257347   1.147   4.798  14.973 -0.1546 -0.0109  0.1653
11978TIP3   OH257348   5.578   1.456   5.010  0.2437  0.0940 -0.7282
11978TIP3    H157349   5.490   1.495   5.011  0.6718  1.0946 -1.5802
11978TIP3    H257350   5.637   1.530   5.018  1.0121 -0.6074  0.0953
11979TIP3   OH257351   3.577   4.232   3.405  0.2284 -0.8074  0.0660
11979TIP3    H157352   3.609   4.238   3.315  1.1147 -0.7680  0.3773
11979TIP3    H257353   3.553   4.321   3.429  2.2541 -0.3833  0.6688
11980TIP3   OH257354   4.277   4.975   4.863  0.0128  0.3255 -0.4659
11980TIP3    H157355   4.248   4.889   4.831 -1.3488  0.9639 -0.9894
11980TIP3    H257356   4.354   4.956   4.916  0.9941 -1.0090 -2.2973
11981TIP3   OH257357   2.064   6.378  13.824 -0.0873 -0.0260 -0.0441
11981TIP3    H157358   2.030   6.372  13.734 -0.2086  0.0360 -0.0031
11981TIP3    H257359   2.057   6.471  13.845  0.3150  0.0202 -0.1158
11982TIP3   OH257360   6.269   2.822   4.396 -0.0509  0.3052  0.7276
11982TIP3    H157361   6.185   2.778   4.410  0.5327 -0.2798  2.6169
11982TIP3    H257362   6.246   2.915   4.390 -0.8312  0.1540  1.2938
11983TIP3   OH257363   3.880   3.613  13.019  0.3394  0.0611  0.4242
11983TIP3    H157364   3.851   3.653  12.937  2.1529  0.8097  0.1281
11983TIP3    H257365   3.800   3.599  13.069 -0.5666  1.6912 -0.5448
11984TIP3   OH257366   4.127   5.277  13.291 -0.3979  0.1812  0.2097
11984TIP3    H157367   4.210   5.299  13.249  0.2228  0.6711  1.6723
11984TIP3    H257368   4.060   5.306  13.228  0.4773  2.3655  0.2349
11985TIP3   OH257369   3.571   1.148  13.267 -0.0190  0.4151 -0.2323
11985TIP3    H157370   3.540   1.167  13.178  1.4031  2.9190 -0.2192
11985TIP3    H257371   3.635   1.216  13.285  1.0771 -1.1809  2.0343
11986TIP3   OH257372   4.294   3.984   4.639  1.1146 -0.0131  0.6898
11986TIP3    H157373   4.351   4.059   4.624  0.1340  0.5414 -0.3713
11986TIP3    H257374   4.291   3.974   4.734  1.3769  1.1981  0.8326
11987TIP3   OH257375   1.610   1.748   6.380 -0.1856  0.3048 -0.2475
11987TIP3    H157376   1.671   1.819   6.399 -0.3347 -0.4827  3.5408
11987TIP3    H257377   1.658   1.689   6.322  2.0218  0.6221  1.2033
11988TIP3   OH257378   3.239   1.444  14.961  0.5338  0.7118 -0.1153
11988TIP3    H157379   3.199   1.529  14.945 -0.5353  0.4942  1.3102
11988TIP3    H257380   3.231   1.397  14.878  1.7070  2.2013 -1.1073
11989TIP3   OH257381   3.045   5.686  11.935  0.3336 -0.2288 -0.4825
11989TIP3    H157382   3.090   5.611  11.895 -0.6395 -0.8184 -0.5015
11989TIP3    H257383   3.054   5.756  11.871  1.7458 -0.1446 -0.2163
11990TIP3   OH257384   0.263   5.785  13.661 -0.2492  0.8168  0.8046
11990TIP3    H157385   0.270   5.693  13.686  0.4335  0.5768 -0.2280
11990TIP3    H257386   0.269   5.833  13.744 -2.7955 -0.1397  1.5607
11991TIP3   OH257387   2.126   4.828   4.655 -0.0451  0.4022 -0.6474
11991TIP3    H157388   2.135   4.905   4.710 -0.3738  0.9798 -1.3931
11991TIP3    H257389   2.180   4.761   4.697 -1.4656  0.3766  1.1949
11992TIP3   OH257390   6.778   0.605  16.246  0.2490 -0.4204  0.2938
11992TIP3    H157391   6.832   0.660  16.190 -1.1031  1.4711  0.7585
11992TIP3    H257392   6.787   0.643  16.333 -1.3341 -0.4236  0.4845
11993TIP3   OH257393   1.848   3.231  17.176 -0.3973 -0.2006 -0.3415
11993TIP3    H157394   1.940   3.231  17.150 -0.1773 -1.4707  0.3878
11993TIP3    H257395   1.845   3.292  17.250 -0.1117 -0.2714 -0.2706
11994TIP3   OH257396   3.814   6.453  13.632 -0.3188 -0.0586  0.1712
11994TIP3    H157397   3.835   6.455  13.539 -1.7987 -2.0581 -0.2345
11994TIP3    H257398   3.722   6.427  13.636  0.2161 -1.8191  2.2561
11995TIP3   OH257399   5.943   6.006  12.832  0.1696  0.5256  0.1031
11995TIP3    H157400   5.951   6.059  12.753 -0.8511  0.0509 -0.3262
11995TIP3    H257401   5.950   6.068  12.904  0.3545  1.0597 -0.3731
11996TIP3   OH257402   3.104   4.702   1.893  0.1713  0.1191  0.6734
11996TIP3    H157403   3.096   4.623   1.841 -1.0031  1.3094 -0.9736
11996TIP3    H257404   3.100   4.774   1.830  4.1941  1.4579  1.7663
11997TIP3   OH257405   4.211   0.916  13.053 -0.0640  0.2157  0.1933
11997TIP3    H157406   4.160   0.835  13.046 -0.5483  0.3104  2.3217
11997TIP3    H257407   4.151   0.980  13.091  0.8617  1.0767  0.2509
11998TIP3   OH257408   5.884   0.556   3.020  0.0112  0.1135  0.1008
11998TIP3    H157409   5.836   0.484   2.980  0.6601  0.6198 -1.6403
11998TIP3    H257410   5.965   0.517   3.052  1.0703  0.3105 -2.2298
11999TIP3   OH257411   1.793   4.137   1.746 -0.5777 -0.5095 -0.3561
11999TIP3    H157412   1.855   4.205   1.772  0.2705 -1.8833  1.4030
11999TIP3    H257413   1.811   4.121   1.654 -1.3764  2.2094 -1.0231
12000TIP3   OH257414   6.687   0.355  16.125  0.8669  0.2189  0.1341
12000TIP3    H157415   6.720   0.421  16.186 -0.1275  2.5698 -1.8046
12000TIP3    H257416   6.594   0.374  16.118  0.7330 -0.8644 -1.1168
12001TIP3   OH257417   3.864   1.657  10.869 -0.3675 -0.4302 -0.6323
12001TIP3    H157418   3.869   1.751  10.856 -3.0799  0.0169  1.1349
12001TIP3    H257419   3.823   1.624  10.789  2.5945 -0.4521 -2.2160
12002TIP3   OH257420   5.831   0.900   3.907  0.3714  0.3206 -0.5120
12002TIP3    H157421   5.912   0.891   3.958 -0.4779  0.2656  0.8514
12002TIP3    H257422   5.796   0.811   3.902 -0.7943  0.6745  0.9127
12003TIP3   OH257423   6.658   6.392   5.735  0.0739  0.8043 -0.2048
12003TIP3    H157424   6.714   6.462   5.703 -0.4927  1.4323  0.1670
12003TIP3    H257425   6.717   6.319   5.751  0.4401  0.6212 -2.2392
12004TIP3   OH257426   3.179   2.913  11.094  0.5612  0.6628  0.3565
12004TIP3    H157427   3.086   2.896  11.087  0.8633 -1.1507  0.4564
12004TIP3    H257428   3.208   2.933  11.005  0.2776  0.0766  0.1290
12005TIP3   OH257429   6.007   2.711   2.993  0.1418  0.0456  0.1852
12005TIP3    H157430   5.949   2.787   2.997 -0.3839 -0.4075  1.2565
12005TIP3    H257431   6.095   2.749   2.998 -0.0318  0.7543 -1.7579
12006TIP3   OH257432   2.813   5.519   1.111  0.0638  0.0758 -0.1078
12006TIP3    H157433   2.806   5.513   1.016  0.0699  0.6407 -0.1459
12006TIP3    H257434   2.758   5.594   1.134  0.4885  0.2673  0.2806
12007TIP3   OH257435   1.820   1.714  11.704 -0.8938 -0.7632  0.4988
12007TIP3    H157436   1.887   1.780  11.726 -0.0863 -1.2869 -0.3769
12007TIP3    H257437   1.776   1.749  11.627 -0.8973 -0.9415  0.4204
12008TIP3   OH257438   6.011   2.679   5.798 -0.2863 -0.1155 -0.5203
12008TIP3    H157439   5.922   2.684   5.831  0.3611  1.0708  1.1490
12008TIP3    H257440   6.047   2.766   5.815  1.3509 -0.7369 -0.7293
12009TIP3   OH257441   4.533   3.384  14.502 -0.2812  0.5644 -0.0625
12009TIP3    H157442   4.541   3.445  14.429 -1.0368  1.0502  0.2633
12009TIP3    H257443   4.503   3.302  14.461  3.6366 -0.5326 -0.9444
12010TIP3   OH257444   5.988   4.725  16.475 -0.1546  0.1152  0.3397
12010TIP3    H157445   5.941   4.670  16.538 -1.1341  0.1515 -0.3417
12010TIP3    H257446   5.970   4.815  16.505  1.1022  0.0910  1.2079
12011TIP3   OH257447   1.536   4.652  16.577 -0.3092 -0.2935  0.8076
12011TIP3    H157448   1.498   4.592  16.513  1.9405 -1.0972  0.1792
12011TIP3    H257449   1.557   4.597  16.652 -0.9909  0.2655  1.4150
12012TIP3   OH257450   3.213   5.354   1.190  0.3420  0.1028  0.3875
12012TIP3    H157451   3.159   5.389   1.120  1.1665  0.9079  0.1487
12012TIP3    H257452   3.183   5.264   1.201  0.8743 -0.3270 -1.6561
12013TIP3   OH257453   3.076   6.444  14.535  0.7920  0.6525 -0.2309
12013TIP3    H157454   3.022   6.472  14.460 -0.8000 -0.4476  0.4641
12013TIP3    H257455   3.092   6.351  14.519 -0.1999  0.2279  1.1688
12014TIP3   OH257456   2.537   4.027   2.607 -0.3755  0.6695 -0.4412
12014TIP3    H157457   2.555   4.061   2.520  0.0355 -0.0408 -0.6412
12014TIP3    H257458   2.503   4.102   2.656  0.3591  1.3194 -0.9122
12015TIP3   OH257459   3.816   4.016   5.751 -0.5935 -0.9536  0.3877
12015TIP3    H157460   3.731   4.060   5.762  0.1844  1.4160 -2.4472
12015TIP3    H257461   3.822   3.997   5.658  1.4126 -2.3654  0.7698
12016TIP3   OH257462   4.379   5.021  15.045 -0.8127  0.1506  0.5728
12016TIP3    H157463   4.340   4.987  14.965 -1.6372 -1.5363  1.6607
12016TIP3    H257464   4.438   5.091  15.016 -0.2948 -1.1432 -1.5829
12017TIP3   OH257465   5.622   1.153   5.028 -0.0994 -0.0330  0.3798
12017TIP3    H157466   5.629   1.248   5.022  0.5277 -0.1133 -0.2876
12017TIP3    H257467   5.694   1.128   5.087 -1.1318  0.0254  1.6784
12018TIP3   OH257468   5.996   5.293   2.925  0.0647  0.1823  0.2576
12018TIP3    H157469   5.975   5.219   2.983  1.4125  0.7892  1.5688
12018TIP3    H257470   5.993   5.256   2.837 -0.5125 -1.1386  0.8122
12019TIP3   OH257471   3.110   1.439   5.356  0.1909 -0.9136  0.1978
12019TIP3    H157472   3.152   1.505   5.411 -1.0571  0.0870 -0.0329
12019TIP3    H257473   3.168   1.363   5.362  0.8723 -0.3062  1.6602
12020TIP3   OH257474   5.670   1.314   2.363 -0.0150 -0.5052 -0.1285
12020TIP3    H157475   5.663   1.220   2.377  0.6307 -0.5227  0.1090
12020TIP3    H257476   5.764   1.332   2.370 -0.4543  0.7324  3.6413
12021TIP3   OH257477   2.108   1.895  15.171  0.2389  0.4754 -0.3669
12021TIP3    H157478   2.016   1.868  15.180  0.5007  0.0917  1.2288
12021TIP3    H257479   2.106   1.990  15.180  0.1727  0.3327  1.2180
12022TIP3   OH257480   0.233   0.572   0.391 -0.4544  0.3995 -0.3281
12022TIP3    H157481   0.197   0.658   0.369 -2.5369 -0.4316 -0.3476
12022TIP3    H257482   0.270   0.540   0.309  1.7905  1.9090  0.0406
12023TIP3   OH257483   1.284   3.003   2.250  0.4386  0.6674  0.5973
12023TIP3    H157484   1.328   3.011   2.334 -0.5186  1.6157  1.0267
12023TIP3    H257485   1.354   2.990   2.187  1.1822  0.2283  1.5091
12024TIP3   OH257486   4.074   4.535  13.566 -0.0865  0.2385  0.1488
12024TIP3    H157487   4.035   4.586  13.495 -0.3221  0.3945  0.3882
12024TIP3    H257488   4.156   4.581  13.586  0.8311 -0.7990 -1.1943
12025TIP3   OH257489   0.620   3.224  12.210 -0.0923  0.0506  0.0549
12025TIP3    H157490   0.585   3.266  12.289  2.1783  2.8015 -0.3272
12025TIP3    H257491   0.613   3.291  12.142  2.0662 -0.7515 -1.0035
12026TIP3   OH257492   2.183   4.167   2.381  0.0980 -0.2838 -0.4153
12026TIP3    H157493   2.093   4.168   2.348 -0.7110 -0.1374  1.7247
12026TIP3    H257494   2.201   4.258   2.404  0.7723 -0.3353 -0.7108
12027TIP3   OH257495   1.308   5.378  14.161  0.1652  0.0941  0.0256
12027TIP3    H157496   1.316   5.433  14.083  0.4268  0.2355  0.1526
12027TIP3    H257497   1.358   5.299  14.140  1.3066  0.6668  0.5325
12028TIP3   OH257498   2.468   5.735   2.822  0.5670 -0.0963 -0.3906
12028TIP3    H157499   2.410   5.806   2.795  1.3482  0.6789 -0.0532
12028TIP3    H257500   2.466   5.673   2.749  1.4305  1.2163 -1.5510
12029TIP3   OH257501   3.378   5.587   5.862 -0.2176  0.4240 -0.1059
12029TIP3    H157502   3.367   5.629   5.948  0.9672  0.4239  0.0600
12029TIP3    H257503   3.453   5.528   5.874  0.5020  1.0530 -1.3698
12030TIP3   OH257504   2.307   5.998  15.821 -0.4949  0.1000  0.5073
12030TIP3    H157505   2.363   6.076  15.822 -2.1649  1.3293  3.1500
12030TIP3    H257506   2.219   6.031  15.839 -1.5793 -2.1757 -0.4168
12031TIP3   OH257507   6.493   5.874  15.546  0.1070 -0.1124 -0.2825
12031TIP3    H157508   6.466   5.965  15.533 -2.5834 -1.3171 -3.9262
12031TIP3    H257509   6.519   5.844  15.459 -1.6848 -3.6029  0.3056
12032TIP3   OH257510   6.134   2.186  15.144  0.4250 -0.3335 -0.6155
12032TIP3    H157511   6.157   2.097  15.121  3.4482  0.2988 -0.2740
12032TIP3    H257512   6.208   2.218  15.195 -1.1655  1.9557  0.3808
12033TIP3   OH257513   1.871   1.874  11.449  0.4400 -0.2634 -0.3374
12033TIP3    H157514   1.907   1.794  11.412  0.3469 -1.0380  1.2298
12033TIP3    H257515   1.942   1.937  11.444  1.0552 -0.9292  0.0082
12034TIP3   OH257516   6.145   1.099  15.056  0.3788 -0.7923 -0.8752
12034TIP3    H157517   6.152   1.167  14.989  2.3773  0.1717  0.2688
12034TIP3    H257518   6.059   1.114  15.097  2.1427  3.2122  1.6130
12035TIP3   OH257519   4.243   4.530   5.110  0.1121 -0.0814  0.0140
12035TIP3    H157520   4.298   4.534   5.032  0.0624  1.3239  0.0322
12035TIP3    H257521   4.298   4.562   5.181 -0.6884  1.3255  0.0364
12036TIP3   OH257522   3.654   0.291  11.380  0.8040  0.1518 -0.1597
12036TIP3    H157523   3.651   0.314  11.473 -0.4310 -1.0547  0.1203
12036TIP3    H257524   3.592   0.351  11.338  0.1353 -0.3923  0.0474
12037TIP3   OH257525   6.662   2.369  13.072 -0.4140  0.5650  0.8039
12037TIP3    H157526   6.600   2.321  13.126 -0.6004 -0.4246 -0.2738
12037TIP3    H257527   6.655   2.328  12.986  1.4889  0.6687  0.5924
12038TIP3   OH257528   6.702   2.230  17.222 -0.3233  0.2731  0.0357
12038TIP3    H157529   6.729   2.312  17.179  0.0140  0.3099  0.3157
12038TIP3    H257530   6.627   2.200  17.170 -1.5097  1.6296  0.9279
12039TIP3   OH257531   6.658   6.256  11.181 -0.1369  0.2280  0.1212
12039TIP3    H157532   6.618   6.229  11.098  0.7088  0.6478 -0.4259
12039TIP3    H257533   6.603   6.214  11.248 -0.1731 -1.0170 -0.6664
12040TIP3   OH257534   0.705   2.530   0.416 -0.6118 -0.3099  0.3855
12040TIP3    H157535   0.622   2.558   0.378 -1.0536 -1.0590  0.7950
12040TIP3    H257536   0.771   2.581   0.369 -1.2504 -0.1857 -0.3913
12041TIP3   OH257537   1.974   5.527   6.063  0.1324 -0.3985  0.3373
12041TIP3    H157538   1.906   5.539   6.129 -0.6895  2.5329 -0.9721
12041TIP3    H257539   1.926   5.502   5.984  0.7887 -0.5162 -0.0258
12042TIP3   OH257540   0.624   2.309   5.095 -0.2335 -0.2983  0.4787
12042TIP3    H157541   0.714   2.317   5.063 -1.2273 -0.6438 -2.4898
12042TIP3    H257542   0.630   2.332   5.188  2.8737 -0.0899  0.2778
12043TIP3   OH257543   5.883   3.110  12.213  0.0502  0.4531  0.3443
12043TIP3    H157544   5.926   3.154  12.139  0.2082  0.6776  0.5703
12043TIP3    H257545   5.956   3.083  12.270  0.1882 -2.6080 -1.1571
12044TIP3   OH257546   0.901   5.038  14.736  0.2817  0.0691  0.4539
12044TIP3    H157547   0.910   5.100  14.809  0.0795 -0.5752  1.0304
12044TIP3    H257548   0.982   5.049  14.686  1.3394 -0.9147  1.8941
12045TIP3   OH257549   5.699   6.558   0.754 -0.1828 -0.0031 -0.3175
12045TIP3    H157550   5.659   6.644   0.737  1.1344 -0.0594 -4.0736
12045TIP3    H257551   5.776   6.578   0.807 -0.6219  0.9738 -0.0310
12046TIP3   OH257552   1.035   1.234   4.332  0.0259 -0.7187 -0.7139
12046TIP3    H157553   1.003   1.320   4.360 -0.4104 -0.1220 -2.9083
12046TIP3    H257554   0.955   1.181   4.320  0.3171 -1.5974  1.0821
12047TIP3   OH257555   6.428   1.396  14.821 -0.2447  0.5261  0.6507
12047TIP3    H157556   6.490   1.376  14.752 -2.0089 -0.8644 -0.5966
12047TIP3    H257557   6.404   1.488  14.807 -0.6422  0.2320 -0.6397
12048TIP3   OH257558   6.638   1.379   1.937  0.1493  0.5621 -0.1193
12048TIP3    H157559   6.567   1.315   1.930  1.5724 -1.0204 -0.2968
12048TIP3    H257560   6.593   1.463   1.938 -1.7332 -0.3967 -0.3954
12049TIP3   OH257561   0.100   5.850   5.444  0.5570  0.0858  0.5037
12049TIP3    H157562   0.194   5.866   5.453  1.3560 -1.7345 -3.6386
12049TIP3    H257563   0.087   5.763   5.483  0.4956  0.4923  1.4079
12050TIP3   OH257564   5.324   0.157   1.934 -0.6157 -0.2043  0.2131
12050TIP3    H157565   5.340   0.251   1.938  0.2034 -0.3728  0.8718
12050TIP3    H257566   5.230   0.150   1.916 -0.9881  0.7260  1.6876
12051TIP3   OH257567   3.294   1.555  14.616  0.4971 -0.2333 -0.5282
12051TIP3    H157568   3.298   1.641  14.658 -0.5714 -0.6573  0.4813
12051TIP3    H257569   3.247   1.570  14.535 -1.3769 -0.1776  0.5372
12052TIP3   OH257570   0.615   1.906  11.006  0.1303 -0.5110  0.0295
12052TIP3    H157571   0.656   1.877  11.087 -0.0929 -2.0499 -0.3945
12052TIP3    H257572   0.658   1.854  10.937 -0.2177  0.2193 -0.7526
12053TIP3   OH257573   0.729   3.443   2.350 -0.2102 -0.2772 -0.7200
12053TIP3    H157574   0.747   3.351   2.333  0.6491 -0.3988  0.7471
12053TIP3    H257575   0.796   3.491   2.301  1.2111 -0.5592  0.8871
12054TIP3   OH257576   4.409   3.828   6.284  0.1193 -0.2998 -0.4749
12054TIP3    H157577   4.367   3.743   6.270 -0.4168 -0.1119 -0.0342
12054TIP3    H257578   4.501   3.807   6.302  0.2064 -0.7144 -1.4185
12055TIP3   OH257579   5.250   3.483  11.964  0.1499 -0.0377  0.4699
12055TIP3    H157580   5.312   3.433  11.912 -0.0175 -0.4157  0.6315
12055TIP3    H257581   5.173   3.426  11.971  0.1036  0.0824  0.9713
12056TIP3   OH257582   2.403   0.948  13.020  0.2936  0.2048 -0.0048
12056TIP3    H157583   2.498   0.951  13.017  0.2958 -1.4205 -1.7423
12056TIP3    H257584   2.375   1.035  12.992  1.2309  0.0831 -1.3095
12057TIP3   OH257585   5.386   3.699   3.163  0.0419 -0.7732  0.0713
12057TIP3    H157586   5.342   3.771   3.207  0.8056  0.9199 -1.8934
12057TIP3    H257587   5.316   3.652   3.118 -0.3183 -0.6806  0.5330
12058TIP3   OH257588   6.353   4.865   0.283 -0.1644 -0.6717 -0.2927
12058TIP3    H157589   6.440   4.900   0.266  0.0933  0.5846  3.2606
12058TIP3    H257590   6.294   4.923   0.236  0.6874  0.7562  0.3934
12059TIP3   OH257591   4.381   0.418   5.883 -0.3133 -0.0628  0.3307
12059TIP3    H157592   4.474   0.396   5.878 -0.6787 -2.0126  1.5770
12059TIP3    H257593   4.351   0.375   5.963 -2.3804  0.2171 -0.2822
12060TIP3   OH257594   3.611   4.228   2.582  0.2525 -0.4590  0.4075
12060TIP3    H157595   3.671   4.170   2.534 -0.2391  0.4368 -1.3170
12060TIP3    H257596   3.654   4.241   2.666  1.3290 -1.7479  0.0849
12061TIP3   OH257597   0.571   2.951  11.166  0.0897  0.1138 -0.1502
12061TIP3    H157598   0.662   2.951  11.138  0.1320 -0.5156 -0.0171
12061TIP3    H257599   0.548   2.858  11.174 -0.1663  0.2702  1.0946
12062TIP3   OH257600   3.767   0.051  17.185 -0.3525  0.1638  0.0912
12062TIP3    H157601   3.746   0.024  17.274  1.7248  1.1865  0.9149
12062TIP3    H257602   3.807  -0.026  17.146 -1.7230 -0.4461 -0.1427
12063TIP3   OH257603   6.341   1.469   0.811 -0.1583 -0.1372 -0.3558
12063TIP3    H157604   6.436   1.458   0.810 -0.2397 -0.8734 -0.2573
12063TIP3    H257605   6.307   1.382   0.790 -0.8408 -0.3853  1.6622
12064TIP3   OH257606   4.006   3.374  15.648 -0.1871  0.0232  0.2184
12064TIP3    H157607   4.025   3.294  15.697 -0.8002  0.4503  1.1696
12064TIP3    H257608   4.079   3.383  15.586  0.1400 -0.9913  0.4599
12065TIP3   OH257609   1.341   3.694   5.153 -0.2379  0.0949  0.1830
12065TIP3    H157610   1.378   3.674   5.239 -0.7025 -0.3588  0.2758
12065TIP3    H257611   1.337   3.610   5.108 -0.7359  0.2108  0.0088
12066TIP3   OH257612   6.548   4.235  13.484  0.2045  0.0469  0.6244
12066TIP3    H157613   6.590   4.200  13.564  1.1000  0.7750  0.4824
12066TIP3    H257614   6.504   4.159  13.446 -0.6504 -0.2025  2.0749
12067TIP3   OH257615   0.121   0.294   1.954 -0.5839 -0.0227  0.3206
12067TIP3    H157616   0.076   0.357   1.897  1.2551  1.6542  0.6875
12067TIP3    H257617   0.109   0.328   2.042  1.0965  0.2685  0.4518
12068TIP3   OH257618   4.289   2.082   5.289 -0.3177 -0.2987  0.1859
12068TIP3    H157619   4.342   2.007   5.316  1.0184  0.9377  1.0516
12068TIP3    H257620   4.298   2.085   5.194 -0.8888 -1.5911  0.0764
12069TIP3   OH257621   2.822   3.125   1.589  0.3423  0.5660 -0.1147
12069TIP3    H157622   2.770   3.199   1.558 -0.4195 -0.0119 -0.2172
12069TIP3    H257623   2.776   3.047   1.556  0.1815 -0.0167  1.4386
12070TIP3   OH257624   2.570   1.180  15.587  0.6650  0.2658 -0.5734
12070TIP3    H157625   2.565   1.248  15.521 -1.0672 -1.5060 -2.3250
12070TIP3    H257626   2.541   1.100  15.543 -2.7427 -0.5632  2.8764
12071TIP3   OH257627   2.822   4.163   2.231  0.3836  0.6128  0.1489
12071TIP3    H157628   2.915   4.142   2.242  0.4254  0.8917  0.3152
12071TIP3    H257629   2.793   4.104   2.161  0.6871  0.5306  0.0905
12072TIP3   OH257630   6.331   3.606   5.344 -0.1814  0.1171  0.5071
12072TIP3    H157631   6.324   3.525   5.395 -1.6888  1.3165  2.2959
12072TIP3    H257632   6.348   3.674   5.410  0.3426  1.3583 -0.8883
12073TIP3   OH257633   4.559   1.607  15.915 -0.5677  0.5676  0.1605
12073TIP3    H157634   4.474   1.570  15.890 -0.4917  1.0947 -0.8924
12073TIP3    H257635   4.591   1.649  15.835  2.3067 -2.6545 -0.5125
12074TIP3   OH257636   2.133   2.897   2.179  0.1446  0.3887 -0.0696
12074TIP3    H157637   2.217   2.940   2.193 -1.0156  3.0595 -0.9041
12074TIP3    H257638   2.085   2.909   2.261  0.1384 -0.1431  0.0106
12075TIP3   OH257639   5.873   3.774   4.350 -0.4155  0.1988 -0.3434
12075TIP3    H157640   5.950   3.758   4.296  0.4830  0.1234  0.9538
12075TIP3    H257641   5.814   3.824   4.294  0.2853 -0.3430 -1.5711
12076TIP3   OH257642   5.429   4.242   3.881  0.2298  0.1757 -0.1157
12076TIP3    H157643   5.341   4.204   3.894  0.7779 -0.9342  0.4360
12076TIP3    H257644   5.414   4.336   3.877 -0.8580  0.0711  1.1774
12077TIP3   OH257645   3.366   3.677   1.455 -0.3714  0.2550  0.0185
12077TIP3    H157646   3.399   3.753   1.407  0.6243  0.3263  0.7938
12077TIP3    H257647   3.275   3.669   1.427  0.3398 -0.0274 -2.2495
12078TIP3   OH257648   5.619   0.952  13.103 -0.2802  0.5544 -0.5131
12078TIP3    H157649   5.537   0.957  13.151  0.2881 -0.2967  0.5598
12078TIP3    H257650   5.628   1.038  13.061 -1.5198  0.7749 -0.3360
12079TIP3   OH257651   0.954   5.225  12.155  0.2402 -0.1519  0.4792
12079TIP3    H157652   0.976   5.135  12.180  0.3167 -0.3966 -0.4751
12079TIP3    H257653   0.988   5.235  12.067 -2.0136 -0.0281 -0.4136
12080TIP3   OH257654   5.611   2.736   1.702 -0.2068 -0.7823  0.4856
12080TIP3    H157655   5.532   2.789   1.718 -0.5573 -1.6324  1.6589
12080TIP3    H257656   5.582   2.646   1.714 -0.1658 -1.4673 -3.8025
12081TIP3   OH257657   3.357   0.799   2.438  0.0541  0.4187  0.3141
12081TIP3    H157658   3.367   0.891   2.463 -0.5769  0.4802  0.3405
12081TIP3    H257659   3.269   0.793   2.402  0.0729 -0.1909  0.3619
12082TIP3   OH257660   0.982   0.513  14.363  1.3572  0.1844  0.3761
12082TIP3    H157661   0.942   0.591  14.324 -0.4215 -0.7926  0.1837
12082TIP3    H257662   0.971   0.526  14.458 -1.2899 -0.9940  0.2751
12083TIP3   OH257663   0.273   6.694   6.093  0.1013 -0.0709  0.2411
12083TIP3    H157664   0.342   6.642   6.135  0.5541  0.0270 -0.3859
12083TIP3    H257665   0.232   6.634   6.031  1.6807  0.7660 -1.6546
12084TIP3   OH257666   0.977   4.820  11.623 -0.3651 -0.5010  0.5786
12084TIP3    H157667   0.940   4.904  11.650  1.0866 -0.3742  2.3510
12084TIP3    H257668   1.055   4.843  11.572 -1.3237 -0.7760 -1.0369
12085TIP3   OH257669   2.880   0.711   0.459  0.1149 -0.1392  0.3467
12085TIP3    H157670   2.819   0.667   0.399 -0.1682  2.5931 -1.4537
12085TIP3    H257671   2.952   0.740   0.403  0.1317  1.9792  1.4392
12086TIP3   OH257672   3.122   1.966  16.178 -0.1374  0.4751  0.0404
12086TIP3    H157673   3.173   2.043  16.202 -0.8172  0.2350  2.4072
12086TIP3    H257674   3.031   1.994  16.190 -0.3523 -1.0793  2.2638
12087TIP3   OH257675   2.448   4.016  14.765 -1.3107  0.0971  0.0870
12087TIP3    H157676   2.391   3.941  14.749 -0.3307 -1.0739  1.9390
12087TIP3    H257677   2.428   4.044  14.854 -0.2019  0.7369  0.1576
12088TIP3   OH257678   5.638   0.095   1.419  0.0740 -0.0186  0.2613
12088TIP3    H157679   5.578   0.132   1.483  0.3091 -1.5053  1.3658
12088TIP3    H257680   5.712   0.157   1.417 -0.6608  0.8646  0.2342
12089TIP3   OH257681   6.010   4.176   1.160  0.4184 -0.1378  0.2658
12089TIP3    H157682   6.104   4.188   1.173  0.2844  0.8154  0.3718
12089TIP3    H257683   5.983   4.252   1.109 -0.5154  0.2153  1.2645
12090TIP3   OH257684   5.578   1.749   2.422  0.1305 -0.1057  0.3094
12090TIP3    H157685   5.534   1.738   2.338  0.6873 -1.2940  0.1676
12090TIP3    H257686   5.663   1.707   2.411  0.9042  1.2702  0.9160
12091TIP3   OH257687   1.688   6.480   2.928 -0.2731 -0.4763 -0.0463
12091TIP3    H157688   1.737   6.511   2.852  0.3544  0.4971  0.7475
12091TIP3    H257689   1.677   6.557   2.983 -0.6299 -1.1942  0.9036
12092TIP3   OH257690   4.181   3.590   5.429  0.2416  0.5987 -0.3239
12092TIP3    H157691   4.102   3.644   5.438  0.2824  0.4720  0.7796
12092TIP3    H257692   4.147   3.501   5.413  0.1752  0.9445 -2.2791
12093TIP3   OH257693   0.718   2.353   0.658  0.3383  0.0433  1.1284
12093TIP3    H157694   0.688   2.412   0.588 -1.7027  0.8929  2.6445
12093TIP3    H257695   0.646   2.290   0.668  1.4568 -1.2508  1.1759
12094TIP3   OH257696   1.201   2.053  15.175 -0.1188 -0.1104  0.0304
12094TIP3    H157697   1.271   2.118  15.162  0.5405 -0.9939 -0.9097
12094TIP3    H257698   1.191   2.011  15.090 -1.3031 -0.4968  0.3478
12095TIP3   OH257699   3.795   5.306   5.771 -0.0593  0.5722 -0.3404
12095TIP3    H157700   3.789   5.270   5.683 -1.4031 -0.8689  0.3141
12095TIP3    H257701   3.859   5.377   5.764 -2.8917  2.9725 -3.2871
12096TIP3   OH257702   2.548   3.402   1.873  0.3327  0.7498 -0.3398
12096TIP3    H157703   2.620   3.437   1.821 -0.1129 -0.5873 -1.8688
12096TIP3    H257704   2.511   3.332   1.820 -1.3114  0.5911  0.9694
12097TIP3   OH257705   0.773   1.286  17.229 -0.3629 -0.2399 -0.7245
12097TIP3    H157706   0.771   1.258  17.320  2.1043  3.7560  0.6729
12097TIP3    H257707   0.684   1.316  17.210 -0.7497 -0.5888  0.5168
12098TIP3   OH257708   6.729   3.210   0.958 -0.0427  0.3833 -0.0420
12098TIP3    H157709   6.698   3.161   0.881 -0.8655 -0.9855  1.1289
12098TIP3    H257710   6.652   3.257   0.989  0.2764  0.8932 -0.0140
12099TIP3   OH257711   5.882   1.064  14.092 -0.1071  0.3598  0.5432
12099TIP3    H157712   5.892   0.969  14.097  0.3296  0.3930  0.2296
12099TIP3    H257713   5.971   1.098  14.095 -0.3012  0.7952  1.4707
12100TIP3   OH257714   1.203   6.310   4.106  0.2360  0.4382  0.4716
12100TIP3    H157715   1.209   6.263   4.022 -1.2768 -0.1494  0.6725
12100TIP3    H257716   1.264   6.265   4.164  1.4807  1.0004 -0.3698
12101TIP3   OH257717   2.556   5.193  13.953  0.1094  0.1202 -0.2414
12101TIP3    H157718   2.511   5.176  13.870 -1.1536  2.4722 -0.1061
12101TIP3    H257719   2.629   5.250  13.929 -0.3661  0.9542  0.2756
12102TIP3   OH257720   2.076   2.398   2.147  0.1585  0.1514  0.0782
12102TIP3    H157721   2.084   2.331   2.079  2.1938 -1.4362  1.8191
12102TIP3    H257722   1.991   2.379   2.188  1.3668 -2.3827  1.5382
12103TIP3   OH257723   3.386   5.264   0.976 -0.3303 -0.0215  0.3110
12103TIP3    H157724   3.354   5.337   0.924 -1.2326 -0.3301  0.4223
12103TIP3    H257725   3.374   5.291   1.067 -0.3361 -0.1604  0.3526
12104TIP3   OH257726   0.145   4.954   1.455 -0.1533  0.3665  0.0090
12104TIP3    H157727   0.182   5.042   1.462 -3.9224  1.9542  1.3206
12104TIP3    H257728   0.146   4.935   1.361  1.7905  1.2988 -0.1732
12105TIP3   OH257729   0.531   2.970   2.325 -0.1008  0.3861 -0.1529
12105TIP3    H157730   0.520   3.021   2.245  2.2003 -0.0960 -0.8196
12105TIP3    H257731   0.442   2.960   2.360 -0.8523  2.7154 -1.3072
12106TIP3   OH257732   3.015   3.022   1.949 -0.1165 -0.2115  0.4420
12106TIP3    H157733   2.983   2.932   1.946  0.0181 -0.2895  1.1930
12106TIP3    H257734   2.936   3.076   1.939 -0.1334 -0.4112 -0.5239
12107TIP3   OH257735   2.222   0.279  12.934  0.0996 -0.3880 -0.0556
12107TIP3    H157736   2.311   0.279  12.899  0.2224 -1.3836  0.2412
12107TIP3    H257737   2.207   0.370  12.962  0.7521 -0.0543 -0.7789
12108TIP3   OH257738   1.148   1.361   1.728  0.2110  0.0887 -0.3427
12108TIP3    H157739   1.190   1.445   1.710  2.0201 -0.7947 -0.3222
12108TIP3    H257740   1.126   1.326   1.642 -0.0356  0.3157 -0.3740
12109TIP3   OH257741   1.616   3.730  16.063  0.0394 -0.3492 -0.2895
12109TIP3    H157742   1.550   3.799  16.061  1.0969  0.7016  0.0309
12109TIP3    H257743   1.639   3.722  16.155  0.4905 -0.5628 -0.4222
12110TIP3   OH257744   3.163   2.489   2.536 -0.4328  0.5352 -0.1115
12110TIP3    H157745   3.081   2.528   2.506 -0.7409 -1.4556 -1.9982
12110TIP3    H257746   3.225   2.507   2.465  0.9378  2.4361  1.5094
12111TIP3   OH257747   0.207   1.245  12.024 -0.7445 -0.0986  0.5544
12111TIP3    H157748   0.141   1.176  12.031  0.1658 -1.1275 -0.8491
12111TIP3    H257749   0.180   1.295  11.948  0.9926 -1.5128 -1.0186
12112TIP3   OH257750   0.433   2.557   2.766 -0.8622  0.0196  0.4339
12112TIP3    H157751   0.426   2.510   2.849  1.5216 -1.7842 -0.3394
12112TIP3    H257752   0.506   2.617   2.778  1.3068 -2.2098 -1.2284
12113TIP3   OH257753   0.964   3.337  16.655  0.5824 -0.1532  0.4315
12113TIP3    H157754   0.960   3.431  16.644  2.3422 -0.0986  0.0744
12113TIP3    H257755   0.994   3.304  16.570  0.1812 -1.0137  0.6167
12114TIP3   OH257756   3.213   3.891  15.781  0.5012 -0.1707  0.6224
12114TIP3    H157757   3.190   3.813  15.730 -0.0080  1.4547 -1.7108
12114TIP3    H257758   3.129   3.919  15.819  0.6451 -0.6384  1.2840
12115TIP3   OH257759   4.938   5.463   5.649  0.8295 -0.2367 -0.0885
12115TIP3    H157760   4.906   5.457   5.739 -0.8851  1.4741 -0.5437
12115TIP3    H257761   4.860   5.453   5.595  1.5842  0.4192 -1.3340
12116TIP3   OH257762   0.324   4.387   3.929 -0.2329  0.6203 -0.3182
12116TIP3    H157763   0.354   4.430   3.849  0.0155 -2.8507 -2.2200
12116TIP3    H257764   0.228   4.394   3.925 -0.4023 -2.1014 -2.5426
12117TIP3   OH257765   1.962   3.058  16.154 -0.0224  0.2880 -0.2142
12117TIP3    H157766   1.882   3.112  16.153 -2.7536 -3.4033  3.2190
12117TIP3    H257767   1.960   3.012  16.071 -2.3461 -0.8599  0.4341
12118TIP3   OH257768   1.190   0.308   4.730  0.3799 -0.2893  0.1832
12118TIP3    H157769   1.148   0.293   4.814 -0.0214 -1.2295 -0.1757
12118TIP3    H257770   1.119   0.334   4.671  0.3157 -1.6126 -0.3543
12119TIP3   OH257771   2.579   2.655   2.425 -0.2873  0.0689 -0.1733
12119TIP3    H157772   2.662   2.651   2.378 -0.1826 -1.0234  0.0834
12119TIP3    H257773   2.554   2.747   2.423 -0.5695 -0.0436 -2.8370
12120TIP3   OH257774   5.387   0.820   3.192 -0.5501  0.4035  0.3693
12120TIP3    H157775   5.452   0.751   3.199 -1.2385 -0.0801  2.6371
12120TIP3    H257776   5.329   0.791   3.122 -0.1756 -0.7732  0.5285
12121TIP3   OH257777   2.492   3.900  16.654  0.1211  0.0811 -0.1557
12121TIP3    H157778   2.473   3.992  16.636  2.1456  0.1831 -1.9118
12121TIP3    H257779   2.411   3.854  16.631  0.4622  0.9629 -3.4452
12122TIP3   OH257780   1.445   1.559  14.162 -0.6396 -0.2194 -0.6328
12122TIP3    H157781   1.392   1.626  14.120  1.1200  0.7765 -1.3120
12122TIP3    H257782   1.488   1.605  14.234 -0.4323 -0.9432 -0.2910
12123TIP3   OH257783   5.955   1.452  12.237  0.1916  0.2124 -0.0148
12123TIP3    H157784   5.970   1.383  12.172 -0.2855  0.2339 -0.1462
12123TIP3    H257785   5.867   1.484  12.218  0.5406  1.0849 -0.1658
12124TIP3   OH257786   2.206   6.410  16.948 -0.2913  0.3595  0.7779
12124TIP3    H157787   2.157   6.358  17.012  2.0601 -2.6215  0.2330
12124TIP3    H257788   2.297   6.405  16.977  0.5978  0.2529 -1.9343
12125TIP3   OH257789   4.128   4.238   4.903 -0.0584 -0.3480 -0.2119
12125TIP3    H157790   4.212   4.201   4.928  1.0725  1.8686 -0.6221
12125TIP3    H257791   4.072   4.224   4.980  1.0581 -0.6653  0.5452
12126TIP3   OH257792   2.363   5.671  10.806  0.0889  0.1119 -0.0664
12126TIP3    H157793   2.399   5.727  10.738  0.8814 -0.5602 -0.2050
12126TIP3    H257794   2.337   5.591  10.761  0.6902 -0.3661  0.4289
12127TIP3   OH257795   0.439   5.078   6.516 -0.3801 -0.3365 -0.0266
12127TIP3    H157796   0.528   5.114   6.514 -1.1112  1.4621 -0.8849
12127TIP3    H257797   0.452   4.983   6.507  1.4458 -0.0958 -0.2017
12128TIP3   OH257798   2.315   6.423   0.804 -0.5324  0.1521 -0.0825
12128TIP3    H157799   2.306   6.392   0.714 -0.2448  0.5108 -0.2365
12128TIP3    H257800   2.225   6.442   0.832 -0.5080  1.3961 -0.7839
12129TIP3   OH257801   4.952   5.156   0.723 -0.1758 -0.0399 -0.1303
12129TIP3    H157802   5.011   5.134   0.795  1.3887 -0.8917 -1.6378
12129TIP3    H257803   4.974   5.246   0.701 -1.3456  0.5570  1.0887
12130TIP3   OH257804   6.747   0.337   3.496 -0.5273  0.1060  1.1000
12130TIP3    H157805   6.819   0.385   3.455  0.5508 -2.1585  0.2575
12130TIP3    H257806   6.790   0.277   3.557 -1.7443 -0.6967  1.1846
12131TIP3   OH257807   4.772   4.871   4.746  0.5605  0.1243 -0.3709
12131TIP3    H157808   4.738   4.808   4.683  0.6168 -1.1067  0.8037
12131TIP3    H257809   4.772   4.955   4.700 -1.4957 -0.3601 -1.2760
12132TIP3   OH257810   0.715   3.234   6.090 -0.0027 -0.0202 -0.5289
12132TIP3    H157811   0.662   3.306   6.123 -0.1040 -1.1565  1.8862
12132TIP3    H257812   0.655   3.160   6.083  0.7499 -0.6934 -0.0176
12133TIP3   OH257813   5.971   3.934   3.507 -0.1132 -0.5740 -0.0585
12133TIP3    H157814   6.014   3.874   3.569  0.3006  0.4890  0.6925
12133TIP3    H257815   6.042   3.964   3.450  0.0889  0.9079  0.9576
12134TIP3   OH257816   0.811   5.893   3.708  0.5016  0.2289  0.2190
12134TIP3    H157817   0.841   5.932   3.791  0.3517  2.1640 -0.6133
12134TIP3    H257818   0.729   5.938   3.689 -0.2717 -1.3248 -0.2091
12135TIP3   OH257819   3.327   3.923   2.296 -0.0409 -0.2203  0.0689
12135TIP3    H157820   3.234   3.912   2.274 -0.1592 -0.5426  0.7050
12135TIP3    H257821   3.360   3.986   2.232 -0.5271 -0.6552 -0.6144
12136TIP3   OH257822   0.677   0.641  15.494 -0.0719  0.3954 -0.1365
12136TIP3    H157823   0.734   0.670  15.564 -0.9571 -1.2190  1.3043
12136TIP3    H257824   0.730   0.647  15.415  0.9865  2.0895  0.6896
12137TIP3   OH257825   0.390   1.212   5.187  0.3405 -0.1251  0.0940
12137TIP3    H157826   0.340   1.149   5.135  0.5932 -0.2154 -0.0433
12137TIP3    H257827   0.481   1.192   5.167  0.4732 -0.8504  1.4030
12138TIP3   OH257828   2.486   3.287  14.459  0.1285  0.0345  0.1638
12138TIP3    H157829   2.467   3.193  14.458 -0.1778  0.0955  0.0604
12138TIP3    H257830   2.565   3.296  14.407 -0.7422  0.0218 -1.1861
12139TIP3   OH257831   2.252   3.118  12.941  0.1456 -0.3657 -0.3878
12139TIP3    H157832   2.179   3.057  12.957 -2.2469  2.3654 -0.4828
12139TIP3    H257833   2.249   3.135  12.847 -0.2873  1.1991 -0.0974
12140TIP3   OH257834   0.737   2.068  14.586  0.1815  0.0075  0.1177
12140TIP3    H157835   0.799   2.140  14.603  1.4079 -0.9380 -0.2302
12140TIP3    H257836   0.653   2.100  14.618  1.0211  0.9940  1.3727
12141TIP3   OH257837   1.939   0.174  11.209 -0.5379  0.2670  0.2660
12141TIP3    H157838   1.996   0.243  11.177  0.0867 -0.5945 -0.5039
12141TIP3    H257839   1.992   0.095  11.206  0.0385  0.3444  4.8425
12142TIP3   OH257840   4.615   2.334  13.339 -0.7318  0.1958  0.7640
12142TIP3    H157841   4.617   2.427  13.362 -0.9534  0.7314 -1.2918
12142TIP3    H257842   4.595   2.333  13.246 -0.7817 -1.9306  0.7802
12143TIP3   OH257843   6.044   4.313   4.434  0.1617 -0.1615  0.2047
12143TIP3    H157844   5.988   4.315   4.356 -0.3068  0.3550  0.5485
12143TIP3    H257845   5.983   4.318   4.508  0.5222 -2.0324  0.6359
12144TIP3   OH257846   6.165   1.596   2.419 -0.1281  0.0225  0.5790
12144TIP3    H157847   6.107   1.529   2.456  0.9587 -0.7660  0.8705
12144TIP3    H257848   6.244   1.592   2.473  1.3929 -0.9810 -1.6569
12145TIP3   OH257849   2.330   2.671   1.846 -0.3984  0.3996 -0.7270
12145TIP3    H157850   2.384   2.656   1.769  0.5902 -0.0267  0.0357
12145TIP3    H257851   2.386   2.722   1.905 -0.2722 -1.3397  0.6979
12146TIP3   OH257852   0.913   1.850   4.762 -0.6312  0.6667  0.5937
12146TIP3    H157853   0.855   1.804   4.701 -0.2525  1.6580 -0.5256
12146TIP3    H257854   0.854   1.899   4.819 -1.0414 -1.1851  1.8096
12147TIP3   OH257855   6.507   3.976   5.935  0.2214 -0.1474  0.0602
12147TIP3    H157856   6.459   3.942   6.010  0.4542 -0.9037 -0.1313
12147TIP3    H257857   6.444   3.974   5.863  0.0849  0.3073  0.1622
12148TIP3   OH257858   2.078   0.627   1.147 -0.0647 -0.1642 -0.1998
12148TIP3    H157859   2.026   0.598   1.222  0.0467 -0.9994 -0.4444
12148TIP3    H257860   2.165   0.591   1.162  0.2431  0.5776 -0.1850
12149TIP3   OH257861   2.208   1.310  14.586 -0.1905 -0.1112  0.0612
12149TIP3    H157862   2.224   1.217  14.574 -0.9701 -0.4081  1.1792
12149TIP3    H257863   2.116   1.321  14.562  0.3275  0.6784 -1.6446
12150TIP3   OH257864   3.553   3.113  15.777  0.0010 -0.7655 -0.5215
12150TIP3    H157865   3.593   3.183  15.828  0.5609 -1.1855 -0.3723
12150TIP3    H257866   3.600   3.112  15.694  0.9936 -1.9204  0.0430
12151TIP3   OH257867   6.466   3.463  16.533  0.1593 -1.1711 -0.0588
12151TIP3    H157868   6.533   3.489  16.597 -1.0820 -0.3176  0.9312
12151TIP3    H257869   6.417   3.393  16.576 -0.1922 -1.1300 -0.3815
12152TIP3   OH257870   1.939   0.478  14.337 -0.4673  0.6856  0.2198
12152TIP3    H157871   2.012   0.440  14.386 -0.7796  0.7748  0.7565
12152TIP3    H257872   1.864   0.469  14.395 -0.8092  0.9390 -0.1803
12153TIP3   OH257873   2.811   3.952   4.564 -0.5249 -0.3086  0.3392
12153TIP3    H157874   2.740   3.923   4.506 -1.9235  1.8057  0.9379
12153TIP3    H257875   2.864   4.011   4.509  0.4186 -1.3832  0.0812
12154TIP3   OH257876   6.615   3.453   6.009 -0.4960 -0.5334  0.2968
12154TIP3    H157877   6.597   3.463   6.103 -0.4749 -0.6981  0.3183
12154TIP3    H257878   6.693   3.507   5.994 -0.0795 -1.0723  0.5163
12155TIP3   OH257879   2.684   2.052   6.536 -0.0552 -0.3177  0.0410
12155TIP3    H157880   2.751   2.109   6.573 -0.6308  0.1009  0.4621
12155TIP3    H257881   2.639   2.106   6.471 -0.2847 -0.4435  0.0921
12156TIP3   OH257882   0.641   0.691   4.094 -0.0068  0.2105 -0.2533
12156TIP3    H157883   0.611   0.635   4.166  0.9368  0.5573  0.4316
12156TIP3    H257884   0.724   0.726   4.126 -0.8625  2.4508 -0.4380
12157TIP3   OH257885   4.487   1.465  17.122 -0.2892  0.5411 -0.0224
12157TIP3    H157886   4.519   1.377  17.140  1.7996  0.8577 -1.9287
12157TIP3    H257887   4.561   1.522  17.143 -1.1943  1.7385  0.0002
12158TIP3   OH257888   0.708   2.761  12.148 -0.5206  0.2412 -0.4084
12158TIP3    H157889   0.711   2.731  12.057  3.5694 -2.2556  0.4166
12158TIP3    H257890   0.659   2.693  12.195  1.7039 -1.0779  0.0613
12159TIP3   OH257891   3.597   2.944   2.238 -0.3657 -0.4426  0.6757
12159TIP3    H157892   3.509   2.938   2.276 -0.2379  1.0037  1.2038
12159TIP3    H257893   3.594   3.022   2.183  0.5309 -0.5157  0.5197
12160TIP3   OH257894   2.710   3.922   5.808  0.3572 -0.4681  0.4236
12160TIP3    H157895   2.737   3.992   5.748 -0.8984 -2.0925 -2.1411
12160TIP3    H257896   2.786   3.908   5.864  1.1772  1.8763 -0.0316
12161TIP3   OH257897   1.982   5.940   1.867 -0.2546 -0.4679 -0.3175
12161TIP3    H157898   1.962   5.963   1.777 -3.2304 -0.2881  0.3281
12161TIP3    H257899   1.901   5.901   1.900  0.6285 -0.1148  2.3816
12162TIP3   OH257900   2.486   5.438   3.335  0.1387 -0.6922  0.2371
12162TIP3    H157901   2.440   5.522   3.342  0.8829 -0.4443  2.4840
12162TIP3    H257902   2.421   5.373   3.365  0.8113 -0.4737  2.2352
12163TIP3   OH257903   3.872   2.809  14.076  1.0886  0.1573  0.0164
12163TIP3    H157904   3.945   2.753  14.102  2.0657  1.4454  0.0843
12163TIP3    H257905   3.842   2.774  13.992  2.2852  0.0957 -0.3838
12164TIP3   OH257906   5.600   6.247  13.474 -0.3951 -0.0342  0.3804
12164TIP3    H157907   5.632   6.255  13.564 -0.2332 -3.6495  0.7171
12164TIP3    H257908   5.505   6.249  13.482 -0.4143 -1.9631  0.8500
12165TIP3   OH257909   1.679   4.710   0.304 -0.3714 -0.2353  0.0707
12165TIP3    H157910   1.595   4.726   0.347  0.1350  2.6877  0.0762
12165TIP3    H257911   1.728   4.655   0.365 -1.4007  0.0426  1.1455
12166TIP3   OH257912   5.894   1.122   0.034 -0.3331  0.5555 -0.5568
12166TIP3    H157913   5.911   1.085  -0.052  2.5277 -0.1671  0.2754
12166TIP3    H257914   5.845   1.054   0.081 -0.0589  0.1046 -0.9233
12167TIP3   OH257915   4.683   0.977  17.014  0.1900  0.6728  0.6886
12167TIP3    H157916   4.764   0.939  17.046 -0.3326 -3.1851 -2.1854
12167TIP3    H257917   4.614   0.927  17.059 -0.5238  0.3704 -0.7089
12168TIP3   OH257918   0.657   2.127  11.861  0.0324 -0.1911  0.4381
12168TIP3    H157919   0.582   2.186  11.873  0.4685  0.7827 -1.4205
12168TIP3    H257920   0.660   2.112  11.766  1.5562 -1.0523  0.6152
12169TIP3   OH257921   3.928   3.470   1.182 -0.1739 -0.1872 -0.2459
12169TIP3    H157922   3.912   3.410   1.110 -0.2155 -0.7350  0.2199
12169TIP3    H257923   3.964   3.549   1.140 -0.0379 -0.5647 -0.8439
12170TIP3   OH257924   0.978   4.805   5.264  0.4948  0.5891 -0.7781
12170TIP3    H157925   1.029   4.881   5.290 -1.9067  1.8167  0.4789
12170TIP3    H257926   0.973   4.751   5.343  1.1123 -0.3053 -1.3232
12171TIP3   OH257927   4.815   3.542  13.281 -0.0274  0.3151  0.3864
12171TIP3    H157928   4.880   3.612  13.274 -2.0187  2.1393 -0.6415
12171TIP3    H257929   4.825   3.492  13.200  1.9094 -1.0806  1.4627
12172TIP3   OH257930   3.113   0.371   3.097 -0.1412 -0.6569  0.0354
12172TIP3    H157931   3.135   0.287   3.139  2.5993  0.5984  1.2484
12172TIP3    H257932   3.067   0.346   3.017 -1.1425 -3.2618  1.3559
12173TIP3   OH257933   1.258   1.108  15.061  0.4247  0.3471 -0.3227
12173TIP3    H157934   1.328   1.066  15.012 -0.2476  0.3778 -1.3183
12173TIP3    H257935   1.298   1.185  15.100  1.6370 -1.0888  1.3736
12174TIP3   OH257936   1.856   2.386   5.209  0.9625 -0.2688 -0.4590
12174TIP3    H157937   1.776   2.407   5.258 -0.3359 -0.3750 -2.4566
12174TIP3    H257938   1.864   2.291   5.218  0.3014 -0.3884 -1.0570
12175TIP3   OH257939   5.066   1.777   3.596  0.0349 -0.3213  0.4341
12175TIP3    H157940   5.134   1.825   3.549  0.0327 -1.9762 -1.2970
12175TIP3    H257941   5.102   1.690   3.610 -0.7655 -0.4692  1.7447
12176TIP3   OH257942   4.185   2.044   4.313 -0.5009 -0.3315 -0.1273
12176TIP3    H157943   4.178   1.998   4.397 -2.8624  1.4905  0.7342
12176TIP3    H257944   4.114   2.006   4.260  0.3357 -0.7532 -0.9550
12177TIP3   OH257945   0.652   0.285  11.977  0.1933 -0.1922 -0.6720
12177TIP3    H157946   0.652   0.378  11.957 -0.8371  0.0488  0.3941
12177TIP3    H257947   0.720   0.275  12.043  0.5393 -0.2598 -1.0345
12178TIP3   OH257948   0.761   1.703  13.009  0.6219 -0.3161 -0.5406
12178TIP3    H157949   0.706   1.763  13.059  3.1110  1.4704  0.1282
12178TIP3    H257950   0.784   1.752  12.930  1.9636 -0.7142 -0.4035
12179TIP3   OH257951   6.536   0.364   3.989 -0.2665  0.4430 -0.2023
12179TIP3    H157952   6.448   0.396   4.010  0.5636  0.7377  3.1365
12179TIP3    H257953   6.535   0.272   4.014  1.0005  0.9945  1.9873
12180TIP3   OH257954   4.019   4.030   3.905 -0.1812 -0.0607 -0.1425
12180TIP3    H157955   3.992   4.096   3.841 -2.6088 -0.1877  0.6795
12180TIP3    H257956   4.000   3.946   3.861  0.0871 -0.1663 -0.0531
12181TIP3   OH257957   1.644   1.379  16.156  0.5681 -0.1399  0.6111
12181TIP3    H157958   1.724   1.363  16.106  0.2311  0.7953 -0.2427
12181TIP3    H257959   1.581   1.316  16.122  1.0900 -1.2703  1.6835
12182TIP3   OH257960   2.390   3.885   0.053 -0.1189 -0.3508  0.0530
12182TIP3    H157961   2.384   3.880   0.148 -0.3793  2.0991  0.2045
12182TIP3    H257962   2.300   3.901   0.024 -0.0166 -0.9347 -0.6016
12183TIP3   OH257963   6.762   4.915  15.749  0.6291  0.2812 -0.6566
12183TIP3    H157964   6.767   4.834  15.800 -1.6350  0.8842  0.5827
12183TIP3    H257965   6.830   4.971  15.785  0.3615 -0.0531  0.3700
12184TIP3   OH257966   4.703   0.485  15.892  0.4906 -0.1662 -0.0909
12184TIP3    H157967   4.651   0.406  15.907  0.4069 -0.2386 -0.7780
12184TIP3    H257968   4.735   0.476  15.803  0.6173  0.5038 -0.1118
12185TIP3   OH257969   4.153   6.271  11.467 -0.2564 -0.1925  0.1763
12185TIP3    H157970   4.160   6.340  11.533 -1.2893 -2.0581  2.2974
12185TIP3    H257971   4.242   6.261  11.434  0.1610  1.2162  0.8218
12186TIP3   OH257972   6.516   3.594   3.497  0.1101 -0.0522  0.2831
12186TIP3    H157973   6.495   3.636   3.414  1.5215 -0.0571 -0.0843
12186TIP3    H257974   6.485   3.504   3.487  1.4418 -0.4172 -0.7417
12187TIP3   OH257975   3.192   2.307  17.212 -0.1562  0.0524 -0.1322
12187TIP3    H157976   3.217   2.373  17.276 -1.0096  0.3774 -0.1234
12187TIP3    H257977   3.269   2.296  17.157 -0.2873  1.7305 -0.6982
12188TIP3   OH257978   2.851   1.685   5.482 -0.0816 -0.4608  0.0398
12188TIP3    H157979   2.867   1.625   5.555  0.5073 -1.4597 -0.8916
12188TIP3    H257980   2.928   1.677   5.426  0.3316  1.7245  0.2516
12189TIP3   OH257981   2.424   2.955  17.069 -0.1184 -0.7919  0.4886
12189TIP3    H157982   2.374   2.874  17.060 -1.1572 -0.2457  1.1332
12189TIP3    H257983   2.360   3.018  17.104  0.6376  0.3357 -0.1471
12190TIP3   OH257984   3.257   3.006  11.757  0.1776 -0.2399 -0.9591
12190TIP3    H157985   3.298   3.039  11.677  1.7406 -0.7668 -0.3845
12190TIP3    H257986   3.329   2.993  11.818 -1.0032  0.1587  0.5546
12191TIP3   OH257987   5.456   2.123  11.932  0.2645  0.6716 -0.4681
12191TIP3    H157988   5.491   2.123  11.843  2.3678 -1.0202  0.3103
12191TIP3    H257989   5.428   2.033  11.947  2.8697  0.1668  1.6514
12192TIP3   OH257990   2.460   2.554  13.822  0.4771  0.4919 -0.5529
12192TIP3    H157991   2.517   2.497  13.874  0.0017 -0.5437 -1.1596
12192TIP3    H257992   2.375   2.549  13.867  0.1836 -0.0511 -1.1666
12193TIP3   OH257993   2.798   3.177  10.657  0.0645 -0.1831  0.4536
12193TIP3    H157994   2.888   3.192  10.687  0.0751  0.6393  0.0282
12193TIP3    H257995   2.773   3.258  10.613 -0.8848 -0.4086  0.5534
12194TIP3   OH257996   4.270   2.651  16.823  0.1140  0.0074 -0.4371
12194TIP3    H157997   4.175   2.651  16.815  0.0948 -0.0792 -0.1981
12194TIP3    H257998   4.301   2.628  16.735 -0.0469  1.6069 -0.9343
12195TIP3   OH257999   6.130   2.061   2.217 -0.3644  0.4409 -0.0781
12195TIP3    H158000   6.202   2.004   2.190 -1.2853 -0.8370  0.0991
12195TIP3    H258001   6.057   2.036   2.160 -0.8060  1.3794  0.0731
12196TIP3   OH258002   3.740   4.028   4.621 -0.0684 -0.5772  0.3219
12196TIP3    H158003   3.756   3.934   4.625  0.5902 -0.4934 -0.3108
12196TIP3    H258004   3.819   4.067   4.660 -0.3699 -0.2893  0.6477
12197TIP3   OH258005   0.418   4.282   1.043 -0.2174 -0.1894  0.0910
12197TIP3    H158006   0.442   4.325   0.962 -0.8002  0.7670  0.4184
12197TIP3    H258007   0.360   4.210   1.016 -5.7067  3.9585  0.0405
12198TIP3   OH258008   4.361   5.567   2.532 -0.1034  0.2445  0.1875
12198TIP3    H158009   4.451   5.538   2.522 -0.3289 -0.0458 -1.0717
12198TIP3    H258010   4.311   5.486   2.541 -0.5212  0.3026 -1.5229
12199TIP3   OH258011   3.032   0.430  12.307  0.8573 -0.2236 -0.0847
12199TIP3    H158012   2.990   0.405  12.224  0.4272 -3.2129  0.9655
12199TIP3    H258013   2.960   0.462  12.362  0.6892 -0.9120  0.0990
12200TIP3   OH258014   5.442   1.793  15.675 -0.2851  0.7488 -0.2219
12200TIP3    H158015   5.487   1.789  15.759 -0.0813  0.3634 -0.3469
12200TIP3    H258016   5.479   1.721  15.624 -0.0686  1.2803 -0.8159
12201TIP3   OH258017   2.900   0.325  12.984  0.3217  0.0394  0.1660
12201TIP3    H158018   2.832   0.298  13.047 -0.0505  1.0111  0.1873
12201TIP3    H258019   2.974   0.269  13.004 -0.5398 -1.1856  0.0089
12202TIP3   OH258020   6.441   0.394   1.686 -0.2504 -0.2595  0.2071
12202TIP3    H158021   6.521   0.447   1.682 -0.3927 -0.1171 -1.3244
12202TIP3    H258022   6.463   0.320   1.742  0.7831  0.0681  0.2416
12203TIP3   OH258023   1.276   1.714   3.158 -0.3923 -0.0031 -0.1973
12203TIP3    H158024   1.332   1.756   3.093 -1.2177  0.5258 -0.5767
12203TIP3    H258025   1.213   1.664   3.106  0.3098 -1.3643  0.2426
12204TIP3   OH258026   5.378   6.237   2.727  0.3824 -0.0686 -0.1341
12204TIP3    H158027   5.382   6.332   2.740 -0.4921  0.3897 -2.9234
12204TIP3    H258028   5.429   6.201   2.800  0.1473  2.4932  1.3685
12205TIP3   OH258029   5.978   5.094   5.179  0.1401 -0.1905 -0.6704
12205TIP3    H158030   5.984   5.023   5.115  0.6968 -1.6778  1.0024
12205TIP3    H258031   5.891   5.084   5.218 -0.0514  0.4834 -0.9188
12206TIP3   OH258032   5.899   0.449  15.752  0.0049 -0.0294  0.3378
12206TIP3    H158033   5.876   0.368  15.706  1.6221 -1.3860  1.8208
12206TIP3    H258034   5.815   0.486  15.779 -0.9786  0.7815 -3.5722
12207TIP3   OH258035   3.712   3.484   1.818 -0.0555 -0.1349 -0.0562
12207TIP3    H158036   3.713   3.521   1.730  0.3231  1.7645  0.7145
12207TIP3    H258037   3.766   3.405   1.811  1.1230  0.7418 -1.2326
12208TIP3   OH258038   4.868   5.929  12.823  0.1421  0.2016  0.1843
12208TIP3    H158039   4.836   5.839  12.818  0.6365  0.0248  0.1860
12208TIP3    H258040   4.843   5.958  12.911  2.5213 -0.9130  1.2772
12209TIP3   OH258041   2.121   1.436   1.660  0.0476  0.6399 -0.3156
12209TIP3    H158042   2.163   1.509   1.706 -0.6852 -0.1502  1.6307
12209TIP3    H258043   2.191   1.371   1.649  0.8950  1.8773 -2.7091
12210TIP3   OH258044   0.739   3.796   4.522 -0.2598  0.0857  0.1686
12210TIP3    H158045   0.825   3.760   4.542 -0.1740  0.3792  0.3169
12210TIP3    H258046   0.743   3.887   4.550 -0.9870 -0.1971  1.2181
12211TIP3   OH258047   6.154   2.941  11.686  0.1865 -0.1695  0.2174
12211TIP3    H158048   6.073   2.990  11.675 -0.3190 -0.7154  1.4183
12211TIP3    H258049   6.221   3.008  11.697  0.0170  0.2976 -1.4627
12212TIP3   OH258050   6.095   2.985  12.836 -1.0183  0.2560  0.1961
12212TIP3    H158051   6.024   3.047  12.822 -0.5499  0.5868 -0.7724
12212TIP3    H258052   6.151   2.995  12.758 -0.3363 -0.5547  0.5779
12213TIP3   OH258053   2.569   5.112  13.041  0.1572  0.0165 -0.3399
12213TIP3    H158054   2.540   5.198  13.012 -0.1611  0.3240  0.8328
12213TIP3    H258055   2.645   5.093  12.987  0.2437  1.0450 -0.6023
12214TIP3   OH258056   4.976   0.005  14.987 -0.1547  0.2601  0.2751
12214TIP3    H158057   5.049  -0.050  14.957  0.2380  1.1736 -0.4622
12214TIP3    H258058   4.986   0.008  15.082 -0.5065 -1.4096  0.3760
12215TIP3   OH258059   6.171   6.707   3.427 -0.7768 -0.1466  0.4838
12215TIP3    H158060   6.261   6.732   3.404 -0.9865 -0.0574 -0.2460
12215TIP3    H258061   6.158   6.743   3.515  0.4703 -1.5802  1.2884
12216TIP3   OH258062   1.642   1.082   3.283 -0.2566  0.8140 -0.6110
12216TIP3    H158063   1.638   0.988   3.300 -0.8312  1.0610  0.6302
12216TIP3    H258064   1.733   1.097   3.255 -0.1131 -0.0715 -0.6369
12217TIP3   OH258065   4.452   5.472  14.785 -0.7063  0.1188  0.6875
12217TIP3    H158066   4.404   5.555  14.789 -1.1947 -0.0839 -0.7273
12217TIP3    H258067   4.533   5.493  14.738 -1.5017 -0.5056 -0.9964
12218TIP3   OH258068   0.196   0.987  12.618  0.1145  0.0299  0.4621
12218TIP3    H158069   0.115   0.996  12.568 -0.1018 -0.1284  0.7892
12218TIP3    H258070   0.207   0.893  12.630 -0.9088  0.1520  2.5051
12219TIP3   OH258071   4.255   1.009   1.351  0.4728 -0.0524  0.5527
12219TIP3    H158072   4.206   0.946   1.297  0.9573 -1.1876  1.4080
12219TIP3    H258073   4.249   0.973   1.440  2.5177  0.0014  0.7235
12220TIP3   OH258074   2.286   3.329  11.251  0.0964 -0.1803  0.3125
12220TIP3    H158075   2.306   3.405  11.197  0.9870 -0.9099 -0.3913
12220TIP3    H258076   2.240   3.269  11.192  0.6530 -0.7800  0.4842
12221TIP3   OH258077   5.649   4.110   1.472 -0.0126  0.7557  0.5334
12221TIP3    H158078   5.620   4.120   1.382  0.4216 -0.2157  0.2746
12221TIP3    H258079   5.572   4.128   1.525 -0.2829  1.2705 -0.0364
12222TIP3   OH258080   1.655   1.229   5.183 -0.8704 -0.1234 -0.0954
12222TIP3    H158081   1.604   1.263   5.109  0.2805  2.0967  0.0742
12222TIP3    H258082   1.678   1.140   5.157 -0.3303  0.6661 -2.5099
12223TIP3   OH258083   3.719   5.740   4.927 -0.3297 -0.0470  0.2803
12223TIP3    H158084   3.678   5.753   5.012  0.2280  2.6696  0.1780
12223TIP3    H258085   3.713   5.646   4.911  0.7578 -0.7877  3.9008
12224TIP3   OH258086   1.454   3.029   5.846  0.1693  0.5194  0.3392
12224TIP3    H158087   1.396   3.081   5.791  0.6415  1.7367  0.9748
12224TIP3    H258088   1.456   3.074   5.930  0.8536 -0.3349  0.8026
12225TIP3   OH258089   4.349   0.210  15.491 -0.4031  0.4750 -0.0975
12225TIP3    H158090   4.367   0.294  15.449 -1.1984  0.1426 -1.1136
12225TIP3    H258091   4.256   0.194  15.473 -0.5563 -0.0457  1.1262
12226TIP3   OH258092   3.886   5.402  13.980  0.3068  0.4870 -0.8010
12226TIP3    H158093   3.867   5.336  14.047  1.8941 -0.1821 -0.9820
12226TIP3    H258094   3.844   5.368  13.901 -0.9271  0.9000 -0.3368
12227TIP3   OH258095   2.281   5.939   2.742  0.0030 -0.0476 -0.6052
12227TIP3    H158096   2.194   5.971   2.766 -0.1430 -0.4724 -0.5697
12227TIP3    H258097   2.267   5.891   2.660  0.0011 -1.1532  0.0370
12228TIP3   OH258098   5.010   0.410   2.003  0.4838 -0.0665 -0.0215
12228TIP3    H158099   4.915   0.412   2.007  0.5361  1.1166  1.4894
12228TIP3    H258100   5.034   0.326   2.042  0.1100  0.8425  2.2898
12229TIP3   OH258101   6.782   3.470  11.016 -0.3200 -0.2052  0.2479
12229TIP3    H158102   6.786   3.515  10.931 -2.7448 -1.1661 -0.4108
12229TIP3    H258103   6.855   3.507  11.065 -0.2467  2.0612 -1.4468
12230TIP3   OH258104   5.761   1.652   3.017  0.3193 -0.4639  0.0283
12230TIP3    H158105   5.810   1.703   3.081 -0.3191 -0.3377  0.4273
12230TIP3    H258106   5.770   1.700   2.935 -1.5590  1.1373  0.7205
12231TIP3   OH258107   4.237   0.104   1.019  0.0792  0.0800 -0.0986
12231TIP3    H158108   4.180   0.069   1.088  2.3759  0.8164  2.2576
12231TIP3    H258109   4.177   0.131   0.950 -2.3052 -0.7432  1.5779
12232TIP3   OH258110   0.459   5.253  13.020 -0.0278 -0.5453 -0.2016
12232TIP3    H158111   0.410   5.198  13.081  0.2413 -0.8142 -0.2240
12232TIP3    H258112   0.425   5.341  13.034 -0.4726 -0.7186 -0.1722
12233TIP3   OH258113   0.419   4.225   0.132  0.6534 -0.0622 -0.2405
12233TIP3    H158114   0.379   4.201   0.049 -1.0201 -1.4933  0.9315
12233TIP3    H258115   0.425   4.320   0.129 -0.1030 -0.0455 -1.6751
12234TIP3   OH258116   5.819   0.372   5.231 -0.2805 -0.0897  0.8194
12234TIP3    H158117   5.871   0.450   5.210  1.0983 -1.0647  0.5071
12234TIP3    H258118   5.865   0.301   5.186 -0.2129 -1.4386  2.9343
12235TIP3   OH258119   1.768   2.317  12.124 -0.5765 -0.6920 -0.0473
12235TIP3    H158120   1.778   2.412  12.133  0.3628 -0.5773 -2.0327
12235TIP3    H258121   1.820   2.281  12.196 -0.3319  0.2867  0.2840
12236TIP3   OH258122   6.279   0.765   2.808  0.0313 -0.1586 -0.0727
12236TIP3    H158123   6.200   0.747   2.756  0.3268  1.7995 -1.2446
12236TIP3    H258124   6.325   0.681   2.811 -0.3034 -0.4728 -2.4856
12237TIP3   OH258125   2.256   3.060   3.709 -0.4352  0.2549 -0.2547
12237TIP3    H158126   2.320   3.114   3.755  0.8949 -2.1469  0.7281
12237TIP3    H258127   2.257   3.094   3.619  1.7116  0.6498 -0.0964
12238TIP3   OH258128   3.809   4.909   0.257 -0.0542  0.0419  0.9411
12238TIP3    H158129   3.892   4.878   0.220 -1.5201 -0.9894 -1.5793
12238TIP3    H258130   3.833   4.987   0.308  2.4777 -0.3933  0.4822
12239TIP3   OH258131   4.579   1.054   3.434  0.2556 -0.6721 -0.1990
12239TIP3    H158132   4.649   1.079   3.495 -0.2224 -0.0884  0.1131
12239TIP3    H258133   4.532   1.136   3.417  0.0606 -0.9341 -0.9405
12240TIP3   OH258134   5.489   1.208  15.175 -0.4004  0.5932  0.3023
12240TIP3    H158135   5.499   1.119  15.210  0.3963  1.1408  1.4947
12240TIP3    H258136   5.460   1.194  15.085 -0.4764 -0.8776  0.5307
12241TIP3   OH258137   6.572   0.580  14.850  0.5536  0.0242 -0.1788
12241TIP3    H158138   6.495   0.527  14.832  0.8913 -0.2848 -0.7115
12241TIP3    H258139   6.644   0.535  14.807  1.2095 -0.2053  1.1368
12242TIP3   OH258140   0.108   2.795   2.852  0.1039 -0.2326  0.5672
12242TIP3    H158141   0.017   2.823   2.858 -0.0460 -0.3126 -1.2613
12242TIP3    H258142   0.103   2.706   2.818  0.7885 -0.9807  2.3305
12243TIP3   OH258143   4.088   1.814  15.872 -0.5270 -0.3161 -0.1396
12243TIP3    H158144   4.119   1.820  15.963 -1.9242  1.1477  0.2607
12243TIP3    H258145   4.154   1.861  15.821 -0.1755 -0.4090  0.2243
12244TIP3   OH258146   5.413   2.796  17.124 -0.0398  0.0515  0.4089
12244TIP3    H158147   5.340   2.834  17.076  0.9026  0.7216 -0.5188
12244TIP3    H258148   5.376   2.770  17.208 -1.9520 -2.1674 -1.0734
12245TIP3   OH258149   2.954   5.548   5.297 -0.0681  0.1279  0.4683
12245TIP3    H158150   2.941   5.577   5.207 -1.0681 -1.2634  0.1375
12245TIP3    H258151   2.872   5.571   5.342  0.0637 -0.0031  0.7804
12246TIP3   OH258152   6.195   2.099   5.458 -0.0707 -0.2237 -0.3007
12246TIP3    H158153   6.268   2.093   5.397  0.8539  1.0545  0.6504
12246TIP3    H258154   6.121   2.127   5.405  0.4774 -0.1554 -1.0304
12247TIP3   OH258155   3.336   5.647   3.542  0.6712  0.2712  0.1602
12247TIP3    H158156   3.371   5.568   3.501  2.2816  1.6031 -1.0901
12247TIP3    H258157   3.387   5.658   3.622  0.1564 -0.1725  0.5558
12248TIP3   OH258158   5.321   0.503   0.893  0.3673  0.0391  0.2066
12248TIP3    H158159   5.328   0.412   0.864 -0.1083  0.2941 -0.7553
12248TIP3    H258160   5.313   0.499   0.988 -1.9057 -1.0378 -0.0227
12249TIP3   OH258161   2.873   1.190  13.154  0.5595 -0.5038 -0.9037
12249TIP3    H158162   2.921   1.258  13.201  1.2428 -0.2486 -1.9634
12249TIP3    H258163   2.941   1.133  13.118  0.0345 -0.8781 -1.3230
12250TIP3   OH258164   2.466   0.780  12.708  0.1770 -0.2512 -0.4948
12250TIP3    H158165   2.491   0.857  12.655  1.2113  0.1679  0.5802
12250TIP3    H258166   2.373   0.768  12.689 -0.6406  2.8209  1.2354
12251TIP3   OH258167   3.501   0.654   4.641  0.5360 -0.0029  0.2927
12251TIP3    H158168   3.519   0.610   4.724  0.9146  1.4394  1.0004
12251TIP3    H258169   3.406   0.666   4.640  0.3535 -1.4313 -0.2242
12252TIP3   OH258170   2.203   5.578   4.066  0.3701 -0.4891  0.6210
12252TIP3    H158171   2.281   5.599   4.015  0.4708 -0.6186  0.7214
12252TIP3    H258172   2.179   5.490   4.039 -0.5046  0.0424 -0.3641
12253TIP3   OH258173   4.945   5.123  12.261  0.2218  0.2112 -0.2320
12253TIP3    H158174   4.862   5.076  12.257  0.1768  0.3409 -0.8270
12253TIP3    H258175   4.922   5.214  12.239  0.2794  0.5542  1.0741
12254TIP3   OH258176   1.165   1.642  16.620  0.2057 -0.3699  0.6477
12254TIP3    H158177   1.253   1.614  16.641  0.3612 -1.6990 -1.6365
12254TIP3    H258178   1.172   1.737  16.607  2.0127 -0.8667 -2.6758
12255TIP3   OH258179   2.406   3.715   0.898 -0.2787  0.0276  0.0236
12255TIP3    H158180   2.385   3.801   0.935  4.5648  1.0034  0.9042
12255TIP3    H258181   2.410   3.657   0.974 -1.9868 -0.6808 -0.4004
12256TIP3   OH258182   6.357   5.270  16.965  0.1478 -0.8367  0.6063
12256TIP3    H158183   6.318   5.218  17.035 -0.5302 -1.0242  0.0942
12256TIP3    H258184   6.309   5.353  16.968  0.6259 -0.5636  0.8419
12257TIP3   OH258185   1.404   0.305   1.204  0.5965  0.1134  0.2232
12257TIP3    H158186   1.364   0.356   1.133  1.7646  1.6522  0.6471
12257TIP3    H258187   1.477   0.358   1.234  0.2004 -0.5718  2.5290
12258TIP3   OH258188   6.656   2.073  16.281  0.4637  0.4378  0.6177
12258TIP3    H158189   6.601   2.073  16.360  0.1382  0.2236  0.3935
12258TIP3    H258190   6.599   2.110  16.213  0.5181 -0.0229  0.3243
12259TIP3   OH258191   5.707   5.861   0.570 -0.0733  0.1173  0.0717
12259TIP3    H158192   5.771   5.857   0.641  1.6963  0.1575 -1.4854
12259TIP3    H258193   5.655   5.939   0.589  0.2190 -0.0261  1.4587
12260TIP3   OH258194   6.476   1.572   1.070  0.3139  0.5204 -0.1202
12260TIP3    H158195   6.393   1.584   1.024  0.1615  0.4882  0.1430
12260TIP3    H258196   6.451   1.557   1.161  0.4443 -2.6767 -0.5467
12261TIP3   OH258197   1.032   2.766  11.310 -0.0929  0.2828 -0.2726
12261TIP3    H158198   1.112   2.774  11.258 -0.1549 -1.6165 -0.6900
12261TIP3    H258199   0.972   2.830  11.271  0.8196  0.8906 -0.6980
12262TIP3   OH258200   5.875   4.902  11.868 -0.1174 -0.1480 -0.2659
12262TIP3    H158201   5.832   4.864  11.945 -1.9316  1.9266 -0.2047
12262TIP3    H258202   5.817   4.973  11.841  1.5331  0.4560 -2.3398
12263TIP3   OH258203   5.999   2.011  13.750 -0.3469 -0.0958 -0.3718
12263TIP3    H158204   6.049   1.997  13.831  0.5420 -0.7550 -1.0176
12263TIP3    H258205   6.027   2.096  13.719 -0.0027 -0.2444 -0.4678
12264TIP3   OH258206   2.483   0.982   6.099  0.5363  0.4866 -0.0904
12264TIP3    H158207   2.440   0.917   6.042 -0.0049  0.7895 -0.0358
12264TIP3    H258208   2.518   0.930   6.171  1.9767  0.0021 -1.1345
12265TIP3   OH258209   3.285   0.683  15.576 -0.7071 -0.6351 -0.0320
12265TIP3    H158210   3.256   0.600  15.539  2.3145 -1.9640  0.4555
12265TIP3    H258211   3.314   0.734  15.501  0.3025 -1.2213 -0.0466
12266TIP3   OH258212   3.907   1.963  12.890  0.4861 -0.0780  0.1254
12266TIP3    H158213   3.921   2.054  12.864 -0.6002  0.1197  0.1926
12266TIP3    H258214   3.969   1.948  12.961 -1.3116  1.5039  2.0853
12267TIP3   OH258215   6.631   4.684   4.601 -0.4629  0.4869 -0.3181
12267TIP3    H158216   6.600   4.730   4.679 -0.7005  0.2727 -0.2871
12267TIP3    H258217   6.722   4.714   4.591 -1.2501  2.5513 -1.4878
12268TIP3   OH258218   2.409   1.090   6.459 -0.0361  0.4695 -0.4596
12268TIP3    H158219   2.463   1.134   6.393  0.8215  0.1423  0.0050
12268TIP3    H258220   2.391   1.004   6.422  0.1586  0.4087 -0.4128
12269TIP3   OH258221   2.453   1.669   5.185  0.1863  0.2709  0.1803
12269TIP3    H158222   2.547   1.669   5.201  0.2088 -1.7618  0.2189
12269TIP3    H258223   2.441   1.725   5.109  1.4369  0.4849  0.1278
12270TIP3   OH258224   0.051   0.134   3.691 -0.4229 -0.0405 -0.0085
12270TIP3    H158225   0.127   0.184   3.722 -2.0887  0.9474  2.7369
12270TIP3    H258226   0.030   0.075   3.764 -2.0439 -0.5722 -0.8798
12271TIP3   OH258227   5.399   2.389   4.393  0.6327  0.1458  0.0082
12271TIP3    H158228   5.370   2.356   4.308 -1.7745 -0.1516  0.8841
12271TIP3    H258229   5.436   2.313   4.437 -0.1523 -0.2163  0.0543
12272TIP3   OH258230   4.628   4.756  13.495  0.2224 -0.2491  0.0656
12272TIP3    H158231   4.714   4.770  13.455 -0.1428  0.5669 -0.4555
12272TIP3    H258232   4.576   4.714  13.426 -0.8290  2.4165 -0.8310
12273TIP3   OH258233   2.268   1.893  12.482  0.0881 -0.2316 -0.2216
12273TIP3    H158234   2.361   1.870  12.482  0.1381 -0.1481 -2.3206
12273TIP3    H258235   2.225   1.820  12.526  1.1646 -0.1494  0.9976
12274TIP3   OH258236   6.765   4.456   1.162 -0.5743  0.4027  0.1650
12274TIP3    H158237   6.770   4.394   1.089 -2.1832  0.6474 -0.1845
12274TIP3    H258238   6.841   4.513   1.151  0.4727 -1.0084  0.0308
12275TIP3   OH258239   1.417   1.807  15.441  0.2200  0.3110 -0.1568
12275TIP3    H158240   1.441   1.719  15.470 -1.2074  0.7798  2.5932
12275TIP3    H258241   1.398   1.855  15.521 -1.6541  2.3535 -1.7483
12276TIP3   OH258242   4.955   2.988   5.453 -0.5305  0.4844  0.1903
12276TIP3    H158243   5.017   2.940   5.399  0.4370  0.5338  1.2290
12276TIP3    H258244   4.912   3.048   5.393  1.6113  1.6122 -0.2588
12277TIP3   OH258245   0.305   3.259   5.036 -0.4799 -0.0635  0.0165
12277TIP3    H158246   0.347   3.268   5.121 -1.0407  1.2879  0.1603
12277TIP3    H258247   0.340   3.177   5.001  1.6901  0.6292  0.4651
12278TIP3   OH258248   5.050   2.889   5.216 -0.2887 -0.1099  0.5625
12278TIP3    H158249   5.020   2.798   5.214  0.8529 -0.5058  0.8700
12278TIP3    H258250   5.141   2.884   5.186 -0.2258  0.9293  0.5862
12279TIP3   OH258251   2.773   4.834  14.463 -0.0596  0.5265  0.2728
12279TIP3    H158252   2.831   4.772  14.508 -1.4196 -0.4698  0.6935
12279TIP3    H258253   2.702   4.849  14.524 -0.7421  0.9699 -0.6223
12280TIP3   OH258254   4.308   6.124  16.285  0.2106  0.1242 -0.0226
12280TIP3    H158255   4.393   6.130  16.243  0.6099  0.0511  0.7647
12280TIP3    H258256   4.322   6.160  16.373 -1.2566  2.9307 -0.8666
12281TIP3   OH258257   3.471   4.136  12.884  0.5515 -0.1150  0.3140
12281TIP3    H158258   3.415   4.179  12.949 -0.7780 -2.0830  0.5187
12281TIP3    H258259   3.412   4.118  12.811  1.3000 -0.7779 -0.1311
12282TIP3   OH258260   1.047   1.923  14.424 -0.0943  0.2957 -0.5686
12282TIP3    H158261   0.996   1.900  14.501  0.6621 -0.1651 -0.1998
12282TIP3    H258262   1.102   1.847  14.407 -0.0857  0.4825 -1.4260
12283TIP3   OH258263   0.324   5.591  16.586 -0.2016 -0.4646 -0.1180
12283TIP3    H158264   0.282   5.529  16.644 -1.8239  0.4763 -0.2674
12283TIP3    H258265   0.257   5.616  16.523  0.7210  0.6338 -0.7043
12284TIP3   OH258266   2.401   5.834  12.386 -0.1777 -0.3135  0.3618
12284TIP3    H158267   2.488   5.830  12.348  0.2964  1.9777  1.1463
12284TIP3    H258268   2.350   5.889  12.326 -1.2116 -1.9707 -0.3123
12285TIP3   OH258269   2.430   2.457  15.008  0.0234 -0.2013  0.3055
12285TIP3    H158270   2.461   2.374  14.974  2.7300  0.5197  0.8268
12285TIP3    H258271   2.382   2.434  15.088 -1.6307 -1.4482 -1.0326
12286TIP3   OH258272   1.524   4.926  14.904 -0.5866  0.7577  0.1992
12286TIP3    H158273   1.580   4.849  14.897 -0.2168  0.8960  1.5994
12286TIP3    H258274   1.492   4.940  14.815  0.1091 -0.4355 -0.2479
12287TIP3   OH258275   5.776   5.326  14.637  0.3512  0.3233  0.1208
12287TIP3    H158276   5.699   5.298  14.588 -0.4483  2.0788  0.3300
12287TIP3    H258277   5.785   5.419  14.617  2.8819  0.0107 -0.5053
12288TIP3   OH258278   3.389   5.090   4.849  0.9825  0.5110  0.4624
12288TIP3    H158279   3.380   5.139   4.767  0.2318  0.9028  0.7714
12288TIP3    H258280   3.368   5.000   4.825 -0.9885  0.9192  0.5639
12289TIP3   OH258281   2.832   0.111   2.796  0.1976 -0.3845 -0.4400
12289TIP3    H158282   2.772   0.109   2.871 -1.6647 -1.4497 -1.9118
12289TIP3    H258283   2.894   0.182   2.817 -1.7087  0.9164  1.0284
12290TIP3   OH258284   6.410   0.556  11.816  0.3124  0.2686  0.2206
12290TIP3    H158285   6.468   0.620  11.776  0.7366  0.5470  1.2610
12290TIP3    H258286   6.455   0.472  11.805  0.5270  0.3718  0.3068
12291TIP3   OH258287   1.831   2.109  12.343 -0.0169  0.5476 -1.1409
12291TIP3    H158288   1.843   2.071  12.256 -1.9171 -1.2174 -0.6775
12291TIP3    H258289   1.870   2.046  12.402  0.8366  1.5132 -0.6568
12292TIP3   OH258290   4.040   4.054   2.243 -0.1666  0.8006  0.3638
12292TIP3    H158291   4.099   4.103   2.186  0.5294 -1.0556 -0.5527
12292TIP3    H258292   4.040   3.965   2.207 -0.9348 -0.0306  2.3303
12293TIP3   OH258293   5.351   0.579   2.658 -0.0808  0.2017  0.1626
12293TIP3    H158294   5.382   0.568   2.748  1.4518  0.6183 -0.3010
12293TIP3    H258295   5.317   0.493   2.634 -4.5523  1.1616  2.6066
12294TIP3   OH258296   5.195   4.582   0.163  0.1698  0.0783  0.3845
12294TIP3    H158297   5.163   4.516   0.225 -1.2531 -0.3199 -0.7535
12294TIP3    H258298   5.116   4.625   0.131  0.8517 -0.0205 -1.4978
12295TIP3   OH258299   3.350   1.065   6.763  0.2438 -0.2660 -0.2550
12295TIP3    H158300   3.382   1.154   6.775  2.0354 -1.3923  4.3196
12295TIP3    H258301   3.264   1.064   6.806  0.6472 -0.9790  0.5445
12296TIP3   OH258302   6.454   3.456  10.890  0.2737  0.1786  0.1201
12296TIP3    H158303   6.470   3.438  10.797 -1.2197  0.4919 -0.2097
12296TIP3    H258304   6.496   3.540  10.905 -0.5483  0.7316 -0.5938
12297TIP3   OH258305   4.717   5.620   3.687  0.1132 -0.0085  0.0828
12297TIP3    H158306   4.645   5.683   3.693 -0.1586 -0.2413 -0.7060
12297TIP3    H258307   4.716   5.590   3.596  0.0373 -1.3890  0.5245
12298TIP3   OH258308   3.752   3.323  14.041 -0.0004  0.5176 -0.7804
12298TIP3    H158309   3.677   3.319  13.981 -1.4024 -2.6636  1.0205
12298TIP3    H258310   3.789   3.235  14.039  0.8463  0.7702  1.8487
12299TIP3   OH258311   2.180   2.099  12.317  0.2136 -0.2276  0.5029
12299TIP3    H158312   2.193   2.032  12.385  0.5188  0.2565  0.9191
12299TIP3    H258313   2.267   2.132  12.298  0.1740 -0.6248 -0.3995
12300TIP3   OH258314   0.176   4.295  15.086 -0.0664  0.2155 -0.3752
12300TIP3    H158315   0.257   4.301  15.136  0.3092 -1.3515 -0.7836
12300TIP3    H258316   0.182   4.365  15.021  0.3875  0.8990  0.4026
12301TIP3   OH258317   6.205   1.913  15.106 -0.2383  0.1229 -0.0027
12301TIP3    H158318   6.118   1.902  15.068 -0.6491  1.3025  0.5859
12301TIP3    H258319   6.203   1.861  15.186 -0.2595 -0.1886 -0.2053
12302TIP3   OH258320   3.016   1.937   2.644 -0.1317 -0.2410  0.2040
12302TIP3    H158321   2.939   1.881   2.647  0.4669 -1.0869  0.2673
12302TIP3    H258322   3.090   1.876   2.654  0.6752  0.1969 -2.6475
12303TIP3   OH258323   6.142   6.624   5.027 -0.2054 -0.5089 -0.5418
12303TIP3    H158324   6.075   6.686   5.056  1.3401  1.0879 -0.2927
12303TIP3    H258325   6.133   6.621   4.932 -0.9397 -0.6773 -0.4698
12304TIP3   OH258326   4.092   2.965  12.974  0.1938  0.8520 -0.3891
12304TIP3    H158327   4.046   2.930  12.898 -0.3826 -0.5220  0.5805
12304TIP3    H258328   4.184   2.945  12.957 -0.0302 -0.2417 -0.2994
12305TIP3   OH258329   4.125   2.294  12.109 -0.0824  0.5749  0.3057
12305TIP3    H158330   4.111   2.230  12.039 -0.9555  1.5244 -0.3969
12305TIP3    H258331   4.042   2.342  12.114  0.1255  0.7998  1.7005
12306TIP3   OH258332   2.662   4.545   4.997 -0.5332 -0.8646 -0.0181
12306TIP3    H158333   2.743   4.561   5.045 -0.9471 -1.6455  0.9628
12306TIP3    H258334   2.596   4.596   5.044 -0.9645 -1.7334  0.3355
12307TIP3   OH258335   2.176   2.411   2.631  0.0843  0.2116  0.0815
12307TIP3    H158336   2.268   2.420   2.606  0.0835  0.4758  0.1705
12307TIP3    H258337   2.175   2.340   2.696  0.5041  1.4904  1.5234
12308TIP3   OH258338   2.380   2.809   4.352 -0.1401 -0.6089  0.2594
12308TIP3    H158339   2.468   2.845   4.356 -1.4259  2.7245  0.2281
12308TIP3    H258340   2.372   2.775   4.263  1.0665 -0.7448  0.2052
12309TIP3   OH258341   4.544   1.378   6.582  1.0758 -0.3404 -0.0368
12309TIP3    H158342   4.582   1.291   6.571  1.3659 -0.2821  0.5009
12309TIP3    H258343   4.487   1.370   6.658  1.5303  0.0836  0.3528
12310TIP3   OH258344   4.308   2.531   6.360  0.0599  0.1238 -0.0767
12310TIP3    H158345   4.366   2.457   6.339  0.8470  0.1274  1.9345
12310TIP3    H258346   4.276   2.511   6.448 -1.4051  1.1352 -0.3810
12311TIP3   OH258347   5.964   6.203  11.434  0.4191 -0.2450  0.7073
12311TIP3    H158348   5.982   6.201  11.340 -1.7444  1.0626  0.2350
12311TIP3    H258349   5.950   6.111  11.458  0.3995 -0.5257 -0.3557
12312TIP3   OH258350   2.079   6.584  11.794 -0.4082 -0.3174 -0.3851
12312TIP3    H158351   2.017   6.513  11.775 -2.9151  1.5347  0.4717
12312TIP3    H258352   2.025   6.663  11.792  1.4089  1.1148  2.9116
12313TIP3   OH258353   3.608   4.522   5.536  0.0722 -0.1734 -0.2217
12313TIP3    H158354   3.612   4.456   5.467 -0.0928  1.6998 -2.0797
12313TIP3    H258355   3.519   4.556   5.531  0.2107  0.3172  0.5790
12314TIP3   OH258356   0.822   5.634   0.570  0.0269  0.3118 -0.0228
12314TIP3    H158357   0.846   5.720   0.536 -0.4361  0.6995  0.6194
12314TIP3    H258358   0.836   5.641   0.665 -2.3904  0.4843  0.3515
12315TIP3   OH258359   2.078   3.135  12.125  0.1044  0.1669  0.5081
12315TIP3    H158360   1.994   3.167  12.159 -1.7358 -3.4473 -0.3540
12315TIP3    H258361   2.116   3.086  12.198 -1.0261 -2.5308 -0.6469
12316TIP3   OH258362   2.455   1.714  14.171 -0.1403  0.5657 -0.4462
12316TIP3    H158363   2.479   1.648  14.236 -0.8337  0.0246 -0.7300
12316TIP3    H258364   2.479   1.675  14.087  2.9022  2.1931 -0.4119
12317TIP3   OH258365   1.919   1.329  16.729 -0.6059 -0.0491 -0.2580
12317TIP3    H158366   1.992   1.334  16.668 -0.6608  4.0459 -0.1458
12317TIP3    H258367   1.954   1.282  16.805  0.6332 -1.6880 -1.7822
12318TIP3   OH258368   0.084   6.437  14.564 -0.1954  0.4940  0.1335
12318TIP3    H158369   0.080   6.502  14.494  0.3499  0.6445  0.2385
12318TIP3    H258370   0.106   6.355  14.520 -0.1871  0.5216  0.0857
12319TIP3   OH258371   0.902   2.040  17.084 -0.6024 -0.3244 -0.1455
12319TIP3    H158372   0.879   1.963  17.033  1.1428 -0.6854 -0.4029
12319TIP3    H258373   0.997   2.038  17.090 -0.6401  0.9275  1.2284
12320TIP3   OH258374   5.679   0.575   3.539  0.1551 -0.0715 -0.4361
12320TIP3    H158375   5.745   0.596   3.474  0.8930  0.0622  0.3417
12320TIP3    H258376   5.641   0.659   3.562 -0.1125 -0.1200 -0.7024
12321TIP3   OH258377   3.372   4.536   4.069  0.3664 -0.1969 -0.2286
12321TIP3    H158378   3.366   4.461   4.128  0.0028 -0.3408 -0.4500
12321TIP3    H258379   3.383   4.611   4.127  2.1960 -0.5713 -0.0448
12322TIP3   OH258380   2.324   0.781  14.635  0.0772 -0.1049 -0.2486
12322TIP3    H158381   2.365   0.707  14.591 -0.1932 -0.3734 -0.0524
12322TIP3    H258382   2.284   0.743  14.714  0.4268  0.3429  0.1455
12323TIP3   OH258383   5.677   0.579  16.739 -0.1675  0.1727  0.3355
12323TIP3    H158384   5.687   0.600  16.832 -1.8559  0.3048  0.4905
12323TIP3    H258385   5.722   0.651  16.694 -1.1198  1.1969  0.9961
12324TIP3   OH258386   3.807   1.836  14.664 -0.2665 -0.3810 -0.1036
12324TIP3    H158387   3.846   1.751  14.646 -1.7583 -1.5120  1.7564
12324TIP3    H258388   3.719   1.831  14.627 -0.7685 -0.0934  1.0163
12325TIP3   OH258389   1.806   5.405   5.382 -0.3341  0.0846  0.1957
12325TIP3    H158390   1.796   5.362   5.297  0.0938  2.1519 -0.9371
12325TIP3    H258391   1.901   5.408   5.396 -0.4819 -2.4192  1.9082
12326TIP3   OH258392   3.709   3.736   1.691  0.5112 -0.4612 -0.2271
12326TIP3    H158393   3.703   3.704   1.781  0.7115  2.8582  1.0503
12326TIP3    H258394   3.623   3.773   1.673  0.4951 -1.0514 -1.3870
12327TIP3   OH258395   3.637   4.915  12.485 -0.3282  0.0569  0.0747
12327TIP3    H158396   3.559   4.864  12.463 -0.3181  0.1887 -0.2728
12327TIP3    H258397   3.606   5.005  12.495 -0.3253  0.0072  0.5661
12328TIP3   OH258398   3.125   2.787   5.772 -0.2648 -0.2007  0.1615
12328TIP3    H158399   3.160   2.711   5.725  0.9105  0.3791  0.1061
12328TIP3    H258400   3.175   2.861   5.740 -1.0761  0.5436  0.5899
12329TIP3   OH258401   3.291   2.969  14.020  0.2384  0.0835  0.0182
12329TIP3    H158402   3.309   2.876  14.006  1.0653  0.1523  0.5794
12329TIP3    H258403   3.371   3.013  13.992  0.5258  0.4863  1.4056
12330TIP3   OH258404   3.954   2.643   6.493  0.3841 -0.4719 -0.3399
12330TIP3    H158405   4.019   2.575   6.507  0.2885 -0.1121  1.9651
12330TIP3    H258406   3.881   2.599   6.449  0.9530 -1.5059 -0.2395
12331TIP3   OH258407   6.678   2.400  15.757 -0.0755 -0.0063 -0.0929
12331TIP3    H158408   6.615   2.364  15.819 -0.6002 -0.1396 -0.7054
12331TIP3    H258409   6.753   2.341  15.761 -0.2058 -0.1458  0.2360
12332TIP3   OH258410   6.662   0.486   0.275  0.1762 -0.1316  0.4030
12332TIP3    H158411   6.713   0.524   0.203 -1.2600  0.8445 -0.1169
12332TIP3    H258412   6.707   0.515   0.354  1.3525 -0.6222 -0.0577
12333TIP3   OH258413   4.828   1.807   0.616 -0.1988  0.6904  0.8066
12333TIP3    H158414   4.913   1.785   0.654 -0.7784 -2.0091  0.7021
12333TIP3    H258415   4.820   1.748   0.541 -2.0972  0.9651  0.7659
12334TIP3   OH258416   1.383   2.713  14.828  0.0694 -0.6258 -0.2332
12334TIP3    H158417   1.362   2.670  14.911  0.8434  0.0220  0.3052
12334TIP3    H258418   1.428   2.794  14.853 -1.0140  0.3090 -1.2513
12335TIP3   OH258419   1.576   0.616  11.348  0.0225 -0.6593  0.2477
12335TIP3    H158420   1.648   0.672  11.378 -1.0749  0.9941 -0.0846
12335TIP3    H258421   1.612   0.566  11.276  1.0489 -0.3814  0.5629
12336TIP3   OH258422   0.436   5.170   0.325 -0.1852 -0.3905  0.0695
12336TIP3    H158423   0.492   5.246   0.308 -1.4202  0.7134  0.8170
12336TIP3    H258424   0.388   5.158   0.243  0.8340 -1.0749 -0.4299
12337TIP3   OH258425   2.683   5.675  12.505 -0.0247 -0.4285  0.2189
12337TIP3    H158426   2.680   5.733  12.429 -2.7670 -0.1527  0.4634
12337TIP3    H258427   2.697   5.733  12.580 -0.4340 -0.3394  0.2266
12338TIP3   OH258428   4.574   0.994  13.989  0.0139 -0.5960  0.1487
12338TIP3    H158429   4.561   1.042  14.071  1.1976 -0.0523  0.0364
12338TIP3    H258430   4.589   0.904  14.016  2.1078 -0.1252  0.6735
12339TIP3   OH258431   2.190   2.477   1.747 -0.1096 -0.5392  0.3669
12339TIP3    H158432   2.224   2.549   1.801  0.9433 -0.6863 -0.0882
12339TIP3    H258433   2.187   2.512   1.658 -0.1711 -0.8700  0.2375
12340TIP3   OH258434   5.947   4.613   4.984 -0.8503  0.6574  0.8531
12340TIP3    H158435   5.994   4.677   5.037  0.6621  0.5807 -0.3594
12340TIP3    H258436   6.015   4.573   4.929 -2.5550  1.5652 -1.9919
12341TIP3   OH258437   6.413   0.282   5.379  0.2770  0.0549 -0.1383
12341TIP3    H158438   6.385   0.270   5.288 -0.3069  2.4294 -0.3068
12341TIP3    H258439   6.499   0.322   5.373  1.3220 -1.9994  0.4048
12342TIP3   OH258440   5.059   2.126  14.099  0.3072 -0.3158 -0.0754
12342TIP3    H158441   5.115   2.161  14.168  0.1080 -2.2376  1.1090
12342TIP3    H258442   5.105   2.149  14.018  0.5892  1.8808  0.6779
12343TIP3   OH258443   3.218   4.529   0.143 -0.2012  0.4426 -0.1280
12343TIP3    H158444   3.273   4.465   0.098 -1.4147  0.3050 -1.4509
12343TIP3    H258445   3.191   4.590   0.074 -1.8877  0.3772  0.4585
12344TIP3   OH258446   1.326   0.645   3.967 -0.0187 -0.0396  0.4752
12344TIP3    H158447   1.326   0.591   3.888  0.1568  1.7003 -0.7510
12344TIP3    H258448   1.271   0.598   4.029  0.3895 -1.7628 -0.4532
12345TIP3   OH258449   2.112   4.220  10.776  0.1239  0.3146 -0.2872
12345TIP3    H158450   2.204   4.244  10.782  0.3635 -0.6647  0.1131
12345TIP3    H258451   2.098   4.158  10.848 -0.5340 -0.4845 -1.0779
12346TIP3   OH258452   2.581   1.200  11.513 -0.2455 -0.1428 -0.9019
12346TIP3    H158453   2.615   1.252  11.586 -1.6738  1.3430 -1.2639
12346TIP3    H258454   2.631   1.230  11.437  1.0939 -1.5391 -0.5950
12347TIP3   OH258455   0.736   0.808  15.022 -0.1302  0.2792  0.2938
12347TIP3    H158456   0.765   0.772  15.106 -1.0567 -0.2028  0.4198
12347TIP3    H258457   0.793   0.766  14.957 -2.5929 -3.1893  0.2180
12348TIP3   OH258458   3.370   5.167   1.405 -0.2106  0.6135 -0.4513
12348TIP3    H158459   3.308   5.132   1.342 -0.4089 -0.9760  0.6068
12348TIP3    H258460   3.316   5.193   1.480  0.4952 -2.0288  1.0295
12349TIP3   OH258461   1.091   6.194   5.896 -0.2838 -0.1300 -0.8613
12349TIP3    H158462   1.074   6.216   5.988  1.1181  0.2289 -0.6834
12349TIP3    H258463   1.020   6.134   5.873  0.0196 -1.1452  0.7931
12350TIP3   OH258464   4.189   0.935   0.772 -0.0418  0.0128 -0.7364
12350TIP3    H158465   4.268   0.934   0.717 -0.1516 -0.8628 -0.8884
12350TIP3    H258466   4.181   1.025   0.801  1.7372 -0.1453  0.3099
12351TIP3   OH258467   2.457   5.713  11.249  0.2152  0.4493 -0.0537
12351TIP3    H158468   2.379   5.732  11.197 -0.6697  1.6886  1.7028
12351TIP3    H258469   2.516   5.668  11.188 -2.6791 -2.4575 -0.8314
12352TIP3   OH258470   4.070   4.714  13.033 -0.1257  0.1440 -0.2633
12352TIP3    H158471   4.070   4.797  12.985 -1.5632 -0.8984 -2.1365
12352TIP3    H258472   4.141   4.663  12.993  0.2339  0.1743  0.3359
12353TIP3   OH258473   1.480   1.255   0.161  0.1427 -0.9710 -0.1845
12353TIP3    H158474   1.486   1.198   0.085  0.3308 -0.2955 -0.6801
12353TIP3    H258475   1.429   1.331   0.131 -0.2428 -0.9450  0.5090
12354TIP3   OH258476   3.117   5.341   1.857 -0.5010  0.0372 -0.0112
12354TIP3    H158477   3.134   5.256   1.898  3.0229 -0.0571 -1.4171
12354TIP3    H258478   3.162   5.404   1.914  3.3091  0.0354 -2.7832
12355TIP3   OH258479   2.235   3.762   5.328  0.0865  0.4088  0.4781
12355TIP3    H158480   2.207   3.815   5.403  0.4043 -1.3575  1.8761
12355TIP3    H258481   2.160   3.705   5.309 -0.7862  2.2551 -1.9203
12356TIP3   OH258482   6.139   5.225   4.440  0.0579 -0.4403  0.4003
12356TIP3    H158483   6.154   5.277   4.361  0.2502  0.9722  1.3335
12356TIP3    H258484   6.184   5.142   4.424 -1.8760 -1.0895 -1.9054
12357TIP3   OH258485   6.132   5.656   0.110  0.2942 -1.4145  0.5000
12357TIP3    H158486   6.160   5.741   0.077 -0.1169 -1.1437  0.8411
12357TIP3    H258487   6.084   5.676   0.190 -0.3429 -1.9219  0.2463
12358TIP3   OH258488   3.384   2.341   5.962 -0.1646 -0.2170  0.3431
12358TIP3    H158489   3.427   2.411   6.012 -2.0127  0.0994  1.5299
12358TIP3    H258490   3.307   2.318   6.014  0.4609 -3.2134 -0.0078
12359TIP3   OH258491   1.655   1.277   6.462  0.5394  0.4952  0.5109
12359TIP3    H158492   1.720   1.212   6.489 -0.1831  0.1263  1.3876
12359TIP3    H258493   1.586   1.225   6.421  0.9751  0.9253 -0.8084
12360TIP3   OH258494   3.038   4.763  17.196 -0.1102  0.3130  0.3455
12360TIP3    H158495   3.092   4.805  17.263  0.0745 -0.2307  0.5441
12360TIP3    H258496   2.969   4.826  17.178 -0.9667 -0.0912  2.0637
12361TIP3   OH258497   4.843   6.033  11.961 -0.0369 -0.5399 -0.5749
12361TIP3    H158498   4.898   6.111  11.972 -1.6108  0.6799 -1.1255
12361TIP3    H258499   4.904   5.964  11.934  1.3621  0.5348 -0.2091
12362TIP3   OH258500   2.146   4.666  12.064  0.3360 -0.2569 -0.1314
12362TIP3    H158501   2.056   4.642  12.088  1.1358 -2.5504  0.7461
12362TIP3    H258502   2.142   4.759  12.044 -1.7732  0.1932  2.1761
12363TIP3   OH258503   2.671   0.462  16.548 -0.0988  0.2346  0.1374
12363TIP3    H158504   2.747   0.513  16.519 -0.7053 -0.2397 -2.4086
12363TIP3    H258505   2.668   0.475  16.643  2.1331  1.6542  0.0498
12364TIP3   OH258506   1.482   0.723   5.327 -0.6497  0.5632  0.3045
12364TIP3    H158507   1.549   0.731   5.396 -0.0037 -0.1139 -0.2340
12364TIP3    H258508   1.518   0.658   5.266 -1.0055  1.5064 -0.9226
12365TIP3   OH258509   0.794   1.806   1.356 -0.3806  0.7665  0.2911
12365TIP3    H158510   0.704   1.772   1.363 -0.8173  1.8093 -0.1799
12365TIP3    H258511   0.792   1.889   1.403 -0.1757  1.7570 -1.4142
12366TIP3   OH258512   1.500   2.012  14.749 -0.0774  0.4628 -0.1417
12366TIP3    H158513   1.582   1.964  14.759 -1.4097 -1.6026  1.5156
12366TIP3    H258514   1.501   2.043  14.659  1.5561 -1.3681 -0.7950
12367TIP3   OH258515   6.660   5.776   0.339 -0.1260 -0.0050 -0.2502
12367TIP3    H158516   6.700   5.863   0.336  1.7736 -0.8494 -0.1257
12367TIP3    H258517   6.694   5.731   0.262 -2.3818 -0.1212 -1.2107
12368TIP3   OH258518   0.017   5.423  15.639 -0.2467  0.0701 -0.2169
12368TIP3    H158519   0.090   5.388  15.588  1.1959  1.3003  0.9708
12368TIP3    H258520  -0.034   5.474  15.577 -0.3457 -1.1406 -1.1472
12369TIP3   OH258521   0.546   3.585   6.669  0.0312  0.4600 -0.2704
12369TIP3    H158522   0.549   3.572   6.574 -1.1645  1.2430 -0.4340
12369TIP3    H258523   0.612   3.652   6.685 -0.4065  1.0058 -0.6902
12370TIP3   OH258524   3.610   1.114  14.017  0.4870  0.1958  0.3084
12370TIP3    H158525   3.586   1.113  14.109 -0.2778 -3.0277  0.1318
12370TIP3    H258526   3.695   1.070  14.013  0.1223 -0.4496 -0.6087
12371TIP3   OH258527   1.305   4.747  13.623  0.0481 -0.0410 -0.0248
12371TIP3    H158528   1.308   4.778  13.714 -1.0019  0.2580 -0.0822
12371TIP3    H258529   1.212   4.746  13.602 -0.0203 -3.7121  0.1258
12372TIP3   OH258530   4.840   0.365  14.406 -0.0760  0.2288  0.2892
12372TIP3    H158531   4.775   0.377  14.337 -0.9611  0.6964  1.1981
12372TIP3    H258532   4.882   0.282  14.384  0.6918  1.0913 -1.6382
12373TIP3   OH258533   1.702   2.501   1.445 -0.9163 -0.0430 -0.5997
12373TIP3    H158534   1.707   2.544   1.530  0.5209 -0.4189 -0.4667
12373TIP3    H258535   1.630   2.439   1.453 -1.4516  0.6448 -0.0011
12374TIP3   OH258536   3.848   3.419   4.867 -0.2975 -0.2237 -0.1709
12374TIP3    H158537   3.795   3.498   4.866 -1.2787 -0.8414  1.4024
12374TIP3    H258538   3.898   3.424   4.949 -0.8675 -1.5479  0.2647
12375TIP3   OH258539   5.955   5.380  10.684 -0.1637  0.1781  0.1735
12375TIP3    H158540   5.985   5.471  10.690  3.3613 -0.9942  1.3406
12375TIP3    H258541   5.860   5.388  10.673  0.2383  4.0247 -1.6232
12376TIP3   OH258542   4.897   1.536   1.446  0.5747  0.0924  0.1029
12376TIP3    H158543   4.874   1.446   1.424 -0.1484 -0.0538  1.4355
12376TIP3    H258544   4.819   1.587   1.423  0.5730  0.2227  0.3972
12377TIP3   OH258545   6.547   5.335  16.398 -0.2038  0.1575 -0.0530
12377TIP3    H158546   6.579   5.324  16.309  2.0244  0.2699  0.7047
12377TIP3    H258547   6.626   5.337  16.452 -1.4120  1.8894  1.7305
12378TIP3   OH258548   4.524   2.419   0.513  0.4348 -0.3129  0.4024
12378TIP3    H158549   4.478   2.467   0.582 -0.4251  0.2797 -0.5689
12378TIP3    H258550   4.454   2.376   0.464  1.1840 -2.8125  1.4085
12379TIP3   OH258551   3.615   0.775   5.704 -0.1701  0.0493  0.0107
12379TIP3    H158552   3.588   0.801   5.792 -1.0463 -2.2439  0.4472
12379TIP3    H258553   3.711   0.773   5.708 -0.1498  1.5555  0.4297
12380TIP3   OH258554   5.296   1.670   5.772 -0.1793 -0.0647  0.1073
12380TIP3    H158555   5.210   1.709   5.783  0.2836  1.2627 -0.9067
12380TIP3    H258556   5.354   1.725   5.825  0.3597  0.1956 -0.7514
12381TIP3   OH258557   5.580   3.058   5.895 -0.9192  0.4019 -0.0744
12381TIP3    H158558   5.577   3.008   5.976 -1.3972  0.1115 -0.2750
12381TIP3    H258559   5.501   3.034   5.848 -0.4351  0.2411 -0.8237
12382TIP3   OH258560   4.628   2.138   2.402  0.0210  0.1816  0.2577
12382TIP3    H158561   4.715   2.143   2.442 -0.3339  0.6471  0.9884
12382TIP3    H258562   4.637   2.189   2.321  0.7929 -0.9254 -0.3629
12383TIP3   OH258563   3.022   0.762   3.675  0.3117 -0.1183 -0.1549
12383TIP3    H158564   2.938   0.807   3.678  1.3236  1.9473 -1.4308
12383TIP3    H258565   3.042   0.754   3.582  0.5108 -2.6439  0.0461
12384TIP3   OH258566   2.663   1.463   5.783  0.0675  0.1264  0.7647
12384TIP3    H158567   2.694   1.420   5.863  0.1919 -1.5677 -0.1928
12384TIP3    H258568   2.618   1.394   5.734  0.5452  1.0024 -0.9431
12385TIP3   OH258569   1.550   0.390  10.376 -0.5329  0.0912  0.5303
12385TIP3    H158570   1.600   0.399  10.295 -0.1709  0.5929  0.8033
12385TIP3    H258571   1.522   0.299  10.378 -1.1466  0.2607 -0.5151
12386TIP3   OH258572   6.494   1.706  13.773  0.6016 -0.1332 -1.0347
12386TIP3    H158573   6.429   1.761  13.730 -1.2223  0.9477  2.8890
12386TIP3    H258574   6.560   1.768  13.804 -0.8139 -0.1779  2.2837
12387TIP3   OH258575   4.280   4.366   3.222  0.2082  0.6013  0.4138
12387TIP3    H158576   4.205   4.352   3.279  0.5486 -0.0158  0.7147
12387TIP3    H258577   4.339   4.421   3.274 -0.5100  2.0016 -0.2351
12388TIP3   OH258578   2.227   4.310   6.456 -0.3689  0.0346  0.2603
12388TIP3    H158579   2.281   4.386   6.478 -0.3454 -0.0433  0.4766
12388TIP3    H258580   2.214   4.316   6.361  1.2313 -0.7294 -0.0323
12389TIP3   OH258581   6.111   5.292  15.756  0.5535  0.4501 -0.2955
12389TIP3    H158582   6.138   5.374  15.798  3.0433 -0.4186 -0.0977
12389TIP3    H258583   6.056   5.249  15.821  1.4125  0.7758  0.6712
12390TIP3   OH258584   1.472   6.322  11.763  0.2591 -0.4679 -0.0754
12390TIP3    H158585   1.448   6.412  11.783 -1.1590 -1.1681  1.4303
12390TIP3    H258586   1.511   6.327  11.675 -1.6757  1.3007 -0.8852
12391TIP3   OH258587   3.960   4.923   5.561  0.3760 -0.2426  0.8491
12391TIP3    H158588   3.985   5.015   5.561 -1.5619  0.3289 -0.4838
12391TIP3    H258589   4.042   4.875   5.567  1.6790  1.5426 -1.8761
12392TIP3   OH258590   4.733   4.574   5.438  0.2196  0.4433  0.1317
12392TIP3    H158591   4.816   4.526   5.448 -0.4099 -0.9000 -1.0402
12392TIP3    H258592   4.699   4.581   5.527  0.5972 -0.7835  0.3760
12393TIP3   OH258593   0.101   2.879   4.217  0.2919  0.1544  0.5748
12393TIP3    H158594   0.009   2.855   4.201 -0.1765  1.5022  1.2357
12393TIP3    H258595   0.139   2.885   4.129 -0.2076 -0.5356  0.3024
12394TIP3   OH258596   4.470   0.017   3.549 -0.4691 -0.1798  1.0993
12394TIP3    H158597   4.522   0.051   3.622 -0.8700  0.1933  1.2140
12394TIP3    H258598   4.380   0.034   3.574 -0.5428  2.1306 -0.5312
12395TIP3   OH258599   5.180   5.789   0.986 -0.6077  0.3749 -0.3142
12395TIP3    H158600   5.143   5.877   0.995  0.3268  0.7031  0.4192
12395TIP3    H258601   5.254   5.788   1.046  0.3585 -0.4061 -1.5006
12396TIP3   OH258602   0.432   0.871   5.166  0.2419 -0.1221  0.0552
12396TIP3    H158603   0.475   0.816   5.100  0.7722 -0.0676  0.3496
12396TIP3    H258604   0.502   0.925   5.201 -0.0946  0.0544  0.4579
12397TIP3   OH258605   1.412   3.332  14.858 -0.5653 -0.4062  0.1774
12397TIP3    H158606   1.442   3.344  14.948  1.6748  2.0593 -0.8303
12397TIP3    H258607   1.490   3.346  14.804 -2.2220 -0.0696 -2.2364
12398TIP3   OH258608   4.241   2.084   1.323  0.2760 -0.2884  0.2644
12398TIP3    H158609   4.225   2.006   1.270 -1.0354 -0.6289  1.1189
12398TIP3    H258610   4.160   2.096   1.372  1.3842  0.1086  2.0507
12399TIP3   OH258611   4.267   2.858  16.493 -0.0896 -0.4828  0.1164
12399TIP3    H158612   4.322   2.888  16.565  1.4352 -1.3488 -0.6571
12399TIP3    H258613   4.182   2.841  16.533  0.2262  0.7611  1.3592
12400TIP3   OH258614   5.649   6.004   1.056  0.0967  0.5306  0.2198
12400TIP3    H158615   5.662   6.039   1.144  0.7528  1.8066 -0.3661
12400TIP3    H258616   5.658   6.080   0.998  2.5591 -0.7588 -1.1884
12401TIP3   OH258617   0.275   5.538   0.974 -0.0572 -0.2909  0.0642
12401TIP3    H158618   0.370   5.547   0.965  0.2030 -2.7610 -0.1825
12401TIP3    H258619   0.261   5.443   0.980 -2.5940 -0.0004 -0.7822
12402TIP3   OH258620   4.685   0.339  11.151  0.5392 -0.1323  0.2098
12402TIP3    H158621   4.766   0.321  11.102  1.5302  0.6121  1.5329
12402TIP3    H258622   4.654   0.422  11.116  0.4086 -0.3587 -0.2164
12403TIP3   OH258623   0.157   6.785  14.277  0.5947  0.3037 -0.3730
12403TIP3    H158624   0.153   6.868  14.324 -0.0054 -0.7633  1.4871
12403TIP3    H258625   0.250   6.761  14.278  0.8218  1.1033 -1.2252
12404TIP3   OH258626   3.318   1.442   1.064 -0.0123 -0.4166  0.6600
12404TIP3    H158627   3.296   1.471   0.975 -0.8829 -1.6744  0.4567
12404TIP3    H258628   3.393   1.383   1.052  1.0502  0.8373  0.9635
12405TIP3   OH258629   2.134   6.039   2.284 -0.5574 -0.1009  0.1504
12405TIP3    H158630   2.067   6.107   2.278 -1.2425 -0.9309 -2.0703
12405TIP3    H258631   2.215   6.082   2.258 -0.8330  0.0940 -0.3917
12406TIP3   OH258632   3.757   3.748  15.096  0.8596 -0.3312  0.0379
12406TIP3    H158633   3.840   3.795  15.085 -0.0012  1.0966 -0.4759
12406TIP3    H258634   3.708   3.801  15.159  0.5204 -1.4239  0.7018
12407TIP3   OH258635   0.705   2.897   0.581  0.3642 -0.0548 -0.4567
12407TIP3    H158636   0.760   2.943   0.518 -0.7563  1.6062 -0.2458
12407TIP3    H258637   0.631   2.865   0.528  0.9326 -1.3168 -0.5280
12408TIP3   OH258638   2.156   5.916   4.682  0.2170 -0.3861  0.0180
12408TIP3    H158639   2.140   6.010   4.692 -0.7553 -0.4420 -0.9391
12408TIP3    H258640   2.094   5.875   4.743  0.8635 -0.4015  0.6718
12409TIP3   OH258641   5.641   0.179   5.503 -0.1522  0.3844  0.6563
12409TIP3    H158642   5.683   0.158   5.587 -0.1349 -0.1633  0.5131
12409TIP3    H258643   5.557   0.219   5.528 -1.1280 -1.7798  0.9536
12410TIP3   OH258644   5.108   2.721  12.433 -0.6552 -0.2500  0.6417
12410TIP3    H158645   5.150   2.768  12.361  0.3522  0.7979  1.8970
12410TIP3    H258646   5.134   2.630  12.420 -0.6849 -0.1042 -0.4678
12411TIP3   OH258647   0.635   2.712  14.394  0.0067 -0.0424  0.0354
12411TIP3    H158648   0.704   2.778  14.399  0.7615 -0.6260 -2.2631
12411TIP3    H258649   0.657   2.648  14.461  1.0243  0.4073  0.1312
12412TIP3   OH258650   2.621   1.224   1.748  0.2086  0.7207  0.4799
12412TIP3    H158651   2.669   1.306   1.752  1.9027 -0.3397  2.7147
12412TIP3    H258652   2.556   1.231   1.818  1.3509 -0.4034  1.6906
12413TIP3   OH258653   3.460   4.630   5.176 -0.1003 -0.3391 -0.1974
12413TIP3    H158654   3.535   4.587   5.218  0.3388  0.8435  0.2593
12413TIP3    H258655   3.498   4.708   5.134 -0.7427 -0.8431 -1.7359
12414TIP3   OH258656   5.321   6.008   2.982  0.1832  0.0135 -0.3531
12414TIP3    H158657   5.350   6.097   2.961 -0.3387 -0.0443 -1.3352
12414TIP3    H258658   5.289   6.013   3.072 -0.5557  0.9882 -0.6702
12415TIP3   OH258659   0.033   2.638  16.453 -0.2107  0.4108  0.1247
12415TIP3    H158660   0.079   2.683  16.524 -0.6722  1.2117 -0.0888
12415TIP3    H258661  -0.042   2.596  16.495  0.6620 -0.8451  0.4582
12416TIP3   OH258662   4.956   5.627   1.202 -0.1495 -0.1039  0.5660
12416TIP3    H158663   4.990   5.709   1.238  0.2380 -0.8028  1.8240
12416TIP3    H258664   4.862   5.641   1.194 -0.0452  0.5573  0.5326
12417TIP3   OH258665   6.229   5.139  14.335  0.0172 -0.5451 -0.3018
12417TIP3    H158666   6.302   5.188  14.374 -0.2746 -0.8623  0.6543
12417TIP3    H258667   6.151   5.178  14.375 -0.2067 -1.9535  0.6551
12418TIP3   OH258668   1.264   1.976  11.839 -0.0305  0.5724 -0.2020
12418TIP3    H158669   1.347   2.022  11.847  0.6119 -0.6475  0.2513
12418TIP3    H258670   1.201   2.032  11.885  0.9999  0.3535  1.5100
12419TIP3   OH258671   1.820   3.972   2.513 -0.7374  0.0568  0.2558
12419TIP3    H158672   1.769   4.031   2.567 -1.4505 -0.6327  0.3409
12419TIP3    H258673   1.847   3.902   2.572 -0.0574  0.1877  0.1112
12420TIP3   OH258674   0.539   1.663   3.710  0.1765 -0.5509 -0.5821
12420TIP3    H158675   0.554   1.574   3.740 -0.7534 -0.7596 -0.7217
12420TIP3    H258676   0.607   1.678   3.643  0.8103 -0.8759 -0.0153
12421TIP3   OH258677   2.329   3.173  12.698  0.2287 -0.0982 -0.6298
12421TIP3    H158678   2.389   3.247  12.697 -0.3413  0.3947  0.9360
12421TIP3    H258679   2.386   3.096  12.703  0.7594  0.3095 -0.3361
12422TIP3   OH258680   4.639   5.020  12.866 -0.3855 -0.1797 -0.5124
12422TIP3    H158681   4.564   4.965  12.845 -1.0877  0.5063  0.1386
12422TIP3    H258682   4.709   4.959  12.889 -1.3960 -0.8037  1.0154
12423TIP3   OH258683   3.737   3.911   6.370  0.2431 -0.1538 -0.0887
12423TIP3    H158684   3.785   3.992   6.354  2.3091 -1.1949  0.7502
12423TIP3    H258685   3.645   3.937   6.368  0.9021  2.3279  0.8598
12424TIP3   OH258686   1.432   3.983   1.464  0.4378  0.3503 -0.3366
12424TIP3    H158687   1.485   4.038   1.406 -1.2192  0.1977 -2.0302
12424TIP3    H258688   1.424   4.034   1.544  1.4425  1.2564 -0.7997
12425TIP3   OH258689   0.848   5.396  16.688  0.6592 -0.1285 -0.2914
12425TIP3    H158690   0.783   5.328  16.670  1.2556 -0.4991 -1.0737
12425TIP3    H258691   0.805   5.478  16.661 -0.0698 -0.1772  0.6758
12426TIP3   OH258692   4.619   2.230  17.106  0.3878 -0.3413 -0.6545
12426TIP3    H158693   4.581   2.293  17.045  0.8417  0.1584 -0.4214
12426TIP3    H258694   4.713   2.250  17.106  0.5361 -1.0270 -0.5906
12427TIP3   OH258695   1.375   4.255  12.713  0.2002 -0.2577 -0.3965
12427TIP3    H158696   1.351   4.336  12.668 -1.0724 -0.6154 -0.3777
12427TIP3    H258697   1.416   4.285  12.794 -0.4303  0.3751 -0.2989
12428TIP3   OH258698   4.149   6.343  15.718  0.0934  0.0128  0.6447
12428TIP3    H158699   4.156   6.357  15.812  1.5401 -0.1728  0.5794
12428TIP3    H258700   4.212   6.274  15.699  0.2291  0.4436 -0.5358
12429TIP3   OH258701   3.638   1.312  13.586 -0.1692  0.2857  0.1645
12429TIP3    H158702   3.635   1.342  13.677 -0.9482  3.0402 -0.7198
12429TIP3    H258703   3.595   1.381  13.537  0.6101 -0.9807 -2.3774
12430TIP3   OH258704   1.531   3.592   5.374 -0.1365 -0.5365  0.3062
12430TIP3    H158705   1.623   3.575   5.356 -0.0157  1.1878 -0.8738
12430TIP3    H258706   1.487   3.508   5.360  0.8926 -0.7528 -1.7565
12431TIP3   OH258707   1.359   4.559  11.644 -0.4131  0.2219 -0.6393
12431TIP3    H158708   1.420   4.630  11.662 -0.2098  0.0141 -0.5140
12431TIP3    H258709   1.395   4.484  11.690 -1.9030  0.6273  1.2368
12432TIP3   OH258710   2.433   1.124   4.239  0.0145 -0.2069  0.5158
12432TIP3    H158711   2.416   1.138   4.333  1.0311  2.8787  0.3020
12432TIP3    H258712   2.518   1.164   4.224 -0.2736 -0.4032 -1.7899
12433TIP3   OH258713   5.781   5.808  13.121  0.4749 -0.2969 -0.6691
12433TIP3    H158714   5.811   5.748  13.053 -0.1131 -1.1149 -0.2194
12433TIP3    H258715   5.861   5.837  13.165  0.8034 -0.2816 -1.2758
12434TIP3   OH258716   4.922   3.370  10.833 -0.5686  0.6063 -0.1654
12434TIP3    H158717   4.970   3.417  10.766 -0.1493 -0.0058 -0.3036
12434TIP3    H258718   4.898   3.287  10.792  0.4277 -0.1273  0.6964
12435TIP3   OH258719   2.345   0.984  13.284 -0.5571  0.1687 -0.1616
12435TIP3    H158720   2.431   1.026  13.291 -0.9304  0.8562  0.3268
12435TIP3    H258721   2.327   0.982  13.190  0.3684 -0.7529 -0.3329
12436TIP3   OH258722   5.000   0.698   5.720  0.0136 -0.0185  0.1195
12436TIP3    H158723   5.080   0.654   5.691  1.0220  1.4215  0.6921
12436TIP3    H258724   4.940   0.691   5.645  0.7321 -0.9195 -0.3823
12437TIP3   OH258725   2.738   2.707  13.951  0.1947 -0.0095  0.0569
12437TIP3    H158726   2.724   2.636  14.014  1.3828 -0.5660 -0.2836
12437TIP3    H258727   2.683   2.779  13.983  0.2832 -0.5057  1.3678
12438TIP3   OH258728   3.816   2.797  13.820  0.2103  0.0528 -0.3982
12438TIP3    H158729   3.843   2.705  13.813  1.3700  0.4987 -1.9835
12438TIP3    H258730   3.853   2.839  13.743  0.3037  2.0197  0.6815
12439TIP3   OH258731   4.354   5.283  11.032 -0.2006  0.0493 -0.3200
12439TIP3    H158732   4.264   5.285  11.065 -0.6407  0.6974 -1.5568
12439TIP3    H258733   4.363   5.362  10.981  0.1376 -1.4448 -2.6397
12440TIP3   OH258734   3.455   3.775  13.748  0.1953  0.1193  0.5877
12440TIP3    H158735   3.452   3.741  13.658 -1.0119  2.8701 -0.4647
12440TIP3    H258736   3.501   3.707  13.798  2.3883 -0.7366 -2.4440
12441TIP3   OH258737   0.782   5.774  14.537 -0.2792 -1.0201 -0.3800
12441TIP3    H158738   0.866   5.798  14.498 -0.8966  2.1952  0.0874
12441TIP3    H258739   0.717   5.797  14.471 -1.2131  3.0332  1.7563
12442TIP3   OH258740   5.277   0.734   6.267  0.0509 -0.4648  0.1239
12442TIP3    H158741   5.206   0.690   6.316  0.3224 -1.9151 -0.7617
12442TIP3    H258742   5.258   0.715   6.176 -0.8656  2.8597 -0.4593
12443TIP3   OH258743   6.149   0.578  11.714  0.0042 -0.1829  0.3592
12443TIP3    H158744   6.229   0.551  11.758 -1.3920 -2.5044  1.5564
12443TIP3    H258745   6.152   0.533  11.630  0.3635  0.4369  0.0358
12444TIP3   OH258746   1.859   1.507   5.000  0.3083 -0.3758  0.1424
12444TIP3    H158747   1.776   1.518   5.047  0.4632  0.1078  0.3026
12444TIP3    H258748   1.844   1.431   4.943 -0.1255 -0.5108  0.4320
12445TIP3   OH258749   3.222   6.013   3.181 -0.5124  0.0164 -0.6610
12445TIP3    H158750   3.134   6.015   3.218 -0.5907 -1.4964 -0.7198
12445TIP3    H258751   3.208   6.001   3.087 -0.2656  1.3843 -0.8848
12446TIP3   OH258752   1.108   4.956  15.913 -0.2530 -0.6576 -0.2335
12446TIP3    H158753   1.137   4.956  15.822 -0.8656 -1.6294 -0.4450
12446TIP3    H258754   1.133   4.869  15.946  0.5405 -0.0864  0.7214
12447TIP3   OH258755   4.085   2.850  11.792 -0.2171 -0.2585 -0.3423
12447TIP3    H158756   4.100   2.781  11.728  0.2384  0.7873 -1.3913
12447TIP3    H258757   4.137   2.924  11.760  0.7437  0.0037  1.7221
12448TIP3   OH258758   3.414   5.060   0.774  1.0513 -0.0789 -0.4823
12448TIP3    H158759   3.323   5.074   0.745  1.2147 -0.2434 -1.0851
12448TIP3    H258760   3.421   5.109   0.856  0.7525  0.8675 -1.0184
12449TIP3   OH258761   0.841   3.295   1.729  0.4715  0.0496  0.0796
12449TIP3    H158762   0.747   3.278   1.726 -0.0446  2.6292  0.2106
12449TIP3    H258763   0.873   3.270   1.642 -0.2292 -1.3012  0.2035
12450TIP3   OH258764   0.536   3.289   4.435  0.2798 -0.1244 -0.3392
12450TIP3    H158765   0.581   3.324   4.358 -0.0899 -0.5833 -0.7740
12450TIP3    H258766   0.467   3.353   4.454  0.5434  0.1250 -0.2237
12451TIP3   OH258767   4.903   5.385   0.481 -0.7077  0.3481 -0.3121
12451TIP3    H158768   4.915   5.397   0.575  1.1192 -1.5006 -0.2640
12451TIP3    H258769   4.978   5.331   0.454  0.0234  2.7003 -3.2198
12452TIP3   OH258770   6.327   1.460   2.977 -0.2704 -0.2037 -0.4172
12452TIP3    H158771   6.269   1.523   3.019 -0.8995 -1.6583  0.9609
12452TIP3    H258772   6.412   1.475   3.018 -0.5521 -0.6482  0.3263
12453TIP3   OH258773   2.818   5.393  11.153  0.5161  0.4065  0.1231
12453TIP3    H158774   2.741   5.338  11.138 -0.1029  1.4451 -0.6036
12453TIP3    H258775   2.866   5.349  11.223 -0.8269 -0.1725  0.7081
12454TIP3   OH258776   0.609   0.887  11.191  0.1940 -0.2368  0.6136
12454TIP3    H158777   0.617   0.953  11.260 -0.4895 -1.2134  1.6245
12454TIP3    H258778   0.687   0.833  11.200  0.9501  0.6369 -0.4620
12455TIP3   OH258779   1.328   0.330  12.700 -0.7686 -0.2952  0.2531
12455TIP3    H158780   1.295   0.352  12.787 -2.1848 -1.0332 -0.0710
12455TIP3    H258781   1.359   0.413  12.664 -0.0680 -0.0009  1.4902
12456TIP3   OH258782   4.290   6.538   3.102  0.2717 -0.4868 -0.0507
12456TIP3    H158783   4.366   6.588   3.133  0.2112 -1.1936  1.2946
12456TIP3    H258784   4.231   6.536   3.178 -1.0445 -0.0258 -1.0591
12457TIP3   OH258785   2.361   0.619  12.941 -0.3783  1.0956  0.2381
12457TIP3    H158786   2.290   0.673  12.905  0.8853  2.0108 -0.9186
12457TIP3    H258787   2.359   0.638  13.035 -1.4893  1.3167  0.1842
12458TIP3   OH258788   2.989   6.394  17.210  0.5280  0.0898  0.3410
12458TIP3    H158789   3.005   6.417  17.118 -1.4908  2.6523  0.5738
12458TIP3    H258790   2.905   6.347  17.208 -0.5061  1.8721  1.0710
12459TIP3   OH258791   2.078   0.863   1.852 -0.4165 -0.2879  0.1858
12459TIP3    H158792   1.990   0.826   1.841 -0.5594 -0.5748  2.0918
12459TIP3    H258793   2.136   0.797   1.813 -0.9621 -0.6841  0.0248
12460TIP3   OH258794   2.765   1.484   1.083 -0.1618  0.1479 -0.1589
12460TIP3    H158795   2.846   1.534   1.087  0.5600 -1.0554  0.9021
12460TIP3    H258796   2.789   1.403   1.038 -0.6999 -0.3333  0.4042
12461TIP3   OH258797   2.938   4.355  13.367  0.6611 -0.3274  0.0295
12461TIP3    H158798   2.849   4.375  13.395 -0.1386 -1.9452 -1.2837
12461TIP3    H258799   2.952   4.411  13.291  0.5527 -0.4990 -0.1165
12462TIP3   OH258800   0.275   5.880  14.624 -0.2259  0.0018  0.2122
12462TIP3    H158801   0.201   5.942  14.620 -1.2404 -1.2596 -1.1045
12462TIP3    H258802   0.233   5.794  14.630  1.1266 -0.8144 -1.8359
12463TIP3   OH258803   1.292   4.414  16.688 -0.0633 -0.3670  0.1763
12463TIP3    H158804   1.314   4.473  16.616 -0.4315  1.2135  1.3335
12463TIP3    H258805   1.371   4.410  16.741 -0.3040 -0.2455  0.5486
12464TIP3   OH258806   2.604   2.131  13.987  0.1796  0.1026 -0.0152
12464TIP3    H158807   2.696   2.159  13.984 -0.0189  0.8406  0.4689
12464TIP3    H258808   2.557   2.209  14.016 -0.7385  0.0402 -1.3262
12465TIP3   OH258809   3.405   4.295   5.654 -0.2180  0.6473  0.0315
12465TIP3    H158810   3.396   4.390   5.660  1.0896  0.8507 -0.9021
12465TIP3    H258811   3.355   4.272   5.575 -0.1908  0.6164  0.0238
12466TIP3   OH258812   5.131   1.290   6.002 -0.5311  0.3369  0.2718
12466TIP3    H158813   5.179   1.270   5.921 -1.1781  0.5315 -0.1617
12466TIP3    H258814   5.187   1.351   6.050  0.7858 -1.3354  0.9060
12467TIP3   OH258815   0.498   2.794  15.358  0.5260  0.2686  0.2106
12467TIP3    H158816   0.488   2.752  15.273  3.1433 -0.7227  0.3332
12467TIP3    H258817   0.420   2.848  15.368  0.0130  0.1421 -2.6694
12468TIP3   OH258818   0.162   5.405   1.892  0.6216 -0.1945  0.0603
12468TIP3    H158819   0.227   5.449   1.947 -0.2929 -0.7215  1.5919
12468TIP3    H258820   0.190   5.313   1.892  0.0186 -0.3825  0.5432
12469TIP3   OH258821   5.301   1.959  15.504 -0.2020 -0.3803  0.5552
12469TIP3    H158822   5.345   1.893  15.557 -2.9815 -2.5678  0.2341
12469TIP3    H258823   5.226   1.986  15.557 -0.6639  0.4609 -0.5022
12470TIP3   OH258824   1.846   0.138  16.141 -0.1229 -0.3651 -0.0013
12470TIP3    H158825   1.891   0.122  16.058  0.3596 -1.7403  0.5104
12470TIP3    H258826   1.830   0.050  16.177 -0.2190  0.2211  1.4121
12471TIP3   OH258827   2.392   3.502  14.606 -0.5379 -0.5101  0.7242
12471TIP3    H158828   2.453   3.538  14.670  1.2795 -1.1752 -0.5930
12471TIP3    H258829   2.427   3.415  14.585 -2.1381 -1.0517  0.2106
12472TIP3   OH258830   2.367   3.560  11.091 -0.4024 -0.1742 -0.2349
12472TIP3    H158831   2.444   3.615  11.107  1.5801 -2.5665 -1.3900
12472TIP3    H258832   2.346   3.575  10.999 -1.1443  0.2297 -0.0024
12473TIP3   OH258833   6.510   4.853  13.926  0.4363  0.1868  0.0633
12473TIP3    H158834   6.463   4.774  13.897  0.8947 -0.5141  1.2026
12473TIP3    H258835   6.445   4.901  13.978 -0.0277  0.8701 -1.1235
12474TIP3   OH258836   4.597   4.866   1.553  0.0215  0.1820 -0.1304
12474TIP3    H158837   4.532   4.821   1.499 -1.5819 -0.3299  2.1463
12474TIP3    H258838   4.677   4.863   1.501 -1.3961 -0.4709 -2.3751
12475TIP3   OH258839   5.931   5.892   3.967  0.1280 -0.3902  0.0425
12475TIP3    H158840   5.874   5.875   3.892  0.9667 -1.2006 -0.4384
12475TIP3    H258841   6.020   5.880   3.932  0.4685 -4.1100  1.9182
12476TIP3   OH258842   5.847   4.979  15.866  0.1657 -0.3838  0.1282
12476TIP3    H158843   5.757   5.001  15.890  0.1060 -0.7197  0.2134
12476TIP3    H258844   5.861   4.892  15.903  0.1118 -0.8641 -0.9577
12477TIP3   OH258845   1.274   3.809   4.801  0.7957 -0.1814  0.1013
12477TIP3    H158846   1.345   3.846   4.855 -0.4606  0.1134  1.6022
12477TIP3    H258847   1.204   3.790   4.864  0.0490 -1.7514 -1.1676
12478TIP3   OH258848   5.813   6.734  11.486  0.1944 -0.7893  0.0866
12478TIP3    H158849   5.891   6.700  11.531  0.7839 -0.8272 -0.9382
12478TIP3    H258850   5.766   6.783  11.554  1.1056 -0.7800  0.7319
12479TIP3   OH258851   0.454   1.158   6.244 -0.1069  0.2589  1.0752
12479TIP3    H158852   0.460   1.086   6.181  0.6192  1.8494 -0.7247
12479TIP3    H258853   0.401   1.123   6.315  2.5631 -2.9893  1.5763
12480TIP3   OH258854   3.038   0.537   2.748  0.2675 -0.0969 -0.1531
12480TIP3    H158855   3.072   0.580   2.669 -0.4286 -0.8421 -0.8795
12480TIP3    H258856   3.061   0.596   2.820  0.9898  0.5537 -0.9071
12481TIP3   OH258857   6.011   1.625  12.743  0.1492 -0.0103 -0.0893
12481TIP3    H158858   5.996   1.553  12.804 -1.3470 -0.3531 -0.8334
12481TIP3    H258859   5.989   1.589  12.657  0.0298  1.1336 -0.5475
12482TIP3   OH258860   2.954   4.533   4.872  0.1975 -0.3926  0.4466
12482TIP3    H158861   2.932   4.577   4.955 -2.3872 -0.8125  0.0371
12482TIP3    H258862   2.953   4.440   4.893 -0.4669 -0.5005 -0.0519
12483TIP3   OH258863   5.385   2.262  16.401 -0.3727  0.4450 -0.6820
12483TIP3    H158864   5.401   2.173  16.432 -2.7853 -0.5312 -2.0655
12483TIP3    H258865   5.389   2.317  16.479  1.8838 -0.7469  0.0781
12484TIP3   OH258866   5.148   6.433  11.026 -0.3817 -0.0116  0.3265
12484TIP3    H158867   5.119   6.519  11.057 -0.8478 -1.4617  4.2114
12484TIP3    H258868   5.240   6.445  11.005  0.1239  0.9742  2.9235
12485TIP3   OH258869   1.989   0.887  16.723 -0.0107  0.1910  0.0231
12485TIP3    H158870   1.899   0.913  16.701 -0.1569 -0.4028 -0.0761
12485TIP3    H258871   2.012   0.943  16.797 -1.2933 -1.2848  1.5670
12486TIP3   OH258872   0.615   3.153   1.760 -0.2973  0.1543 -0.2937
12486TIP3    H158873   0.621   3.064   1.792 -0.4634  0.8467  1.7181
12486TIP3    H258874   0.524   3.163   1.733 -0.1949 -0.3848 -0.8467
12487TIP3   OH258875   1.643   4.444  10.881  0.7582 -0.1153  0.3276
12487TIP3    H158876   1.621   4.359  10.844 -1.1015  0.3953  0.1590
12487TIP3    H258877   1.692   4.488  10.812 -2.0757  0.5596 -1.3628
12488TIP3   OH258878   1.989   0.714  14.625 -0.4608  0.2108 -0.0419
12488TIP3    H158879   1.949   0.627  14.614 -0.0399  0.1697 -1.3755
12488TIP3    H258880   2.058   0.702  14.690 -0.3356 -0.4826 -0.3025
12489TIP3   OH258881   2.882   4.674   1.132 -0.2756  0.0137  0.0664
12489TIP3    H158882   2.886   4.740   1.063 -1.6042  0.5256  0.4615
12489TIP3    H258883   2.822   4.608   1.099 -0.3150 -0.1221  0.4028
12490TIP3   OH258884   5.170   4.700   3.869  0.2594 -0.3164  0.0112
12490TIP3    H158885   5.196   4.790   3.847 -2.2558  0.8068  1.4115
12490TIP3    H258886   5.105   4.710   3.938 -1.0903 -3.1916 -0.7700
12491TIP3   OH258887   0.158   2.013  11.732 -0.3587  0.0149 -0.1765
12491TIP3    H158888   0.114   1.931  11.709  1.2141 -0.2849 -2.2899
12491TIP3    H258889   0.147   2.068  11.655 -1.4271  1.8530  1.2372
12492TIP3   OH258890   1.578   6.082  12.680  0.4997  0.0857  0.3971
12492TIP3    H158891   1.608   6.018  12.745  0.3840 -1.8067 -1.3494
12492TIP3    H258892   1.555   6.159  12.732  2.2556 -0.6594  2.4054
12493TIP3   OH258893   2.767   5.281   6.079  0.1141 -0.0760 -0.1927
12493TIP3    H158894   2.793   5.269   6.171  0.5218 -0.6083 -0.3741
12493TIP3    H258895   2.849   5.276   6.030 -0.1175  0.0753 -0.5993
12494TIP3   OH258896   1.460   6.211  16.293  0.0039 -0.5040 -0.1241
12494TIP3    H158897   1.427   6.263  16.220  0.8198  1.5549  0.9491
12494TIP3    H258898   1.547   6.246  16.311  0.9377 -2.8260  0.0800
12495TIP3   OH258899   5.354   6.134   0.893 -0.1979  0.0628 -0.1333
12495TIP3    H158900   5.296   6.209   0.888 -0.9866 -0.4218  1.2196
12495TIP3    H258901   5.356   6.112   0.986  0.3408 -1.3322 -0.4571
12496TIP3   OH258902   2.916   2.715  15.913 -0.5841  0.1394  0.0400
12496TIP3    H158903   2.927   2.714  16.008  0.3495  1.1501 -0.0471
12496TIP3    H258904   2.821   2.714  15.900 -0.7382  1.0598  0.9972
12497TIP3   OH258905   4.118   2.405   0.807  0.0146 -0.4826 -0.3011
12497TIP3    H158906   4.196   2.383   0.857  0.4052 -0.3921 -0.8734
12497TIP3    H258907   4.046   2.392   0.869  0.5046 -0.2360  0.3254
12498TIP3   OH258908   2.483   1.851   4.483  0.1896  0.2768 -0.1345
12498TIP3    H158909   2.525   1.886   4.561 -1.1189 -0.7307  1.0458
12498TIP3    H258910   2.436   1.773   4.513 -2.3079  1.2186 -1.4245
12499TIP3   OH258911   1.433   6.174  15.849 -0.3747 -0.1360  0.0368
12499TIP3    H158912   1.370   6.109  15.881  1.0725 -0.4939  2.2343
12499TIP3    H258913   1.409   6.255  15.895  1.7425 -0.6659  2.2080
12500TIP3   OH258914   5.363   4.516  14.908 -0.0522 -0.5240  0.0086
12500TIP3    H158915   5.453   4.543  14.926  0.3940 -1.0853 -1.3300
12500TIP3    H258916   5.314   4.598  14.898  0.3189 -0.2219  0.6673
12501TIP3   OH258917   6.027   6.306   2.127  0.4805 -0.7141 -0.2044
12501TIP3    H158918   6.117   6.329   2.101  0.7218 -0.2956  0.9511
12501TIP3    H258919   5.972   6.372   2.084  0.6637 -1.2821 -1.3419
12502TIP3   OH258920   0.626   0.115   4.716  0.0670 -0.0694 -0.0123
12502TIP3    H158921   0.610   0.163   4.634  1.9166  1.8079  0.6516
12502TIP3    H258922   0.721   0.101   4.716 -0.3854 -3.3493  0.0697
12503TIP3   OH258923   0.134   4.085   3.476  0.4358  0.1347  0.0898
12503TIP3    H158924   0.115   4.085   3.570  1.7375 -0.5236  0.3698
12503TIP3    H258925   0.210   4.028   3.467  1.2956  1.4390 -1.1697
12504TIP3   OH258926   3.154   3.805   3.730 -0.2288  0.1135 -0.1482
12504TIP3    H158927   3.194   3.873   3.784  0.4942 -0.9791  0.7105
12504TIP3    H258928   3.203   3.725   3.751 -0.5813 -0.5301 -1.6840
12505TIP3   OH258929   6.201   4.900  11.190 -0.2477 -0.1359 -0.0052
12505TIP3    H158930   6.205   4.962  11.117  2.3075 -0.2629  0.0016
12505TIP3    H258931   6.261   4.831  11.166 -0.8944 -1.1844  1.3350
12506TIP3   OH258932   2.134   3.113   1.068 -0.4128 -0.5406  0.1857
12506TIP3    H158933   2.110   3.192   1.019  1.1591  0.1714  0.5165
12506TIP3    H258934   2.073   3.046   1.037  0.4712 -0.0748 -2.6750
12507TIP3   OH258935   6.734   6.639  12.722  0.1188 -0.1359  0.3457
12507TIP3    H158936   6.734   6.631  12.626  2.4111  1.4331  0.1636
12507TIP3    H258937   6.753   6.551  12.753 -0.9233 -0.7167 -0.6373
12508TIP3   OH258938   5.112   0.724  13.007  0.2933  0.5344  0.1701
12508TIP3    H158939   5.101   0.755  12.917 -0.3859  0.0003  0.0647
12508TIP3    H258940   5.151   0.798  13.054 -0.7593  1.3328 -0.2025
12509TIP3   OH258941   1.368   5.887   1.900 -0.5481 -0.3047  0.1521
12509TIP3    H158942   1.437   5.873   1.835  1.2699 -0.6132  2.0987
12509TIP3    H258943   1.293   5.916   1.849  1.2630  0.8581 -1.9470
12510TIP3   OH258944   0.306   4.496   1.171  0.1245  0.4197  0.8816
12510TIP3    H158945   0.375   4.561   1.160 -0.6860  1.2912  0.9418
12510TIP3    H258946   0.345   4.414   1.140  1.0363  0.9916  0.5144
12511TIP3   OH258947   4.465   4.111  11.083  0.0727 -0.0056  0.1615
12511TIP3    H158948   4.401   4.045  11.058  0.8541 -1.2215  1.2935
12511TIP3    H258949   4.541   4.093  11.028 -1.0368  2.3597 -2.2353
12512TIP3   OH258950   1.625   3.330   1.998 -0.4072 -0.3535 -0.0020
12512TIP3    H158951   1.567   3.290   2.063 -0.8302  0.6971  0.2766
12512TIP3    H258952   1.587   3.305   1.914 -0.1466 -1.2957  0.1546
12513TIP3   OH258953   3.738   0.328   3.280  0.2167 -0.5583 -0.0975
12513TIP3    H158954   3.704   0.268   3.346 -0.5006  0.0693  0.1003
12513TIP3    H258955   3.686   0.408   3.290  3.2379  1.2897  1.8064
12514TIP3   OH258956   6.385   1.213   1.912 -0.1433  0.2652  0.0701
12514TIP3    H158957   6.331   1.135   1.902  1.1529 -0.3029 -3.0445
12514TIP3    H258958   6.326   1.286   1.895 -0.1881 -0.3151 -2.4425
12515TIP3   OH258959   6.719   0.761   2.834 -0.3723  0.0013  0.6668
12515TIP3    H158960   6.754   0.850   2.837 -0.7185  0.3039 -2.4481
12515TIP3    H258961   6.673   0.756   2.750  0.7293 -3.5053  0.1652
12516TIP3   OH258962   0.149   4.931   0.427 -0.4878  0.4543  0.1621
12516TIP3    H158963   0.133   5.025   0.417 -0.9010  0.7305  3.1770
12516TIP3    H258964   0.065   4.895   0.456 -0.2738 -0.8543 -0.7627
12517TIP3   OH258965   0.043   1.821  10.886  0.0548  0.4630  0.0094
12517TIP3    H158966  -0.020   1.785  10.823 -1.6022  2.1383  0.6730
12517TIP3    H258967  -0.011   1.851  10.959  1.8882 -0.7917  1.9276
12518TIP3   OH258968   5.395   3.200  15.863  0.0022  0.0392  0.0033
12518TIP3    H158969   5.380   3.294  15.872  1.0225  0.4013 -1.8278
12518TIP3    H258970   5.481   3.185  15.902 -1.2432 -0.6109  2.6602
12519TIP3   OH258971   5.942   5.470  11.904 -0.4275 -0.1534  0.0871
12519TIP3    H158972   5.976   5.407  11.840 -2.0181  0.1022 -1.0542
12519TIP3    H258973   6.002   5.464  11.978  0.5694 -1.5901 -0.8077
12520TIP3   OH258974   4.036   4.421  13.262 -0.6153  0.4477 -0.5466
12520TIP3    H158975   4.034   4.513  13.237  0.0904 -0.4058 -3.9893
12520TIP3    H258976   4.128   4.405  13.286 -0.7165  0.6030 -0.0465
12521TIP3   OH258977   0.477   3.275   5.516 -0.3382 -0.5115  0.2552
12521TIP3    H158978   0.568   3.258   5.543 -0.4837 -0.1044  1.0173
12521TIP3    H258979   0.432   3.298   5.597 -1.0881 -0.5435 -0.1486
12522TIP3   OH258980   3.461   1.010  14.290  0.4865 -0.3910 -0.0133
12522TIP3    H158981   3.516   0.935  14.314  1.4893  0.2121 -0.4281
12522TIP3    H258982   3.431   1.045  14.374  1.0726 -0.4647  0.2262
12523TIP3   OH258983   0.261   3.996  13.731 -0.6147  0.3144 -0.3408
12523TIP3    H158984   0.284   3.993  13.823 -1.5551  1.1001 -0.0734
12523TIP3    H258985   0.345   3.992  13.685 -0.1955 -1.1637  0.5040
12524TIP3   OH258986   0.311   3.746  16.530  0.2397 -0.1818 -0.1311
12524TIP3    H158987   0.364   3.742  16.610 -0.5879 -1.1407  0.3912
12524TIP3    H258988   0.365   3.703  16.464  0.9445  0.6462 -0.0957
12525TIP3   OH258989   1.310   3.745  16.404  0.3147 -0.1223  0.3410
12525TIP3    H158990   1.374   3.815  16.399 -0.6656  0.7502 -0.0741
12525TIP3    H258991   1.335   3.684  16.335 -0.3727  1.1171 -1.0247
12526TIP3   OH258992   3.170   0.838  12.745  0.3461 -0.6284 -0.0783
12526TIP3    H158993   3.143   0.766  12.689 -1.3285 -0.8064  0.9135
12526TIP3    H258994   3.223   0.894  12.689  0.1556 -1.7085 -1.3476
12527TIP3   OH258995   3.054   0.201  12.529  0.2759 -0.1395 -1.3360
12527TIP3    H158996   2.993   0.183  12.457  0.3111 -1.0147 -1.1574
12527TIP3    H258997   3.065   0.116  12.572  0.5445  0.3049 -0.5274
12528TIP3   OH258998   0.036   1.331   3.601 -0.9859  0.2506  0.1648
12528TIP3    H158999   0.091   1.337   3.679 -0.1846 -0.0078 -0.3632
12528TIP3    H259000   0.055   1.244   3.566 -0.8523  0.6011 -0.6585
12529TIP3   OH259001   1.008   1.155   2.970 -0.3676 -0.3357  0.5205
12529TIP3    H159002   1.058   1.143   3.050 -0.0994  2.5366  0.8431
12529TIP3    H259003   1.067   1.203   2.911 -3.2611  5.1170  1.6968
12530TIP3   OH259004   5.958   0.501  17.143 -0.5902 -0.1710  0.1181
12530TIP3    H159005   5.988   0.572  17.199  1.8333 -1.3453  0.3865
12530TIP3    H259006   5.939   0.429  17.204  0.8243 -1.0294 -0.4280
12531TIP3   OH259007   4.448   6.716  14.934 -0.1615  0.0284  0.3544
12531TIP3    H159008   4.361   6.677  14.945 -1.1926  1.6152 -1.7586
12531TIP3    H259009   4.480   6.730  15.023 -1.2781 -2.2607  1.1547
12532TIP3   OH259010   4.544   3.837   1.985  0.1655  0.9902  1.0458
12532TIP3    H159011   4.462   3.797   1.956 -0.6816  2.5206  1.2884
12532TIP3    H259012   4.561   3.798   2.071 -0.7819  1.3489  1.3940
12533TIP3   OH259013   4.976   1.628   4.987  0.3218 -0.2420 -0.2338
12533TIP3    H159014   4.888   1.591   4.995 -0.7094  2.3935  1.4868
12533TIP3    H259015   5.033   1.566   5.032 -1.0657 -0.6568  0.9602
12534TIP3   OH259016   0.980   2.398  11.787 -0.3026  0.7838  0.0484
12534TIP3    H159017   0.938   2.373  11.705  0.4599  1.4194 -0.5482
12534TIP3    H259018   0.923   2.465  11.824 -0.4517  0.7668 -0.1501
12535TIP3   OH259019   0.063   0.093   3.214 -0.3162  0.2139  0.3472
12535TIP3    H159020  -0.025   0.083   3.178  0.2661  1.2603 -1.4351
12535TIP3    H259021   0.096   0.173   3.173  1.9228 -0.8385  0.0728
12536TIP3   OH259022   3.683   1.859   1.018 -0.7448  0.3142  0.2377
12536TIP3    H159023   3.615   1.816   1.070 -0.2445  0.2801  0.8702
12536TIP3    H259024   3.760   1.803   1.029  0.3704  2.1656  2.3366
12537TIP3   OH259025   4.054   1.767  14.379  0.2667  0.4102  0.0404
12537TIP3    H159026   4.068   1.840  14.440 -0.6007  0.7736 -0.1877
12537TIP3    H259027   3.970   1.786  14.337  1.2229  0.5979 -1.8739
12538TIP3   OH259028   2.860   0.206  16.869 -0.1725  0.1774  0.2436
12538TIP3    H159029   2.783   0.193  16.925 -0.5970 -1.0524 -0.6173
12538TIP3    H259030   2.895   0.291  16.896 -1.2618  0.2953  1.3177
12539TIP3   OH259031   5.813   1.479  15.860  0.2280 -0.3369 -0.4076
12539TIP3    H159032   5.776   1.447  15.942 -1.5581  1.1670 -0.5831
12539TIP3    H259033   5.865   1.406  15.826 -1.2059 -1.9177  0.7167
12540TIP3   OH259034   0.920   2.778   3.533  0.0891  0.4949 -0.5738
12540TIP3    H159035   0.991   2.714   3.520 -0.1938  0.1204 -0.3056
12540TIP3    H259036   0.957   2.861   3.506  1.5680  0.7932  2.1835
12541TIP3   OH259037   2.873   6.762   5.548 -0.0744  0.5304 -0.0635
12541TIP3    H159038   2.964   6.758   5.517 -0.2007 -0.1809 -0.3548
12541TIP3    H259039   2.877   6.730   5.638 -0.5045 -2.6778 -1.1315
12542TIP3   OH259040   5.150   3.641   3.349  0.1803 -0.5952  0.4198
12542TIP3    H159041   5.224   3.593   3.386  0.4186  0.8562  1.9074
12542TIP3    H259042   5.181   3.731   3.340 -1.4172  0.0655  1.1598
12543TIP3   OH259043   5.708   5.286   5.221  0.5212 -0.2575 -0.2448
12543TIP3    H159044   5.786   5.299   5.274  0.6343  1.8002 -0.8592
12543TIP3    H259045   5.740   5.248   5.140  0.6345 -1.2458  0.2595
12544TIP3   OH259046   5.801   3.876   2.906  0.3257  0.4484  0.7161
12544TIP3    H159047   5.892   3.884   2.933 -0.2900  0.9911  2.7458
12544TIP3    H259048   5.777   3.786   2.931 -0.1787  0.8735  1.7905
12545TIP3   OH259049   0.864   3.807   2.419  0.0476  0.2214 -0.1865
12545TIP3    H159050   0.812   3.759   2.355 -1.6036  0.3244  1.0544
12545TIP3    H259051   0.917   3.867   2.367 -0.9132 -0.0430 -1.4795
12546TIP3   OH259052   0.068   6.189  13.031  0.2080 -0.4912 -0.3596
12546TIP3    H159053   0.068   6.200  13.126  1.3409 -0.0021 -0.4202
12546TIP3    H259054  -0.005   6.128  13.015  0.6391 -1.3654  0.9093
12547TIP3   OH259055   3.776   3.882  13.044  0.1837 -0.7454 -0.0137
12547TIP3    H159056   3.690   3.874  13.085 -0.4817  0.3138 -1.1914
12547TIP3    H259057   3.815   3.795  13.053 -0.7911 -1.0866  0.9871
12548TIP3   OH259058   2.957   3.681   3.514 -0.1703  0.6793  0.2987
12548TIP3    H159059   2.951   3.586   3.498  0.4133  0.6759  0.1051
12548TIP3    H259060   3.049   3.702   3.498 -0.4046  1.3640 -0.1331
12549TIP3   OH259061   1.030   5.877   5.528 -0.6523 -0.1529  0.2214
12549TIP3    H159062   1.018   5.797   5.477  0.2055  0.6795 -1.2948
12549TIP3    H259063   1.037   5.947   5.463 -0.4402  1.0337  1.4996
12550TIP3   OH259064   2.253   2.191  16.811  0.4944 -0.3233 -0.2333
12550TIP3    H159065   2.258   2.204  16.906  0.0026 -1.1682 -0.0920
12550TIP3    H259066   2.324   2.130  16.791  0.4123 -0.3733 -0.3717
12551TIP3   OH259067   5.610   2.741  14.519  0.1726 -0.1318 -0.2898
12551TIP3    H159068   5.585   2.818  14.571  1.5930 -0.0368  0.2682
12551TIP3    H259069   5.684   2.703  14.567 -0.9932 -2.2936 -0.1416
12552TIP3   OH259070   4.437   2.677   0.877 -0.0846  0.0343 -0.2760
12552TIP3    H159071   4.441   2.690   0.782  0.1533  3.1478  0.0979
12552TIP3    H259072   4.513   2.621   0.897  0.0512 -0.3631 -1.8658
12553TIP3   OH259073   5.028   5.489  16.223 -0.6508  0.1366  0.7919
12553TIP3    H159074   5.112   5.536  16.224 -2.6546  3.9101 -0.2618
12553TIP3    H259075   5.007   5.476  16.315  0.3119  0.6777  1.1002
12554TIP3   OH259076   5.212   5.036   2.967  0.6397  0.4843  0.4457
12554TIP3    H159077   5.275   5.107   2.952  0.1327  0.5535 -1.6100
12554TIP3    H259078   5.218   4.982   2.888 -0.7245 -0.4134  0.9323
12555TIP3   OH259079   1.011   4.758   2.029  1.0310  0.4950 -0.3673
12555TIP3    H159080   1.040   4.833   2.081  0.0225  0.8328 -0.2803
12555TIP3    H259081   1.085   4.739   1.971  1.7111  0.8637  0.3612
12556TIP3   OH259082   4.201   5.259   4.310  0.1198  0.4341  0.0821
12556TIP3    H159083   4.124   5.269   4.367 -1.2932 -0.8050 -1.5681
12556TIP3    H259084   4.265   5.214   4.365 -1.6400 -1.8102  0.3980
12557TIP3   OH259085   0.952   5.949  16.264 -0.2393  0.1274  0.1320
12557TIP3    H159086   1.020   5.938  16.330 -1.2377  1.2689  1.3899
12557TIP3    H259087   0.976   5.888  16.195  2.0674  0.5329  0.5256
12558TIP3   OH259088   3.602   6.430   2.256 -0.2675 -0.1101  0.4751
12558TIP3    H159089   3.590   6.504   2.197  1.7280  1.6171  2.1421
12558TIP3    H259090   3.647   6.364   2.203 -0.2503  0.6587 -0.4873
12559TIP3   OH259091   5.083   1.280   0.381  0.5063  0.6065 -0.3643
12559TIP3    H159092   5.004   1.270   0.328 -0.0516  0.8261  0.4185
12559TIP3    H259093   5.106   1.373   0.374 -1.2996  1.3171  2.1687
12560TIP3   OH259094   1.593   0.195  16.640 -0.0921  0.4389 -0.2923
12560TIP3    H159095   1.507   0.168  16.608 -0.3578  0.6568  0.2425
12560TIP3    H259096   1.652   0.181  16.565 -0.2032 -1.6795 -0.0343
12561TIP3   OH259097   3.796   3.514  13.662  0.2755  0.6514  0.1178
12561TIP3    H159098   3.889   3.496  13.674 -0.0145 -2.4447 -1.6818
12561TIP3    H259099   3.788   3.539  13.570 -0.9213 -1.2232 -0.3170
12562TIP3   OH259100   3.424   0.107   4.054  0.2126 -1.0388  0.1716
12562TIP3    H159101   3.377   0.105   4.137 -1.8692 -1.9035 -1.0018
12562TIP3    H259102   3.491   0.039   4.063 -1.1048 -2.3072  0.5088
12563TIP3   OH259103   3.493   5.580   0.765  0.4935  0.4329  0.2521
12563TIP3    H159104   3.437   5.503   0.768 -0.1485  0.8485 -0.7771
12563TIP3    H259105   3.555   5.562   0.695  0.6773  0.6326  0.3611
12564TIP3   OH259106   1.244   2.917   4.804 -0.2335 -0.4532 -0.3104
12564TIP3    H159107   1.192   2.997   4.814 -0.4023 -0.2882 -2.4408
12564TIP3    H259108   1.332   2.949   4.782 -0.5298 -0.8739 -2.1258
12565TIP3   OH259109   6.311   2.351  11.259 -0.0361  0.6730  0.1064
12565TIP3    H159110   6.310   2.442  11.288  1.1434  0.8889 -0.5110
12565TIP3    H259111   6.219   2.332  11.239 -0.5687  1.1465  1.9695
12566TIP3   OH259112   3.000   2.435   5.546  0.2625 -0.3638 -0.3071
12566TIP3    H159113   2.989   2.343   5.521 -0.5794 -0.2172 -0.4895
12566TIP3    H259114   3.036   2.431   5.635 -1.4644 -0.8761  0.3902
12567TIP3   OH259115   1.632   0.787  14.090  0.0916 -0.7596  0.6454
12567TIP3    H159116   1.717   0.755  14.119  1.6015  2.8039  0.3555
12567TIP3    H259117   1.610   0.857  14.152 -0.4733  1.4288 -1.9166
12568TIP3   OH259118   1.711   3.286   6.160 -0.5394  0.4859  0.7481
12568TIP3    H159119   1.744   3.370   6.129 -0.2917  0.5324  1.1351
12568TIP3    H259120   1.787   3.227   6.154 -0.9873  0.0323 -0.5145
12569TIP3   OH259121   5.406   3.838   4.344  0.0983  0.1664 -0.0307
12569TIP3    H159122   5.346   3.905   4.311  0.1455  0.3132  0.1834
12569TIP3    H259123   5.365   3.755   4.317  0.3886  0.2994 -0.8723
12570TIP3   OH259124   6.048   5.033  15.078  0.0566 -0.0738  0.2503
12570TIP3    H159125   5.953   5.036  15.086  0.1381  0.0159  1.3601
12570TIP3    H259126   6.069   5.091  15.005 -0.7235  0.1447  0.2012
12571TIP3   OH259127   5.098   5.400   2.350 -0.0625 -0.1636  0.2638
12571TIP3    H159128   5.107   5.351   2.432  0.7099  0.7020  0.7008
12571TIP3    H259129   5.114   5.335   2.281 -1.0256 -0.9679  0.7729
12572TIP3   OH259130   2.383   5.026  11.221  0.5575 -0.0193  0.2111
12572TIP3    H159131   2.296   4.994  11.197 -0.1722  2.5865 -0.9424
12572TIP3    H259132   2.423   4.955  11.270 -0.6683 -2.8816 -2.7407
12573TIP3   OH259133   2.470   2.058   1.726 -0.1243  0.0179  0.0560
12573TIP3    H159134   2.493   2.138   1.773  1.3322  0.1444 -0.8502
12573TIP3    H259135   2.549   2.005   1.727 -1.3162 -1.8231  1.4027
12574TIP3   OH259136   6.418   0.735   3.519 -0.1725  0.1625 -0.0315
12574TIP3    H159137   6.446   0.649   3.486 -1.9534 -0.1701 -0.7168
12574TIP3    H259138   6.393   0.718   3.610 -0.6933 -0.0879 -0.2187
12575TIP3   OH259139   1.002   5.437  15.324 -0.5627 -0.8614 -0.0678
12575TIP3    H159140   0.971   5.473  15.240  0.2113  0.2466  0.0961
12575TIP3    H259141   1.055   5.508  15.361 -2.1231 -0.7739  2.0672
12576TIP3   OH259142   0.239   6.000   2.165 -0.0234  0.5896  0.0991
12576TIP3    H159143   0.305   5.947   2.211  1.1962  2.1802  0.2267
12576TIP3    H259144   0.246   6.087   2.205 -3.1704  0.4802  1.0823
12577TIP3   OH259145   3.287   4.139  12.662 -0.5780  0.2615  0.0324
12577TIP3    H159146   3.215   4.196  12.688 -0.9834  0.1478 -0.7972
12577TIP3    H259147   3.244   4.061  12.626 -0.0550  0.3164 -0.7373
12578TIP3   OH259148   6.648   6.719  14.002  0.1977 -0.0463  0.3856
12578TIP3    H159149   6.730   6.693  13.961 -0.1496 -1.5086  0.5973
12578TIP3    H259150   6.590   6.743  13.929  0.4723 -0.0182  0.1788
12579TIP3   OH259151   2.181   4.723   1.054 -0.6502  0.3993  0.3114
12579TIP3    H159152   2.130   4.746   0.976 -2.4304 -1.0075  1.0140
12579TIP3    H259153   2.271   4.713   1.022 -1.5688 -1.3997 -1.8300
12580TIP3   OH259154   4.398   3.913  10.399  0.1659  0.2283  0.3998
12580TIP3    H159155   4.484   3.885  10.366  0.2387  0.4896  0.3682
12580TIP3    H259156   4.390   4.004  10.371 -0.4435 -0.0148 -0.2451
12581TIP3   OH259157   5.504   2.507   0.624  0.0310  0.1676 -0.4961
12581TIP3    H159158   5.428   2.472   0.578 -1.3003 -0.3758  2.0428
12581TIP3    H259159   5.574   2.443   0.605 -1.0900 -1.2563  0.0765
12582TIP3   OH259160   3.910   3.572  11.268 -0.2634  0.6614 -0.5271
12582TIP3    H159161   3.968   3.498  11.289 -3.3079 -1.5221  0.5460
12582TIP3    H259162   3.872   3.597  11.352 -0.5013  2.4266 -1.1399
12583TIP3   OH259163   3.143   5.222   3.393 -0.3367 -1.0644 -0.1227
12583TIP3    H159164   3.071   5.245   3.333 -0.2279  0.5214  0.3357
12583TIP3    H259165   3.128   5.277   3.470  0.4518 -1.9109  0.6356
12584TIP3   OH259166   6.010   1.455  15.287  0.4010  0.3533 -0.6034
12584TIP3    H159167   6.095   1.444  15.244  1.2626  3.8554  0.0633
12584TIP3    H259168   6.020   1.412  15.372  2.0797  2.0054  0.0820
12585TIP3   OH259169   0.404   5.643   1.585  0.2594  0.0204 -0.0094
12585TIP3    H159170   0.456   5.567   1.612  0.5197 -0.3057 -1.3913
12585TIP3    H259171   0.346   5.609   1.517 -0.8088  0.6886  0.5639
12586TIP3   OH259172   4.569   6.321   2.348  0.1640 -0.0808  0.6224
12586TIP3    H159173   4.491   6.351   2.301  0.1757 -1.7956 -0.5551
12586TIP3    H259174   4.561   6.225   2.349  1.4562 -0.1875  1.8820
12587TIP3   OH259175   3.350   0.342  15.206 -1.0140  0.1711  0.4415
12587TIP3    H159176   3.339   0.262  15.258 -0.3758  0.3026  0.7796
12587TIP3    H259177   3.397   0.402  15.264  0.0919  0.1670 -0.4297
12588TIP3   OH259178   4.920   1.943   4.461 -0.1541 -0.1442  0.2312
12588TIP3    H159179   4.937   2.009   4.529 -0.7998  3.0688 -2.5918
12588TIP3    H259180   5.001   1.942   4.409 -1.6389  1.5909 -2.2235
12589TIP3   OH259181   4.842   6.071   4.778 -0.3364 -0.0954  0.2590
12589TIP3    H159182   4.896   6.150   4.777 -0.4209 -0.0387 -0.9767
12589TIP3    H259183   4.883   6.014   4.712 -1.3610 -0.3372 -0.1763
12590TIP3   OH259184   2.360   3.350  15.822  0.4517  0.1213 -0.8636
12590TIP3    H159185   2.422   3.403  15.873 -0.9785  0.7573  0.2613
12590TIP3    H259186   2.311   3.301  15.888  0.6748 -1.4029 -1.8235
12591TIP3   OH259187   2.139   0.410  16.269 -0.1581  0.4535 -0.2371
12591TIP3    H159188   2.129   0.442  16.359  1.5755  1.7293 -0.4704
12591TIP3    H259189   2.167   0.319  16.278  2.1832  1.2304  0.5679
12592TIP3   OH259190   5.805   0.656   0.637 -0.1614 -0.2629 -0.2106
12592TIP3    H159191   5.874   0.657   0.703  0.6490  0.4320 -1.0369
12592TIP3    H259192   5.837   0.716   0.569 -1.0012 -0.9169 -1.1949
12593TIP3   OH259193   6.075   6.476   5.696 -0.2817 -0.2385 -0.5315
12593TIP3    H159194   5.981   6.480   5.714 -0.2252 -0.3901 -0.1854
12593TIP3    H259195   6.115   6.461   5.782 -0.0160 -1.3522 -0.8408
12594TIP3   OH259196   4.985   2.458   0.695  0.0540  0.0812 -0.0751
12594TIP3    H159197   5.016   2.521   0.761 -1.5799  0.6677  0.1649
12594TIP3    H259198   4.953   2.384   0.747 -0.8715  0.3748 -0.2275
12595TIP3   OH259199   2.896   2.297   0.326 -0.0421 -0.1901 -0.1055
12595TIP3    H159200   2.865   2.221   0.376 -1.0090  1.1982  1.4571
12595TIP3    H259201   2.990   2.300   0.342 -0.1935 -0.3485  0.8454
12596TIP3   OH259202   1.047   1.850  16.177 -0.6588 -0.1825  0.0514
12596TIP3    H159203   0.999   1.850  16.260 -0.7455  2.0658  0.0247
12596TIP3    H259204   1.109   1.777  16.186 -0.3900  0.2787  2.2494
12597TIP3   OH259205   1.363   1.902   0.542 -0.0761  0.4647 -0.1006
12597TIP3    H159206   1.316   1.969   0.493 -0.2600 -0.0039 -0.5810
12597TIP3    H259207   1.448   1.895   0.497  0.3539  1.1209  0.5985
12598TIP3   OH259208   5.549   3.763   0.637  0.4089 -0.0534 -0.3019
12598TIP3    H159209   5.592   3.780   0.554  3.7756  1.8536  1.7141
12598TIP3    H259210   5.584   3.678   0.666  1.0594  0.4029  0.2604
12599TIP3   OH259211   5.256   4.590   2.440 -0.4784 -0.4586  0.0625
12599TIP3    H159212   5.231   4.587   2.347  0.3136 -1.3538 -0.1336
12599TIP3    H259213   5.188   4.540   2.485 -2.0319  1.7543  0.2579
12600TIP3   OH259214   3.090   2.031  11.539 -0.1141  0.1876 -0.2296
12600TIP3    H159215   3.051   1.944  11.542 -0.5793  0.3663 -0.8089
12600TIP3    H259216   3.184   2.017  11.553 -0.4247 -0.2085  1.5558
12601TIP3   OH259217   1.680   6.025   1.073 -0.1354 -0.1793 -0.2346
12601TIP3    H159218   1.694   5.964   1.001  0.9334  2.1064 -2.0258
12601TIP3    H259219   1.750   6.006   1.135 -0.2474 -1.2552 -0.4329
12602TIP3   OH259220   5.676   1.775   0.120  0.1318 -0.0441  0.2497
12602TIP3    H159221   5.731   1.846   0.153 -0.6864 -0.0771  1.7265
12602TIP3    H259222   5.635   1.811   0.041 -0.3735  1.1606  1.0489
12603TIP3   OH259223   4.097   2.588   6.157  0.0548 -0.1648 -0.2662
12603TIP3    H159224   4.175   2.577   6.212  0.1674 -0.7068 -0.5259
12603TIP3    H259225   4.033   2.526   6.194  0.8144 -2.0318 -1.9818
12604TIP3   OH259226   2.623   1.757  14.694 -0.0785 -0.0261 -0.0171
12604TIP3    H159227   2.709   1.783  14.659  0.2110  0.2149  0.8481
12604TIP3    H259228   2.578   1.717  14.620  0.8789 -0.3758 -0.4250
12605TIP3   OH259229   3.416   5.767   4.164 -0.4609  0.4078  0.0441
12605TIP3    H159230   3.504   5.769   4.126 -0.4267  1.0045  0.1600
12605TIP3    H259231   3.431   5.761   4.258 -0.5418 -1.9719 -0.0535
12606TIP3   OH259232   5.706   3.898   4.833  0.0154 -0.2939 -0.4144
12606TIP3    H159233   5.710   3.918   4.739  0.4782  0.2858 -0.2728
12606TIP3    H259234   5.692   3.983   4.875  0.9607 -0.4021  0.1196
12607TIP3   OH259235   2.224   5.661   6.381 -0.0149  0.5269 -0.1757
12607TIP3    H159236   2.133   5.676   6.405 -0.6156 -2.3208 -0.5217
12607TIP3    H259237   2.228   5.678   6.287 -0.7098 -1.3771 -0.5796
12608TIP3   OH259238   4.492   2.679   6.013 -0.5744 -0.3989 -0.1013
12608TIP3    H159239   4.488   2.727   6.096  1.8092  1.1911 -0.8543
12608TIP3    H259240   4.487   2.747   5.946 -0.6036 -1.5134 -1.2405
12609TIP3   OH259241   2.138   1.813  16.002 -0.0808 -0.1592 -0.3922
12609TIP3    H159242   2.218   1.763  16.023 -1.2060 -1.3607  1.1703
12609TIP3    H259243   2.132   1.808  15.907  1.0351 -1.1312 -0.4321
12610TIP3   OH259244   3.387   0.171   1.305  0.0047 -0.1905 -0.2512
12610TIP3    H159245   3.380   0.103   1.371  1.7357 -0.8410 -0.7296
12610TIP3    H259246   3.314   0.154   1.245  0.0363 -1.2139  0.0001
12611TIP3   OH259247   6.046   2.173   5.038 -0.3903 -0.1520 -0.4621
12611TIP3    H159248   6.048   2.231   5.114 -1.1902 -0.3620 -0.2798
12611TIP3    H259249   5.975   2.206   4.983 -0.3042 -0.4512 -0.7605
12612TIP3   OH259250   6.504   3.863  11.135 -0.1034 -0.2159  0.1709
12612TIP3    H159251   6.446   3.925  11.091 -0.0018 -0.3720 -0.1875
12612TIP3    H259252   6.569   3.917  11.178  0.8221 -0.1279 -1.3326
12613TIP3   OH259253   4.744   3.104  15.725 -0.3493 -0.1331 -0.1064
12613TIP3    H159254   4.674   3.133  15.783  1.1994  0.7984  1.3378
12613TIP3    H259255   4.738   3.008  15.726  0.7739 -0.2032  3.0385
12614TIP3   OH259256   0.721   5.756   1.714 -0.2439  0.1101 -0.1140
12614TIP3    H159257   0.668   5.820   1.666 -0.8567 -0.5467 -0.3260
12614TIP3    H259258   0.808   5.794   1.717 -0.4015  0.5485 -1.0128
12615TIP3   OH259259   3.353   5.748  14.342 -0.0378 -0.5022  0.2436
12615TIP3    H159260   3.426   5.759  14.281 -1.2653 -0.8782 -1.3098
12615TIP3    H259261   3.354   5.655  14.364  1.9168  0.0572  2.7561
12616TIP3   OH259262   5.099   3.335  13.269 -0.0238  0.0656  0.6179
12616TIP3    H159263   5.183   3.340  13.223 -0.0459 -1.3537  0.4090
12616TIP3    H259264   5.046   3.403  13.228 -0.4416 -1.9412 -2.3270
12617TIP3   OH259265   1.738   5.748  13.151 -0.6624 -0.3885  0.2357
12617TIP3    H159266   1.785   5.829  13.171 -1.8421  0.6379 -1.0885
12617TIP3    H259267   1.773   5.720  13.067 -2.9592  0.8282 -1.1647
12618TIP3   OH259268   2.359   3.646   3.309 -0.3509 -0.0139  0.1066
12618TIP3    H159269   2.275   3.679   3.276 -0.2625 -0.2769 -0.3944
12618TIP3    H259270   2.346   3.551   3.317  0.1700 -0.1688 -0.8073
12619TIP3   OH259271   6.702   6.508   5.210 -0.2511  0.7543  0.6666
12619TIP3    H159272   6.667   6.574   5.270  1.9299  0.0375  2.8401
12619TIP3    H259273   6.654   6.428   5.232 -0.1373  0.7277  0.8269
12620TIP3   OH259274   1.982   2.961  11.881  0.2344  0.3199  0.2935
12620TIP3    H159275   1.927   2.885  11.899  0.2538  0.3736  0.5723
12620TIP3    H259276   2.041   2.967  11.956  2.4297 -1.3293 -1.2616
12621TIP3   OH259277   2.532   1.548  11.508  0.0978  0.1763  0.5272
12621TIP3    H159278   2.559   1.474  11.562  1.0294 -0.5394 -0.9011
12621TIP3    H259279   2.613   1.580  11.469 -0.5011  1.0240 -0.0361
12622TIP3   OH259280   4.441   4.078  15.537 -0.5710 -0.8590  0.4440
12622TIP3    H159281   4.499   4.051  15.466  0.0885  0.8252  0.3131
12622TIP3    H259282   4.400   3.997  15.567  0.6061 -1.8482 -0.5648
12623TIP3   OH259283   6.611   1.224   0.743  0.4366  0.0026  0.6492
12623TIP3    H159284   6.665   1.191   0.816  0.1179 -0.3582  0.7264
12623TIP3    H259285   6.665   1.292   0.703  2.4339 -2.6760 -1.4226
12624TIP3   OH259286   4.491   5.175   0.037  0.5386  0.0097  0.0770
12624TIP3    H159287   4.502   5.234   0.112  1.3329  0.1169 -0.1207
12624TIP3    H259288   4.499   5.232  -0.039  0.5475 -0.2352 -0.1033
12625TIP3   OH259289   6.101   6.421  15.212 -0.2717  0.2574  0.4318
12625TIP3    H159290   6.052   6.364  15.272  0.9181  1.5434  2.6971
12625TIP3    H259291   6.192   6.393  15.222 -0.2198 -0.5040 -1.9353
12626TIP3   OH259292   2.549   3.434  16.627 -0.6723 -0.0220  0.0484
12626TIP3    H159293   2.627   3.483  16.652 -1.6514  2.1629 -1.0967
12626TIP3    H259294   2.494   3.433  16.705 -0.4601  0.3037  0.1988
12627TIP3   OH259295   1.394   2.387   0.268  0.2947 -0.2976  0.9104
12627TIP3    H159296   1.422   2.464   0.218  1.3153 -0.0781  1.8051
12627TIP3    H259297   1.344   2.422   0.341 -0.1144 -0.5493  0.7543
12628TIP3   OH259298   3.746   2.713  16.652 -0.6409  0.2768 -0.3752
12628TIP3    H159299   3.720   2.662  16.574 -0.4845  0.0606 -0.2852
12628TIP3    H259300   3.663   2.740  16.691 -0.7496 -0.7631  0.1419
12629TIP3   OH259301   4.886   3.535   4.421 -0.6291  0.1093  0.0408
12629TIP3    H159302   4.893   3.449   4.380  0.9040  1.6882 -3.1456
12629TIP3    H259303   4.794   3.559   4.410 -0.4422  0.1018 -1.7236
12630TIP3   OH259304   3.033   1.780  15.346 -0.5862  0.2526 -0.0669
12630TIP3    H159305   3.018   1.708  15.285  0.6708  0.5112 -0.6898
12630TIP3    H259306   3.090   1.744  15.414 -1.1430  0.2563  0.4061
12631TIP3   OH259307   0.638   5.524  15.881  0.0133 -0.4028  0.2086
12631TIP3    H159308   0.679   5.529  15.795  2.1001 -0.5081  1.1453
12631TIP3    H259309   0.660   5.607  15.923 -3.4493  0.8594 -0.3738
12632TIP3   OH259310   0.343   6.321   2.925 -0.7685 -0.5566 -0.5462
12632TIP3    H159311   0.390   6.325   2.842 -0.6049 -0.5283 -0.4514
12632TIP3    H259312   0.352   6.230   2.953 -0.3266 -0.4337 -0.2714
12633TIP3   OH259313   6.673   2.630  13.862  0.5454  0.0913 -0.0630
12633TIP3    H159314   6.599   2.638  13.921  1.3659  0.9258  0.8702
12633TIP3    H259315   6.661   2.701  13.798  2.0055  2.0585  1.7568
12634TIP3   OH259316   0.950   0.566  12.004 -0.0167  0.2569  0.4066
12634TIP3    H159317   0.883   0.523  11.951 -0.2096  1.4248 -0.3282
12634TIP3    H259318   0.911   0.649  12.029  1.0231  0.8033  0.2524
12635TIP3   OH259319   1.377   6.535  11.264  0.1155 -0.1774 -0.5923
12635TIP3    H159320   1.330   6.461  11.226 -0.2153  0.4389 -1.4037
12635TIP3    H259321   1.309   6.595  11.293  0.3473 -0.9046  1.5611
12636TIP3   OH259322   0.178   0.930  11.445 -0.4105  0.3680 -0.1665
12636TIP3    H159323   0.229   0.949  11.367  1.3968  1.2998  1.1999
12636TIP3    H259324   0.225   0.859  11.489 -1.4624 -0.2243  0.0208
12637TIP3   OH259325   2.011   4.635   1.270 -0.3322 -0.1853 -0.3216
12637TIP3    H159326   2.083   4.650   1.209 -1.4802 -0.3116 -1.7390
12637TIP3    H259327   1.937   4.682   1.232 -1.8376 -2.7032 -0.6039
12638TIP3   OH259328   5.102   0.115   5.630  0.2972 -0.6198  0.1526
12638TIP3    H159329   5.098   0.166   5.712  2.5249  1.0370 -0.7121
12638TIP3    H259330   5.022   0.138   5.583 -1.2852 -2.0071  2.0601
12639TIP3   OH259331   4.332   3.161  11.965 -0.2539 -0.4180 -0.2801
12639TIP3    H159332   4.260   3.198  12.015  0.4057 -0.1167  0.4473
12639TIP3    H259333   4.411   3.205  11.998  0.4804 -2.0314  0.2039
12640TIP3   OH259334   3.127   2.224  15.295  0.4229 -0.0178  0.4849
12640TIP3    H159335   3.111   2.310  15.334  0.9748 -0.2962  1.3390
12640TIP3    H259336   3.040   2.189  15.279  0.1890  0.9562 -0.4403
12641TIP3   OH259337   4.814   3.171  13.368 -0.4083  0.0814 -0.6334
12641TIP3    H159338   4.762   3.248  13.389  2.4453  1.6150  1.1721
12641TIP3    H259339   4.829   3.129  13.453  1.6499 -0.0465 -1.0314
12642TIP3   OH259340   1.592   4.694   3.273 -0.0092 -0.0617 -0.2626
12642TIP3    H159341   1.686   4.708   3.287 -0.1616  2.8290 -1.7148
12642TIP3    H259342   1.554   4.782   3.276 -2.4838 -1.0579 -1.0489
12643TIP3   OH259343   6.582   0.975   1.318 -0.3935  0.8535 -0.2499
12643TIP3    H159344   6.595   0.921   1.240  1.2438 -0.7208  1.0830
12643TIP3    H259345   6.621   1.060   1.294 -0.5963  0.6350 -1.4063
12644TIP3   OH259346   6.369   2.124  16.583 -0.2867  0.1310 -0.0549
12644TIP3    H159347   6.303   2.114  16.515  0.6990 -0.7309 -0.8929
12644TIP3    H259348   6.445   2.076  16.551  0.2544 -0.1461  1.5652
12645TIP3   OH259349   2.445   5.848  14.825  0.1512 -0.0589  0.1156
12645TIP3    H159350   2.496   5.821  14.901 -0.6007 -1.5146  0.1282
12645TIP3    H259351   2.498   5.820  14.750  0.6916  0.9954  0.0892
12646TIP3   OH259352   6.291   0.119   1.343  1.1529  0.2684 -0.0922
12646TIP3    H159353   6.299   0.206   1.303 -0.4284  0.5724  0.1960
12646TIP3    H259354   6.288   0.059   1.269  2.6940  0.4044 -0.2808
12647TIP3   OH259355   5.244   0.029  14.251  1.5218  0.2602 -0.0359
12647TIP3    H159356   5.279   0.028  14.162  0.0637  0.8230 -0.6340
12647TIP3    H259357   5.210  -0.060  14.264 -0.6954  0.9068 -1.0686
12648TIP3   OH259358   1.431   3.471   1.509  0.6367 -0.2042 -0.3858
12648TIP3    H159359   1.422   3.550   1.562  0.3310 -0.3181 -0.2651
12648TIP3    H259360   1.446   3.503   1.420 -1.1493 -0.0006 -0.6205
12649TIP3   OH259361   1.485   4.949   2.768  0.6250  0.4033  0.0419
12649TIP3    H159362   1.509   4.858   2.788 -0.4769 -0.1422 -1.0701
12649TIP3    H259363   1.561   5.000   2.796  1.2358 -0.8557  0.7243
12650TIP3   OH259364   0.820   1.013  13.627 -0.0334 -0.2152  0.0701
12650TIP3    H159365   0.884   1.060  13.680 -0.1273  0.4851 -0.4226
12650TIP3    H259366   0.834   0.921  13.648 -0.1778  0.0635  1.4248
12651TIP3   OH259367   5.187   5.977   4.685 -0.4026  0.5616  0.3568
12651TIP3    H159368   5.104   5.957   4.641 -0.1592  0.1093  0.1069
12651TIP3    H259369   5.174   5.948   4.775 -0.7527  1.1116  0.4911
12652TIP3   OH259370   1.251   4.238   3.036  0.0722 -0.0244 -0.1020
12652TIP3    H159371   1.268   4.312   2.979  1.6652 -0.9200 -0.8261
12652TIP3    H259372   1.243   4.275   3.123  1.2317  0.9611 -0.4092
12653TIP3   OH259373   2.945   1.693  13.198  0.6404 -0.1669 -0.1813
12653TIP3    H159374   3.033   1.711  13.165  0.4520  0.6476 -0.2676
12653TIP3    H259375   2.916   1.615  13.150  0.2367  1.2016 -2.2241
12654TIP3   OH259376   2.194   2.021   1.372 -0.1913 -0.2184  0.1744
12654TIP3    H159377   2.216   2.065   1.454 -0.6062  0.6471 -0.1746
12654TIP3    H259378   2.130   1.954   1.398 -0.2575 -0.0047  0.5651
12655TIP3   OH259379   2.585   4.171  14.177  0.1210  0.1265 -0.5286
12655TIP3    H159380   2.678   4.149  14.174 -0.1323 -0.8964 -1.5895
12655TIP3    H259381   2.543   4.093  14.214 -0.4705 -0.0164 -1.4826
12656TIP3   OH259382   6.786   6.185  11.788  0.3973  0.0700 -0.4870
12656TIP3    H159383   6.741   6.269  11.798  0.2988 -0.2132  1.7286
12656TIP3    H259384   6.742   6.142  11.715 -0.8080  1.1450 -0.4050
12657TIP3   OH259385   3.329   5.415   0.051 -0.0840  0.3729  0.3478
12657TIP3    H159386   3.319   5.399  -0.043 -0.5458 -1.5161  0.6997
12657TIP3    H259387   3.246   5.387   0.089  0.1121  1.1109  1.3263
12658TIP3   OH259388   4.363   3.569  12.836  0.2021 -0.4271  0.0757
12658TIP3    H159389   4.273   3.598  12.821  0.2283 -0.1420  0.4607
12658TIP3    H259390   4.367   3.481  12.798 -0.8883 -1.3567  2.0406
12659TIP3   OH259391   1.422   3.953   4.990 -0.8537  0.5473 -0.2257
12659TIP3    H159392   1.497   4.009   5.010 -1.7331  1.7271 -0.1743
12659TIP3    H259393   1.449   3.866   5.018 -0.0200  1.2094  1.0957
12660TIP3   OH259394   3.755   5.480  14.671  0.5792  0.3962  0.1289
12660TIP3    H159395   3.822   5.425  14.712  0.4452  0.2958  0.2106
12660TIP3    H259396   3.746   5.445  14.583 -1.7484 -1.6990  1.1484
12661TIP3   OH259397   0.907   0.192  12.609 -0.3311  0.2983 -0.0425
12661TIP3    H159398   0.912   0.276  12.656 -0.8003 -0.1617  0.8452
12661TIP3    H259399   0.815   0.166  12.616 -0.1322 -0.4199 -0.0927
12662TIP3   OH259400   4.397   1.504   0.272 -0.0980 -0.1703 -0.4147
12662TIP3    H159401   4.339   1.519   0.197  0.8566  1.6703 -0.8304
12662TIP3    H259402   4.362   1.562   0.340  0.2558 -0.2890 -0.1321
12663TIP3   OH259403   5.435   5.241   5.159  0.1726  0.0332  0.1835
12663TIP3    H159404   5.454   5.279   5.073  0.4235 -0.2537  0.1127
12663TIP3    H259405   5.518   5.248   5.207  1.0055 -2.9264 -0.7505
12664TIP3   OH259406   6.207   3.782  14.538  0.4526 -0.1097  0.4787
12664TIP3    H159407   6.190   3.868  14.501  1.1313  0.4315  1.3920
12664TIP3    H259408   6.128   3.731  14.520 -0.8412  1.3578  1.8387
12665TIP3   OH259409   0.622   5.006   3.766 -0.3120  0.4038  0.1700
12665TIP3    H159410   0.660   5.086   3.728  0.6243  0.6673  1.6024
12665TIP3    H259411   0.692   4.969   3.819 -0.4357 -1.9135 -1.2245
12666TIP3   OH259412   1.589   4.621   4.013 -0.2654 -0.2630  0.1119
12666TIP3    H159413   1.501   4.588   3.996 -0.4893  0.4556 -0.1499
12666TIP3    H259414   1.631   4.624   3.927  0.1792 -1.0495  0.2946
12667TIP3   OH259415   5.226   4.455  16.427 -0.4820 -0.5601  0.5011
12667TIP3    H159416   5.195   4.543  16.405 -1.2215 -0.8180  0.4670
12667TIP3    H259417   5.265   4.421  16.347  1.7859  0.5582  1.1165
12668TIP3   OH259418   0.236   2.428   3.218  0.1818  0.3023  0.1331
12668TIP3    H159419   0.268   2.478   3.143  1.4733  0.3142  0.6732
12668TIP3    H259420   0.181   2.360   3.180 -0.0793  0.9945 -0.7403
12669TIP3   OH259421   3.810   0.361   1.199 -0.2658  0.5107  0.0030
12669TIP3    H159422   3.855   0.430   1.249  0.7581 -0.6821  0.7414
12669TIP3    H259423   3.836   0.377   1.108 -0.7556  1.6420  0.0466
12670TIP3   OH259424   1.297   4.465  12.552 -0.4203 -0.0325  0.7947
12670TIP3    H159425   1.202   4.474  12.557 -0.4832  1.8736 -2.3240
12670TIP3    H259426   1.329   4.554  12.535  1.5971 -1.1733 -1.6807
12671TIP3   OH259427   6.061   1.527   4.597  0.3387 -0.0336 -0.5069
12671TIP3    H159428   5.997   1.467   4.636 -0.6520  0.2934 -1.6060
12671TIP3    H259429   6.039   1.612   4.635  0.8169 -0.1017 -0.0666
12672TIP3   OH259430   0.054   6.301  16.551  0.2632  0.3160 -0.0008
12672TIP3    H159431   0.012   6.318  16.635  1.6114 -0.4884  0.8382
12672TIP3    H259432   0.003   6.231  16.512 -0.4944  0.8351  0.0403
12673TIP3   OH259433   4.416   5.031   4.114 -0.2339  0.2769  0.2655
12673TIP3    H159434   4.485   4.976   4.078 -0.6057  0.5417 -0.9023
12673TIP3    H259435   4.389   5.086   4.040 -1.5174  0.3494  0.7737
12674TIP3   OH259436   5.407   0.985   4.447 -0.3002 -0.2384  0.0103
12674TIP3    H159437   5.469   1.040   4.494 -0.2268  1.1087 -1.5911
12674TIP3    H259438   5.462   0.931   4.390 -0.5154  0.3044 -0.7326
12675TIP3   OH259439   3.112   2.250  11.976  0.6606  0.2417 -0.6241
12675TIP3    H159440   3.147   2.339  11.983  1.1615 -0.0549  0.8600
12675TIP3    H259441   3.184   2.198  11.940  0.7492  0.2106 -0.3995
12676TIP3   OH259442   1.896   6.282   5.241  0.1107 -0.2775 -0.0894
12676TIP3    H159443   1.938   6.299   5.325  1.8589 -0.9977 -0.7848
12676TIP3    H259444   1.840   6.358   5.226 -0.5137 -0.3265  1.8904
12677TIP3   OH259445   3.455   5.694   3.792  0.5312  0.0606 -0.7409
12677TIP3    H159446   3.410   5.774   3.819  0.8567  0.3902 -1.1642
12677TIP3    H259447   3.422   5.626   3.852  0.1390  0.4778 -0.4827
12678TIP3   OH259448   1.940   4.223  13.377  0.5059 -0.6489  0.1790
12678TIP3    H159449   1.980   4.309  13.371  0.7967 -0.7328  0.8618
12678TIP3    H259450   1.974   4.175  13.301  1.4993 -0.6328  0.6054
12679TIP3   OH259451   6.363   2.148   5.238 -0.0856  0.4508  0.4124
12679TIP3    H159452   6.425   2.214   5.206 -0.1125  0.5565  0.5780
12679TIP3    H259453   6.349   2.090   5.163  1.9827 -0.9099  1.0404
12680TIP3   OH259454   3.054   4.539   1.289  0.3283 -0.0473  0.2658
12680TIP3    H159455   3.140   4.558   1.251 -0.3546 -0.8101 -1.6760
12680TIP3    H259456   2.992   4.584   1.232 -0.7169 -1.3266  0.3789
12681TIP3   OH259457   4.512   0.288   6.354 -0.0894  0.2729  0.0632
12681TIP3    H159458   4.561   0.285   6.436  0.3595  0.5140 -0.1928
12681TIP3    H259459   4.421   0.277   6.380 -0.0909  1.7814  0.7497
12682TIP3   OH259460   1.938   4.113   2.283 -0.3118  0.0382 -0.0432
12682TIP3    H159461   1.899   4.072   2.360  0.4873  0.1038  0.4095
12682TIP3    H259462   1.926   4.050   2.213 -0.1547 -0.4582  0.3748
12683TIP3   OH259463   0.662   3.658  13.590  0.5049 -0.2340  0.4346
12683TIP3    H159464   0.740   3.612  13.622  0.7382 -0.5466 -0.5598
12683TIP3    H259465   0.696   3.721  13.526  0.1480  1.0572  1.4958
12684TIP3   OH259466   6.418   1.145   0.589  0.7245  0.0275 -0.1006
12684TIP3    H159467   6.438   1.208   0.520 -0.4505 -0.0378 -0.5124
12684TIP3    H259468   6.482   1.163   0.658  1.9877  0.0050 -1.2559
12685TIP3   OH259469   1.466   3.230   6.035 -0.0551 -0.0655  0.3897
12685TIP3    H159470   1.542   3.282   6.062 -1.2673  1.1223  1.6231
12685TIP3    H259471   1.407   3.232   6.111 -2.1598  0.6530 -1.2023
12686TIP3   OH259472   0.237   0.937   1.044  0.4398 -0.3069  0.1405
12686TIP3    H159473   0.170   1.004   1.058  1.1600  1.4345 -4.0633
12686TIP3    H259474   0.192   0.866   0.999  1.2112  0.5967 -2.1218
12687TIP3   OH259475   0.694   4.383   0.011 -1.0909 -0.4278 -0.0932
12687TIP3    H159476   0.728   4.456   0.062 -1.3842 -0.3350 -0.0250
12687TIP3    H259477   0.759   4.314   0.021  0.2467  0.5274 -1.9234
12688TIP3   OH259478   3.738   3.824  10.886 -0.4173  0.2355 -0.0590
12688TIP3    H159479   3.646   3.848  10.879 -0.8161 -1.4578 -0.8063
12688TIP3    H259480   3.756   3.773  10.807  0.6311 -1.0993  1.0169
12689TIP3   OH259481   4.637   3.455  15.073  0.4112 -0.6681 -0.6039
12689TIP3    H159482   4.655   3.361  15.082 -0.1686 -0.6881  0.4556
12689TIP3    H259483   4.543   3.463  15.087  0.6861  0.2450  0.9373
12690TIP3   OH259484   4.377   5.838   3.362 -0.1870 -0.4065  0.5658
12690TIP3    H159485   4.377   5.748   3.328  0.6813 -0.3749  0.4623
12690TIP3    H259486   4.294   5.846   3.408 -1.2080 -0.5800 -1.2138
12691TIP3   OH259487   3.548   1.741   2.523  0.2706 -0.7304 -0.6049
12691TIP3    H159488   3.633   1.762   2.486  0.0268 -0.3581 -0.9639
12691TIP3    H259489   3.497   1.706   2.450 -0.5304  0.9335 -0.8803
12692TIP3   OH259490   1.018   0.948  16.085  0.1062  0.1786  0.5285
12692TIP3    H159491   1.055   0.881  16.141 -0.1204  0.5246  1.0930
12692TIP3    H259492   1.072   1.025  16.100 -0.4583  0.5041  0.8787
12693TIP3   OH259493   0.731   5.220  14.602 -0.0970  0.1928  0.0327
12693TIP3    H159494   0.659   5.244  14.659 -0.6619 -0.7617 -0.2763
12693TIP3    H259495   0.777   5.150  14.648  0.1337  0.2193 -0.1544
12694TIP3   OH259496   4.401   4.881  10.678 -0.3191  0.1579 -0.4592
12694TIP3    H159497   4.338   4.941  10.639  0.1517  0.2905 -1.0289
12694TIP3    H259498   4.450   4.846  10.603  0.2274 -0.0072 -0.0290
12695TIP3   OH259499   0.826   4.293  14.780  0.8733 -0.6329  0.4189
12695TIP3    H159500   0.760   4.286  14.850  0.6569  1.2994  0.4271
12695TIP3    H259501   0.832   4.204  14.745 -0.2899 -1.2631  1.7448
12696TIP3   OH259502   1.452   2.803  14.156  0.0165 -0.3611  0.6144
12696TIP3    H159503   1.449   2.708  14.148  0.8965 -0.2638 -1.2014
12696TIP3    H259504   1.371   2.826  14.201  1.2450 -2.1894  3.9324
12697TIP3   OH259505   5.522   1.325  17.092 -0.6287 -0.2506  0.1140
12697TIP3    H159506   5.429   1.349  17.089 -0.9599 -1.3624  0.9518
12697TIP3    H259507   5.566   1.405  17.120 -1.6008 -0.2699  1.8277
12698TIP3   OH259508   2.126   4.785   1.476 -0.1798  0.8341  0.5515
12698TIP3    H159509   2.211   4.818   1.446 -0.2937  0.8033  0.1915
12698TIP3    H259510   2.097   4.726   1.406 -0.9441  1.5930  0.2241
12699TIP3   OH259511   3.508   5.372   4.660 -0.8241  0.0584 -0.4444
12699TIP3    H159512   3.555   5.289   4.656 -2.3470 -0.9643  1.8165
12699TIP3    H259513   3.506   5.403   4.569  0.5557 -1.9148 -1.1793
12700TIP3   OH259514   0.537   5.931   6.108  0.4115 -0.3771 -0.8754
12700TIP3    H159515   0.454   5.976   6.097  0.5814  0.6497  1.5554
12700TIP3    H259516   0.596   5.974   6.046 -0.7485 -0.8021 -2.2772
12701TIP3   OH259517   1.493   3.186   3.920  0.8218 -0.0300 -0.1630
12701TIP3    H159518   1.438   3.205   3.845 -0.7601  1.3460  1.3092
12701TIP3    H259519   1.581   3.178   3.884  0.3954  2.6107 -1.8850
12702TIP3   OH259520   6.235   0.314   4.264 -0.2475 -0.2263 -0.3630
12702TIP3    H159521   6.275   0.320   4.177  1.2171  0.7170  0.3382
12702TIP3    H259522   6.310   0.302   4.323 -1.1153  0.3771  0.8690
12703TIP3   OH259523   2.489   6.590   5.057  0.0918  0.3130 -0.0818
12703TIP3    H159524   2.402   6.568   5.090  0.3804  0.9941  1.2007
12703TIP3    H259525   2.536   6.622   5.134  1.7192 -0.7512 -0.5848
12704TIP3   OH259526   2.551   6.768  13.111  0.0494 -0.0779  0.2681
12704TIP3    H159527   2.460   6.798  13.102 -0.0548 -1.2694 -3.5628
12704TIP3    H259528   2.543   6.673  13.120  0.9091 -0.1860 -0.0849
12705TIP3   OH259529   5.102   6.000   5.254 -0.4895 -0.6586 -0.5086
12705TIP3    H159530   5.145   5.915   5.265  2.2317  0.9544  1.9867
12705TIP3    H259531   5.008   5.981   5.262 -0.0162 -3.5667 -1.2854
12706TIP3   OH259532   1.290   6.751   4.997 -0.5047 -0.8809 -0.0778
12706TIP3    H159533   1.264   6.662   5.020  0.2048 -1.2079 -0.5131
12706TIP3    H259534   1.291   6.798   5.080 -1.7254 -1.0561  0.0375
12707TIP3   OH259535   6.237   1.362  15.438 -0.5773 -0.6910  0.1680
12707TIP3    H159536   6.188   1.283  15.462 -0.1271 -1.1864 -0.5051
12707TIP3    H259537   6.319   1.328  15.403 -0.6667  0.0592 -0.7717
12708TIP3   OH259538   5.391   4.524   1.126 -0.2772 -0.2206  0.2071
12708TIP3    H159539   5.370   4.578   1.050  2.4065 -0.2115 -0.5776
12708TIP3    H259540   5.306   4.495   1.159 -1.7516  3.8805  0.2404
12709TIP3   OH259541   6.694   6.686  10.497 -0.0937 -0.4197  0.3257
12709TIP3    H159542   6.709   6.764  10.550 -0.8433 -0.5087  0.6718
12709TIP3    H259543   6.735   6.615  10.548 -0.0877 -0.3719  0.3876
12710TIP3   OH259544   5.353   1.513   4.441 -0.4446  0.1105 -0.4792
12710TIP3    H159545   5.446   1.527   4.423 -0.6923  1.5106 -0.7564
12710TIP3    H259546   5.339   1.554   4.526 -0.9811  0.6248 -0.8139
12711TIP3   OH259547   2.814   3.180  16.793 -0.5955 -0.0604 -0.6720
12711TIP3    H159548   2.793   3.265  16.832 -0.1551 -0.2760  0.0634
12711TIP3    H259549   2.898   3.194  16.748  1.2468 -0.9034  2.3003
12712TIP3   OH259550   3.127   3.346   2.888 -0.2754 -0.1510  0.0670
12712TIP3    H159551   3.147   3.316   2.977 -0.4741 -0.3572  0.0421
12712TIP3    H259552   3.034   3.369   2.890 -0.0785  0.6455  0.1366
12713TIP3   OH259553   0.665   2.391   2.540  0.1244 -0.0258  0.2196
12713TIP3    H159554   0.662   2.387   2.635  0.6962 -2.4252  0.1459
12713TIP3    H259555   0.745   2.345   2.515  0.2071  0.9415 -1.4102
12714TIP3   OH259556   1.196   0.778   2.392 -0.1010 -0.5190  0.3474
12714TIP3    H159557   1.166   0.817   2.475  0.2120 -0.7629  0.5736
12714TIP3    H259558   1.116   0.768   2.341 -0.2013  0.3634  0.3132
12715TIP3   OH259559   5.400   0.431   1.898  0.3994 -0.2919 -0.2270
12715TIP3    H159560   5.494   0.446   1.897  0.4960 -0.9562 -1.1954
12715TIP3    H259561   5.375   0.419   1.806 -0.0946 -3.2447  0.2310
12716TIP3   OH259562   5.219   4.512   1.507  0.1297 -0.0534  0.1737
12716TIP3    H159563   5.183   4.507   1.418  0.0679 -0.9672  0.2481
12716TIP3    H259564   5.144   4.495   1.564  0.0792  0.9613  0.4239
12717TIP3   OH259565   1.090   1.715   2.067  0.5831 -0.1759  0.0449
12717TIP3    H159566   1.039   1.661   2.008  0.2099  0.3541 -0.1243
12717TIP3    H259567   1.123   1.786   2.011 -1.7601  1.6848  0.9254
12718TIP3   OH259568   5.387   0.898  13.725  0.6681 -0.0545  0.1012
12718TIP3    H159569   5.375   0.876  13.632 -0.2521 -0.5017  0.3214
12718TIP3    H259570   5.331   0.974  13.739 -0.7996 -1.2186  0.7632
12719TIP3   OH259571   2.568   2.937   5.709 -0.6500 -0.5648  0.9147
12719TIP3    H159572   2.583   3.031   5.704 -0.0408 -0.7054 -0.2167
12719TIP3    H259573   2.655   2.899   5.723 -0.7487 -1.0156  0.3503
12720TIP3   OH259574   3.464   0.418  16.172  0.0917  0.2378  0.1523
12720TIP3    H159575   3.467   0.502  16.125 -0.2557  0.5345  0.6479
12720TIP3    H259576   3.445   0.443  16.263 -0.7593 -0.4377  0.1597
12721TIP3   OH259577   2.849   1.568  15.757 -0.7032  0.4170 -0.4977
12721TIP3    H159578   2.766   1.549  15.713 -0.1032 -0.7819 -1.1389
12721TIP3    H259579   2.855   1.664  15.758 -1.7524  0.4896 -1.0680
12722TIP3   OH259580   4.415   2.782   6.479  0.1004 -0.1183  0.1474
12722TIP3    H159581   4.469   2.753   6.553  0.6852 -0.8207 -0.5520
12722TIP3    H259582   4.376   2.701   6.446 -0.4239  0.2397 -0.1121
12723TIP3   OH259583   0.423   4.118  15.645 -0.0272 -0.7737 -0.4377
12723TIP3    H159584   0.402   4.177  15.717  1.3081 -0.6901 -0.1146
12723TIP3    H259585   0.482   4.167  15.588 -2.3953 -0.2189 -2.5310
12724TIP3   OH259586   2.692   3.731  10.520  0.4153  0.1452  0.2024
12724TIP3    H159587   2.785   3.739  10.539  0.7455 -1.5041 -0.6150
12724TIP3    H259588   2.658   3.677  10.592  0.4480 -0.7721 -0.4633
12725TIP3   OH259589   3.846   5.398   3.499  0.0927  0.0360  0.0013
12725TIP3    H159590   3.764   5.368   3.538  0.4573  0.6359  1.2574
12725TIP3    H259591   3.897   5.319   3.485 -0.5847 -0.3131 -0.5351
12726TIP3   OH259592   0.128   6.523  14.815 -0.0906 -0.7312  0.2608
12726TIP3    H159593   0.156   6.439  14.852 -3.9205 -2.1565  0.1285
12726TIP3    H259594   0.080   6.500  14.735  2.9043  1.9479 -2.4929
12727TIP3   OH259595   3.378   4.433   2.476  0.5286  0.1807 -0.4311
12727TIP3    H159596   3.443   4.503   2.480  1.6855 -0.8829 -0.2787
12727TIP3    H259597   3.428   4.355   2.453 -0.5154 -0.9016  0.8750
12728TIP3   OH259598   5.165   1.620  15.516 -0.6856 -0.5211 -0.4195
12728TIP3    H159599   5.188   1.528  15.507  1.0048 -0.1626  0.0594
12728TIP3    H259600   5.187   1.659  15.432 -0.2806 -0.3242 -0.2212
12729TIP3   OH259601   3.397   1.988  13.770 -0.7177  0.1101  0.2839
12729TIP3    H159602   3.336   1.986  13.696 -0.6108  0.8385  0.1714
12729TIP3    H259603   3.389   1.901  13.809 -1.9326  0.2361  0.3557
12730TIP3   OH259604   5.338   3.524  14.316  0.3472  0.0855 -0.8254
12730TIP3    H159605   5.332   3.429  14.327 -1.1209  0.2228 -0.3610
12730TIP3    H259606   5.390   3.553  14.392 -1.5715 -0.0548  0.5830
12731TIP3   OH259607   2.074   4.481  12.661 -0.9175 -0.8781 -0.2875
12731TIP3    H159608   2.093   4.414  12.726 -1.3088  0.7068  1.4806
12731TIP3    H259609   2.158   4.526  12.647 -1.2074 -0.1016  0.4187
12732TIP3   OH259610   5.379   4.370   5.534  0.1083  0.1142  0.6854
12732TIP3    H159611   5.342   4.325   5.458  1.6306 -0.6464  0.3749
12732TIP3    H259612   5.318   4.352   5.605  0.3677 -1.9198  0.4096
12733TIP3   OH259613   5.022   5.962  16.865 -0.5926  0.0173  0.0213
12733TIP3    H159614   4.998   5.959  16.773 -2.4499 -2.1334  0.5152
12733TIP3    H259615   4.943   5.932  16.911  1.3035 -2.0441  2.1033
12734TIP3   OH259616   1.275   2.657   2.940  0.3027 -0.6905  0.4049
12734TIP3    H159617   1.197   2.647   2.994 -0.6122  0.0728 -0.7404
12734TIP3    H259618   1.317   2.571   2.941  1.2769 -0.2633  3.7297
12735TIP3   OH259619   3.520   2.561  11.189 -0.4143 -0.8584 -0.1928
12735TIP3    H159620   3.492   2.645  11.152 -2.3513 -2.2691 -2.0820
12735TIP3    H259621   3.457   2.498  11.154 -0.1177 -2.8282  2.7244
12736TIP3   OH259622   1.759   2.211   1.924 -0.1901  0.1904  0.0652
12736TIP3    H159623   1.752   2.231   2.017 -0.5393  0.0843  0.0600
12736TIP3    H259624   1.830   2.268   1.893 -0.0694  0.2184  0.3970
12737TIP3   OH259625   5.548   3.903   5.314 -0.1401  0.8264  0.6141
12737TIP3    H159626   5.578   3.892   5.405  1.2942  1.9486  0.2843
12737TIP3    H259627   5.617   3.953   5.272 -1.4283  1.4718 -0.7647
12738TIP3   OH259628   1.760   0.538   5.693  0.4237  0.1350  0.1042
12738TIP3    H159629   1.744   0.467   5.755 -0.8941 -0.2264 -0.6476
12738TIP3    H259630   1.692   0.602   5.712  0.3402  0.2603 -0.6212
12739TIP3   OH259631   6.356   5.958  12.648  0.5061  0.7894  0.0266
12739TIP3    H159632   6.370   5.996  12.561 -2.2624  1.5948 -0.1299
12739TIP3    H259633   6.394   6.022  12.708 -1.2849  2.3004 -0.4017
12740TIP3   OH259634   3.340   0.388   1.880  0.1947  0.5756 -0.2891
12740TIP3    H159635   3.251   0.416   1.857 -0.0888 -1.6629 -2.0371
12740TIP3    H259636   3.367   0.332   1.808  2.8330  0.7614  0.5123
12741TIP3   OH259637   6.573   2.207   3.243 -0.6196 -0.1614  0.2114
12741TIP3    H159638   6.622   2.128   3.264  0.3772 -0.1263 -1.8142
12741TIP3    H259639   6.484   2.177   3.227 -0.2961 -0.8523 -0.3128
12742TIP3   OH259640   3.002   6.785  16.093  0.1884  0.6748  0.1580
12742TIP3    H159641   3.010   6.857  16.156  0.1210 -0.8826  1.9853
12742TIP3    H259642   2.909   6.763  16.094  0.0261  1.2932 -1.2315
12743TIP3   OH259643   0.135   3.962  15.897  0.3935  0.0833 -0.2370
12743TIP3    H159644   0.139   3.901  15.824  0.1189  0.2371 -0.3838
12743TIP3    H259645   0.133   3.907  15.975  0.2135 -0.0914 -0.3649
12744TIP3   OH259646   1.594   0.499   1.248  0.4039  0.1672  0.0005
12744TIP3    H159647   1.675   0.460   1.282  0.4815 -0.6458 -1.0922
12744TIP3    H259648   1.608   0.594   1.257  2.0232  0.0920 -1.3512
12745TIP3   OH259649   3.609   6.414   4.353  0.2307 -0.0267 -0.1808
12745TIP3    H159650   3.657   6.356   4.293  0.3428  1.4885 -1.5971
12745TIP3    H259651   3.673   6.435   4.422  1.0505  0.5133 -1.0808
12746TIP3   OH259652   6.384   6.244   2.402 -0.5618  0.2138  0.1075
12746TIP3    H159653   6.433   6.273   2.325  1.7790  2.4004  2.3200
12746TIP3    H259654   6.405   6.151   2.411  0.9282  0.4759 -0.6182
12747TIP3   OH259655   1.008   0.830   1.131  0.2590  0.0014 -0.6024
12747TIP3    H159656   1.015   0.914   1.176  0.0468  0.0482 -0.6582
12747TIP3    H259657   1.099   0.806   1.112  0.5658 -1.2403  2.1156
12748TIP3   OH259658   2.801   5.847   3.548  0.1458  0.0898  0.7239
12748TIP3    H159659   2.847   5.766   3.525  0.6697  0.8725 -1.0222
12748TIP3    H259660   2.717   5.841   3.503 -0.6732 -0.4088  2.2728
12749TIP3   OH259661   5.802   4.459  13.270 -0.5006 -0.1715 -0.0320
12749TIP3    H159662   5.776   4.409  13.347  0.2298  0.9005  0.9072
12749TIP3    H259663   5.728   4.517  13.253 -0.3959  0.0401  0.2390
12750TIP3   OH259664   4.769   2.046  16.252 -0.1110  0.6708 -0.0258
12750TIP3    H159665   4.825   1.969  16.262  0.0153  1.0254  2.2606
12750TIP3    H259666   4.680   2.011  16.255 -0.0467  0.4669 -0.4146
12751TIP3   OH259667   3.841   5.943   4.762  0.2343  0.1418  0.6632
12751TIP3    H159668   3.933   5.931   4.786 -0.5738 -2.7730  2.6091
12751TIP3    H259669   3.792   5.907   4.836 -2.5049  1.7766 -0.2736
12752TIP3   OH259670   0.710   1.811  15.306  0.2978 -0.3263  0.0375
12752TIP3    H159671   0.638   1.864  15.274  1.3612  0.3236 -1.3188
12752TIP3    H259672   0.740   1.761  15.230  0.6894 -1.2824  0.7934
12753TIP3   OH259673   5.313   3.175  16.871 -0.2280 -0.1489 -0.0935
12753TIP3    H159674   5.347   3.184  16.783  0.9172 -1.6779  0.1716
12753TIP3    H259675   5.379   3.215  16.928 -0.3577 -0.3191  0.1803
12754TIP3   OH259676   5.217   6.232   4.557 -0.1800  0.5664  0.2866
12754TIP3    H159677   5.159   6.185   4.497  0.1167  3.1177 -2.0669
12754TIP3    H259678   5.302   6.188   4.548 -0.3445  0.4029 -0.5298
12755TIP3   OH259679   4.044   1.728   1.557 -0.3994 -0.0198 -0.2491
12755TIP3    H159680   4.091   1.812   1.555  1.3404 -0.9512 -0.0778
12755TIP3    H259681   3.953   1.751   1.539 -0.0225  1.9511  0.2009
12756TIP3   OH259682   4.221   2.195   0.147  0.3044  0.5511 -0.1713
12756TIP3    H159683   4.299   2.234   0.107 -1.8797  2.3344 -2.8781
12756TIP3    H259684   4.193   2.128   0.084  0.2824 -0.9112  1.3496
12757TIP3   OH259685   5.099   4.060   4.603  0.0626  0.0055 -0.1379
12757TIP3    H159686   5.066   4.037   4.690 -1.2555  1.8889 -0.1209
12757TIP3    H259687   5.143   3.980   4.573  0.7162 -0.6128  2.3252
12758TIP3   OH259688   4.965   3.870   1.397 -0.3043  0.3761  0.0862
12758TIP3    H159689   4.875   3.843   1.378 -0.3337  1.4358 -1.3559
12758TIP3    H259690   4.958   3.925   1.475 -0.7912 -0.1260  0.4046
12759TIP3   OH259691   0.348   0.141   4.130  0.6705  0.2490  0.2376
12759TIP3    H159692   0.294   0.086   4.186  2.8205  0.8300  2.9965
12759TIP3    H259693   0.432   0.095   4.126  1.0214  1.0009 -1.2749
12760TIP3   OH259694   2.256   0.474   6.520  0.5808 -0.2197 -0.2928
12760TIP3    H159695   2.241   0.568   6.509 -0.4794 -0.4996 -1.3356
12760TIP3    H259696   2.169   0.436   6.529  1.0149 -1.0783  0.4672
12761TIP3   OH259697   4.309   2.496   1.058 -0.9002  0.4176 -0.3682
12761TIP3    H159698   4.380   2.543   1.014  0.5954  0.3134  1.8150
12761TIP3    H259699   4.234   2.555   1.054 -0.3975  0.9729 -1.8137
12762TIP3   OH259700   4.516   2.917  15.259  0.0356 -0.3273 -0.1246
12762TIP3    H159701   4.460   2.981  15.216  1.2356  1.6522  1.1443
12762TIP3    H259702   4.560   2.967  15.329 -1.3403 -3.2476  2.9530
12763TIP3   OH259703   5.183   4.165  10.432  0.1305 -0.0906 -0.3488
12763TIP3    H159704   5.160   4.255  10.456  0.3999  0.5332 -2.3872
12763TIP3    H259705   5.234   4.133  10.507  1.3684  1.9874 -0.2524
12764TIP3   OH259706   3.612   1.515   0.059  0.3785 -0.2533 -0.4660
12764TIP3    H159707   3.525   1.488   0.087  0.8415 -0.5516  0.7253
12764TIP3    H259708   3.622   1.478  -0.029 -1.1370  0.7706 -1.0898
12765TIP3   OH259709   1.414   2.732  16.246  0.5736 -0.2157  0.1195
12765TIP3    H159710   1.424   2.813  16.197  0.3866  1.2237  2.4024
12765TIP3    H259711   1.460   2.747  16.328  0.0191 -2.2043  0.8287
12766TIP3   OH259712   3.008   2.941  11.851 -0.3104 -0.2532 -0.1441
12766TIP3    H159713   3.028   2.854  11.886  0.8798 -0.1612 -0.5741
12766TIP3    H259714   3.093   2.976  11.824 -0.6255  1.5091  1.0801
12767TIP3   OH259715   1.517   0.347  14.287  0.5822  0.4166 -0.1214
12767TIP3    H159716   1.470   0.271  14.252  2.1512 -0.7808  0.2508
12767TIP3    H259717   1.463   0.378  14.359 -0.4279  0.0797 -0.7270
12768TIP3   OH259718   4.930   1.881   6.675 -0.0067  0.6305  0.4240
12768TIP3    H159719   4.850   1.837   6.700  1.4256 -0.5829  3.0148
12768TIP3    H259720   4.979   1.816   6.625  1.0590  0.0088  2.2213
12769TIP3   OH259721   1.497   2.651   4.926 -0.5745 -0.2438  0.2668
12769TIP3    H159722   1.526   2.652   5.017 -0.3301 -1.0017  0.2020
12769TIP3    H259723   1.493   2.743   4.901  1.5005 -0.0959  0.3864
12770TIP3   OH259724   1.460   0.538  12.565  0.4890 -0.3248  0.1771
12770TIP3    H159725   1.461   0.501  12.477 -2.0587 -0.4600  0.1673
12770TIP3    H259726   1.417   0.622  12.556 -1.0275 -0.9295  1.4851
12771TIP3   OH259727   0.458   2.227  12.139 -0.0433  0.2567  0.2606
12771TIP3    H159728   0.436   2.246  12.048  3.6473 -0.6023 -0.9086
12771TIP3    H259729   0.438   2.134  12.150 -1.0181  0.4950  0.4968
12772TIP3   OH259730   1.522   3.783  11.537 -0.3996  0.0399 -0.7383
12772TIP3    H159731   1.464   3.855  11.513 -1.6463 -1.0654 -1.0905
12772TIP3    H259732   1.603   3.826  11.567 -1.0783  1.5654 -1.0624
12773TIP3   OH259733   4.465   5.232  11.832  0.8889 -0.2829  0.2226
12773TIP3    H159734   4.433   5.303  11.888  2.9624  0.0869  0.9738
12773TIP3    H259735   4.402   5.227  11.761 -0.0756  1.3408  0.9419
12774TIP3   OH259736   1.206   5.619  13.525  0.2056  0.8196 -0.1615
12774TIP3    H159737   1.185   5.537  13.570 -0.8549  1.4066  0.4402
12774TIP3    H259738   1.254   5.593  13.447 -0.5160 -0.4012 -0.1988
12775TIP3   OH259739   3.146   4.624   2.460 -0.2374 -0.0188 -0.6738
12775TIP3    H159740   3.073   4.562   2.461 -1.4128  1.3610  0.4475
12775TIP3    H259741   3.224   4.569   2.450 -1.3049 -1.6314 -0.2829
12776TIP3   OH259742   6.757   2.861  15.156  0.0428  0.3055 -0.1647
12776TIP3    H159743   6.735   2.768  15.146  1.1101  0.1402 -1.0733
12776TIP3    H259744   6.823   2.862  15.225 -0.2912  0.4441  0.1569
12777TIP3   OH259745   0.755   3.571  16.308  0.7434  0.0443  0.0311
12777TIP3    H159746   0.756   3.568  16.403  1.7170  2.6126  0.1425
12777TIP3    H259747   0.675   3.618  16.286  2.7416  3.5211 -0.1832
12778TIP3   OH259748   5.719   2.146   1.277 -0.3291  0.1993  0.2625
12778TIP3    H159749   5.723   2.122   1.369 -0.6669 -1.2556 -0.0967
12778TIP3    H259750   5.809   2.138   1.246 -0.5868 -1.5094 -0.0741
12779TIP3   OH259751   1.028   3.590   4.825 -0.4665 -0.0203 -0.0944
12779TIP3    H159752   1.062   3.675   4.852  0.7331 -0.5786  0.2023
12779TIP3    H259753   1.036   3.590   4.730  2.1632 -0.8565  0.0876
12780TIP3   OH259754   0.851   0.539   3.919 -0.5581  0.0110  0.0751
12780TIP3    H159755   0.816   0.450   3.927 -0.6616  0.0867  0.4538
12780TIP3    H259756   0.774   0.595   3.914 -0.5333 -0.1856 -3.3071
12781TIP3   OH259757   2.861   4.749  15.621  0.3193 -0.2962  0.1463
12781TIP3    H159758   2.908   4.831  15.609  0.7652 -0.2056  2.4110
12781TIP3    H259759   2.929   4.682  15.619  0.4259 -0.2732  2.1118
12782TIP3   OH259760   0.774   2.111  16.308  0.2383 -0.0555 -0.4420
12782TIP3    H159761   0.720   2.134  16.232  0.9034 -0.0961 -0.9296
12782TIP3    H259762   0.829   2.188  16.322  0.4990 -0.2616 -0.3358
12783TIP3   OH259763   3.742   5.037  16.668 -0.1621  0.2780  0.2495
12783TIP3    H159764   3.651   5.067  16.677 -0.2194  0.1733  0.0118
12783TIP3    H259765   3.793   5.101  16.717 -0.3664  0.3345  0.3912
12784TIP3   OH259766   0.599   4.102   3.563 -0.2674  0.6643  0.1930
12784TIP3    H159767   0.627   4.170   3.624 -1.3185  0.7979  0.5333
12784TIP3    H259768   0.652   4.026   3.587  0.3704  1.1390  0.3107
12785TIP3   OH259769   3.821   1.677  15.240 -0.5736 -0.4959  0.0528
12785TIP3    H159770   3.760   1.642  15.175 -1.8333 -0.8847  1.4180
12785TIP3    H259771   3.824   1.610  15.308 -1.5113  1.1907  1.7700
12786TIP3   OH259772   6.771   1.419  15.074 -0.6783  0.3801 -0.0746
12786TIP3    H159773   6.817   1.502  15.083  0.3383 -0.1637 -0.1823
12786TIP3    H259774   6.829   1.365  15.020 -1.5684 -0.2242 -0.4443
12787TIP3   OH259775   4.510   3.422   4.882 -0.2783 -0.3999  0.0099
12787TIP3    H159776   4.499   3.333   4.851 -0.9354 -0.1351 -0.5315
12787TIP3    H259777   4.421   3.458   4.885  0.0353  0.4152 -0.3417
12788TIP3   OH259778   0.783   6.234  12.501  0.0765 -0.1500 -0.2438
12788TIP3    H159779   0.856   6.181  12.533 -0.8499  0.0584  2.3272
12788TIP3    H259780   0.823   6.317  12.474  1.2636 -1.3967 -2.4368
12789TIP3   OH259781   3.043   5.864  10.754  0.2383  0.0045  0.6701
12789TIP3    H159782   3.069   5.931  10.690  1.3330 -0.9024  0.1398
12789TIP3    H259783   3.087   5.890  10.835 -1.3849  1.3199  1.1702
12790TIP3   OH259784   1.868   2.352  16.696 -0.6484 -0.6698  0.3336
12790TIP3    H159785   1.877   2.304  16.614  1.0052 -0.2089  0.2321
12790TIP3    H259786   1.807   2.424  16.676  0.4705 -0.0129 -0.7366
12791TIP3   OH259787   2.481   2.198  14.743  0.5609 -0.5489 -0.0771
12791TIP3    H159788   2.483   2.120  14.799  0.9252  0.1469  0.8873
12791TIP3    H259789   2.402   2.245  14.771 -0.3917 -1.2115 -1.5603
12792TIP3   OH259790   5.838   4.517  16.593  0.4182  0.6996  0.4660
12792TIP3    H159791   5.859   4.466  16.515 -1.0290  0.3895  0.2627
12792TIP3    H259792   5.743   4.528  16.590  0.1852 -0.3642  2.8301
12793TIP3   OH259793   3.153   3.598  14.861  0.1483 -0.2273  0.1717
12793TIP3    H159794   3.242   3.608  14.895 -0.0060  0.7127  0.2946
12793TIP3    H259795   3.135   3.504  14.871  0.8317 -0.2964  0.8628
12794TIP3   OH259796   2.654   3.201  13.211 -0.3256  0.3693  0.0397
12794TIP3    H159797   2.563   3.190  13.184 -0.1705 -0.7327 -0.0725
12794TIP3    H259798   2.650   3.262  13.284 -1.1647  0.2945  0.0639
12795TIP3   OH259799   4.594   3.560   2.862  0.5814 -0.2335 -0.3318
12795TIP3    H159800   4.528   3.625   2.887  0.4301  0.1835 -1.7572
12795TIP3    H259801   4.675   3.611   2.852  0.4012 -0.1875 -1.7405
12796TIP3   OH259802   2.371   6.089  16.409  0.0758  0.3838  0.1572
12796TIP3    H159803   2.455   6.124  16.379  0.6086  1.9420  3.2029
12796TIP3    H259804   2.393   6.040  16.488 -1.8149  0.3747  0.6882
12797TIP3   OH259805   0.191   6.193  16.269 -0.4826 -0.4392  0.4621
12797TIP3    H159806   0.278   6.152  16.276 -1.0901 -1.7848  0.3035
12797TIP3    H259807   0.199   6.275  16.317  1.2062 -0.0108 -0.5083
12798TIP3   OH259808   1.289   5.949  14.153 -0.0571  0.8276 -0.6166
12798TIP3    H159809   1.301   5.855  14.157  0.0958  0.8799  0.1388
12798TIP3    H259810   1.340   5.977  14.077 -1.2936  0.1162 -1.7219
12799TIP3   OH259811   5.498   5.905  14.217  0.0318 -0.0655  0.4821
12799TIP3    H159812   5.561   5.910  14.289 -0.0432  1.7061  0.4539
12799TIP3    H259813   5.455   5.990  14.218  0.0825 -0.0039 -1.7295
12800TIP3   OH259814   4.429   3.207  14.081 -0.0503 -0.1432  0.7897
12800TIP3    H159815   4.515   3.195  14.123 -0.1007  0.0909  0.9614
12800TIP3    H259816   4.395   3.118  14.070 -0.2667 -0.1809  1.7221
12801TIP3   OH259817   0.873   1.244   5.032  0.4338  0.2799 -0.1944
12801TIP3    H159818   0.920   1.281   4.957  0.7496  0.6517  0.1836
12801TIP3    H259819   0.866   1.317   5.093 -1.4592  0.4872 -0.6308
12802TIP3   OH259820   5.441   1.244   3.556 -0.2350  0.1009  0.3041
12802TIP3    H159821   5.374   1.287   3.504  0.4804  1.9294  0.8360
12802TIP3    H259822   5.523   1.282   3.525  0.3789 -0.5590  1.0881
12803TIP3   OH259823   3.837   1.844   2.218  0.4969  0.0734 -0.4978
12803TIP3    H159824   3.842   1.819   2.311  0.5834 -0.8861 -0.7572
12803TIP3    H259825   3.895   1.782   2.173  1.1525  1.1021 -1.0851
12804TIP3   OH259826   1.461   2.869  12.206  0.1375  0.0657 -0.1747
12804TIP3    H159827   1.504   2.813  12.271  0.8160  3.4592  2.4277
12804TIP3    H259828   1.373   2.832  12.198  1.2440 -2.6854 -0.2167
12805TIP3   OH259829   6.667   6.705   5.420 -0.9400 -0.3358 -0.1863
12805TIP3    H159830   6.689   6.788   5.378  2.3659 -0.9817  0.1004
12805TIP3    H259831   6.598   6.727   5.483 -0.6468  2.0261 -0.6352
12806TIP3   OH259832   5.863   0.784  14.214  0.1136 -0.1128 -0.5566
12806TIP3    H159833   5.770   0.764  14.213  0.2744 -0.8947 -2.3903
12806TIP3    H259834   5.894   0.753  14.300 -1.1797 -0.4161 -0.1937
12807TIP3   OH259835   6.282   1.716   1.342  0.5963  0.4072  0.5472
12807TIP3    H159836   6.341   1.785   1.311  0.2323  0.7386  0.5832
12807TIP3    H259837   6.261   1.666   1.263  0.3665  0.7184  0.4098
12808TIP3   OH259838   2.020   5.566  11.400  1.1889  0.4787  0.5212
12808TIP3    H159839   1.963   5.499  11.438 -0.0342  0.6236 -1.0329
12808TIP3    H259840   2.103   5.520  11.384  0.0753 -0.9516 -1.3953
12809TIP3   OH259841   1.423   1.857  16.152  0.2737 -1.0679  0.4174
12809TIP3    H159842   1.442   1.907  16.073  0.0559 -1.5591  0.0485
12809TIP3    H259843   1.365   1.914  16.203  0.8008 -0.5526  0.4481
12810TIP3   OH259844   6.361   6.710  16.330 -0.3913  0.2718 -0.3817
12810TIP3    H159845   6.321   6.794  16.352  0.5925  0.1819  1.8424
12810TIP3    H259846   6.452   6.719  16.359 -0.1363 -1.3577 -0.6622
12811TIP3   OH259847   6.529   5.020   0.877  0.2114 -0.0389 -0.5409
12811TIP3    H159848   6.500   4.971   0.954  2.8504  2.5127  2.2224
12811TIP3    H259849   6.450   5.065   0.848 -0.0477  2.3745  3.4261
12812TIP3   OH259850   4.043   4.813  13.772 -0.0645  0.4285  0.1146
12812TIP3    H159851   4.126   4.791  13.730 -1.0301 -0.6268 -1.2896
12812TIP3    H259852   4.013   4.730  13.811 -1.8204  0.0918 -1.8431
12813TIP3   OH259853   0.941   1.579  12.177  0.2859  0.2422  0.3128
12813TIP3    H159854   0.917   1.587  12.270 -0.1424 -2.2453  0.4535
12813TIP3    H259855   0.898   1.499  12.149  0.2814  1.0742 -2.1081
12814TIP3   OH259856   2.392   5.252  13.392  0.2407 -0.0653 -0.3712
12814TIP3    H159857   2.432   5.313  13.454 -0.3304  0.6370 -0.6923
12814TIP3    H259858   2.355   5.184  13.448  0.6059  0.0415  0.0078
12815TIP3   OH259859   2.290   2.510  14.751  0.3106 -0.4279  0.1953
12815TIP3    H159860   2.354   2.494  14.821  0.5591  1.1064  0.3361
12815TIP3    H259861   2.342   2.546  14.679  0.1146 -2.3630 -0.9321
12816TIP3   OH259862   5.339   5.797   5.015 -0.2221 -0.4145  1.0789
12816TIP3    H159863   5.317   5.793   5.108  0.5802 -1.8801  1.2148
12816TIP3    H259864   5.276   5.858   4.978 -1.4669 -0.9295  2.3275
12817TIP3   OH259865   5.316   1.038   1.810 -0.1838 -0.2193  0.3353
12817TIP3    H159866   5.270   0.962   1.845  1.1989 -0.8068  0.9512
12817TIP3    H259867   5.263   1.067   1.736 -1.3740 -1.0286  0.8657
12818TIP3   OH259868   5.227   0.157   4.971 -0.3577  0.3816  0.0628
12818TIP3    H159869   5.144   0.179   4.928 -0.9989  1.0141  1.6067
12818TIP3    H259870   5.209   0.165   5.065  1.5722  1.0026  0.4115
12819TIP3   OH259871   4.726   2.350   3.024  0.2422  0.6101 -0.0493
12819TIP3    H159872   4.644   2.397   3.011 -0.1905  0.3075  1.4493
12819TIP3    H259873   4.720   2.315   3.113  1.8638  0.3304 -0.0255
12820TIP3   OH259874   5.289   0.825   3.460  0.1075  0.1097  0.2119
12820TIP3    H159875   5.201   0.859   3.445  1.1569  2.9790  0.1000
12820TIP3    H259876   5.323   0.805   3.373 -0.3041 -0.6183  0.2229
12821TIP3   OH259877   1.558   1.458   2.400  0.1299  0.2201  0.2142
12821TIP3    H159878   1.624   1.412   2.347  0.3248  0.5083  0.2068
12821TIP3    H259879   1.589   1.549   2.403 -0.1270  0.2995  0.4342
12822TIP3   OH259880   1.643   4.967   1.392  0.1515 -0.0936  0.9494
12822TIP3    H159881   1.614   4.931   1.476  0.7752  0.0476  1.2260
12822TIP3    H259882   1.656   5.060   1.409 -2.4160  0.4960 -0.0080
12823TIP3   OH259883   2.056   0.390  11.094  0.1451 -0.0319  0.5844
12823TIP3    H159884   2.121   0.461  11.095 -0.9364  1.0127 -0.9471
12823TIP3    H259885   2.016   0.396  11.007 -0.6070 -1.9509  0.7805
12824TIP3   OH259886   5.687   2.761   1.019  0.7516  0.0838 -0.0260
12824TIP3    H159887   5.639   2.710   1.084 -0.9696  0.2391 -1.1490
12824TIP3    H259888   5.683   2.709   0.939  0.1272  1.3475 -0.8261
12825TIP3   OH259889   0.709   0.884   4.409  0.3817 -0.4756 -0.2835
12825TIP3    H159890   0.724   0.978   4.418  1.7806 -0.9824  3.6724
12825TIP3    H259891   0.614   0.876   4.400  0.1894  1.2727 -0.0684
12826TIP3   OH259892   2.499   4.831   4.870  0.6499  0.0681  0.2975
12826TIP3    H159893   2.557   4.776   4.817 -0.0420 -0.6845  0.3090
12826TIP3    H259894   2.488   4.911   4.819  1.2367 -0.0230  0.0287
12827TIP3   OH259895   6.355   4.161  17.102  0.1912  0.3645  0.1855
12827TIP3    H159896   6.286   4.145  17.037  2.2113  1.8982 -2.4102
12827TIP3    H259897   6.420   4.093  17.086 -0.5612 -0.9663  2.5167
12828TIP3   OH259898   5.127   2.225  16.315  0.1097 -0.3263  0.0147
12828TIP3    H159899   5.211   2.262  16.343  0.6041 -0.6506 -1.0363
12828TIP3    H259900   5.076   2.300  16.285 -0.1312 -0.0777  1.0076
12829TIP3   OH259901   6.662   3.490   1.517 -0.0695  0.0904  0.2940
12829TIP3    H159902   6.703   3.576   1.510 -1.3713  0.7738  0.9966
12829TIP3    H259903   6.680   3.448   1.433  2.3505  0.2446  0.6862
12830TIP3   OH259904   6.262   4.636   0.400 -0.0829 -0.1766  0.4429
12830TIP3    H159905   6.269   4.715   0.347  0.3827  0.4199  1.3939
12830TIP3    H259906   6.220   4.665   0.481 -2.1541 -1.3601 -0.1756
12831TIP3   OH259907   2.021   1.036  15.454 -0.0844 -0.1372  0.2719
12831TIP3    H159908   2.053   0.947  15.468 -0.1782 -0.3925 -1.0941
12831TIP3    H259909   2.075   1.071  15.384  0.0771  0.9639  0.9247
12832TIP3   OH259910   3.795   6.629  16.322 -0.2299 -0.3524 -0.0855
12832TIP3    H159911   3.797   6.681  16.241 -1.3775  1.9032  1.2807
12832TIP3    H259912   3.784   6.694  16.392 -1.0536 -2.3977  1.7321
12833TIP3   OH259913   1.444   0.495   5.710  0.2413  0.1778  0.1102
12833TIP3    H159914   1.438   0.589   5.727  0.9243 -0.1146  2.1361
12833TIP3    H259915   1.481   0.458   5.791  1.3824 -1.6444 -1.1879
12834TIP3   OH259916   6.718   2.277   3.921  0.3746 -0.1239  0.3006
12834TIP3    H159917   6.696   2.355   3.869 -0.1932 -0.7969 -0.4699
12834TIP3    H259918   6.726   2.207   3.857  2.0593 -0.4692  0.8667
12835TIP3   OH259919   2.008   4.199   6.584 -0.1280 -0.1044 -0.0876
12835TIP3    H159920   2.057   4.207   6.666 -0.7670 -0.4666  0.3269
12835TIP3    H259921   2.070   4.229   6.517  0.9911 -1.4296  0.3269
12836TIP3   OH259922   1.418   6.619   2.163 -0.5231 -0.1767  0.0618
12836TIP3    H159923   1.380   6.615   2.251  1.8301 -0.4161  1.1083
12836TIP3    H259924   1.406   6.531   2.128  0.2593 -0.6167  0.8931
12837TIP3   OH259925   6.347   0.229   5.119  0.0814 -0.2251 -0.2303
12837TIP3    H159926   6.346   0.140   5.082 -2.2192 -0.5448  0.5024
12837TIP3    H259927   6.347   0.286   5.042  0.6811 -0.8599 -0.7121
12838TIP3   OH259928   6.065   4.013  11.712 -0.1054 -0.2408  0.0165
12838TIP3    H159929   6.044   4.089  11.765  0.0212  0.5669 -1.0728
12838TIP3    H259930   5.980   3.979  11.685 -0.1553 -0.3578  0.3169
12839TIP3   OH259931   6.207   6.311  12.591 -0.1126  0.4594  0.5431
12839TIP3    H159932   6.149   6.324  12.516 -0.3662 -1.0030  0.4760
12839TIP3    H259933   6.149   6.310  12.667  0.0737  1.2468  0.7029
12840TIP3   OH259934   0.981   0.318  11.644  0.2459  1.1674 -0.0838
12840TIP3    H159935   1.053   0.323  11.707 -0.2563  1.9110  0.4533
12840TIP3    H259936   0.967   0.409  11.617  0.0368  0.9260 -0.7890
12841TIP3   OH259937   4.911   6.643   0.029  0.7172  0.3285  0.1919
12841TIP3    H159938   4.990   6.589   0.041  0.3609 -0.0030  1.1049
12841TIP3    H259939   4.847   6.583  -0.009  0.8280  0.5311 -0.3104
12842TIP3   OH259940   5.189   3.056   1.239  0.4079  0.4944 -0.0264
12842TIP3    H159941   5.161   3.120   1.304 -1.0082  0.4608 -0.5848
12842TIP3    H259942   5.141   3.080   1.160 -0.9869 -1.9358  0.0569
12843TIP3   OH259943   1.438   6.133  12.431 -0.1457  0.5709  0.1197
12843TIP3    H159944   1.367   6.195  12.444 -0.6257  0.5478 -2.1194
12843TIP3    H259945   1.479   6.125  12.517 -1.4865  2.2364  0.9513
12844TIP3   OH259946   2.323   4.548   0.195  0.0492  0.1077  0.3258
12844TIP3    H159947   2.322   4.600   0.275 -0.5579 -0.8548  0.9532
12844TIP3    H259948   2.369   4.468   0.219 -1.1823 -0.7033  0.0462
12845TIP3   OH259949   4.740   6.472   5.520 -0.0169 -1.2951  0.4757
12845TIP3    H159950   4.697   6.455   5.604 -0.6977  1.8026  0.8273
12845TIP3    H259951   4.823   6.514   5.544  0.5143 -1.8556 -0.3673
12846TIP3   OH259952   0.798   4.292  14.369 -1.0968 -0.2252  0.6616
12846TIP3    H159953   0.890   4.265  14.365 -1.1190 -0.4018  1.3636
12846TIP3    H259954   0.796   4.375  14.320 -0.7575 -0.7269 -0.2168
12847TIP3   OH259955   6.046   4.799   1.462  0.8107  0.0844  0.6631
12847TIP3    H159956   5.992   4.722   1.446  1.1118  0.1063 -0.5012
12847TIP3    H259957   6.014   4.834   1.545 -0.5258 -0.2743  0.3091
12848TIP3   OH259958   4.573   2.794  16.060 -0.5734  0.2195  0.8403
12848TIP3    H159959   4.484   2.810  16.027 -0.9968 -1.8334  0.9153
12848TIP3    H259960   4.588   2.700  16.044  1.6587  0.5848  0.6594
12849TIP3   OH259961   4.951   1.845  15.359  0.2179  0.5223 -0.2986
12849TIP3    H159962   4.929   1.852  15.452 -0.7126  1.7515 -0.5839
12849TIP3    H259963   4.869   1.868  15.314  0.2957 -1.3196 -1.4299
12850TIP3   OH259964   4.167   3.922   1.120 -0.1001 -0.0648 -0.3835
12850TIP3    H159965   4.217   4.003   1.107 -2.2757  1.4264  0.1420
12850TIP3    H259966   4.094   3.949   1.176 -0.1971 -2.6765  0.7974
12851TIP3   OH259967   5.943   0.235  13.391  0.0570 -0.1165  0.3449
12851TIP3    H159968   5.902   0.316  13.364  0.8238 -0.4909 -2.0052
12851TIP3    H259969   5.870   0.177  13.414 -0.5463  0.6087  0.2487
12852TIP3   OH259970   6.125   6.198   2.779 -0.1836 -0.2351  0.3500
12852TIP3    H159971   6.107   6.156   2.695 -1.9230  2.0280 -0.4311
12852TIP3    H259972   6.040   6.207   2.821  0.5935 -0.7455  2.1183
12853TIP3   OH259973   5.299   4.559   4.157  0.2662 -0.4929 -0.4204
12853TIP3    H159974   5.380   4.555   4.107  0.5671  0.5293 -0.0266
12853TIP3    H259975   5.232   4.528   4.097  0.2465  2.9663 -2.3022
12854TIP3   OH259976   2.212   5.002  10.880  0.3350 -0.0076 -0.4255
12854TIP3    H159977   2.154   4.950  10.824  0.7291  0.3828 -1.2108
12854TIP3    H259978   2.223   5.085  10.832 -0.3056  0.8102  0.8234
12855TIP3   OH259979   2.312   6.622  16.731  0.0561 -0.0182 -0.0701
12855TIP3    H159980   2.354   6.615  16.816 -1.3415 -0.7717  0.5724
12855TIP3    H259981   2.240   6.684  16.745  0.3529  0.5273 -0.9211
12856TIP3   OH259982   0.693   1.155   3.267  0.2086 -0.5193 -0.4966
12856TIP3    H159983   0.720   1.245   3.284  0.0790 -0.7858  1.2161
12856TIP3    H259984   0.700   1.145   3.172 -1.1523  1.7262 -0.8694
12857TIP3   OH259985   1.762   2.430   4.512 -0.2307  0.3856  0.0877
12857TIP3    H159986   1.772   2.437   4.417 -0.1943 -1.9962 -0.1102
12857TIP3    H259987   1.756   2.521   4.542  2.4151  1.2948 -1.9072
12858TIP3   OH259988   4.980   3.828  11.659 -0.2350  0.1152 -0.0989
12858TIP3    H159989   4.889   3.817  11.689  0.3561 -2.3131  0.8844
12858TIP3    H259990   5.023   3.873  11.731 -0.3883  0.2638 -0.0989
12859TIP3   OH259991   2.975   1.513  14.764 -0.3887  0.7868  0.4287
12859TIP3    H159992   2.891   1.517  14.810 -1.2760 -0.5415 -1.0272
12859TIP3    H259993   2.985   1.600  14.726 -0.8961  1.0934  0.9862
12860TIP3   OH259994   5.878   6.340   1.296  0.4951 -0.0247 -0.4383
12860TIP3    H159995   5.941   6.401   1.335 -1.6867  1.7115  0.4432
12860TIP3    H259996   5.826   6.308   1.369 -0.5928 -0.3414 -1.3287
12861TIP3   OH259997   4.663   2.417  16.934 -0.0870  0.4757 -0.0495
12861TIP3    H159998   4.747   2.413  16.887 -1.3845  0.1290 -2.4416
12861TIP3    H259999   4.633   2.507  16.920 -0.3397  0.4538  0.3640
12862TIP3   OH260000   1.886   2.540   0.435 -0.5351  0.6313 -0.4075
12862TIP3    H160001   1.857   2.462   0.484 -2.8949  1.0515 -1.1039
12862TIP3    H260002   1.806   2.589   0.418  0.6673  2.0939 -1.9666
12863TIP3   OH260003   2.261   4.185  15.854 -0.1507 -0.0955  0.8041
12863TIP3    H160004   2.219   4.200  15.770 -0.2333  0.4629  0.9422
12863TIP3    H260005   2.252   4.268  15.901  0.9856 -0.0125  0.8942
12864TIP3   OH260006   1.736   4.983  15.643  0.0382 -0.2856 -0.4136
12864TIP3    H160007   1.649   4.991  15.604  0.0371 -0.7625 -0.5037
12864TIP3    H260008   1.766   5.074  15.652  0.4379 -0.1941 -2.3899
12865TIP3   OH260009   5.286   0.422  13.331 -0.4232  0.1614  0.5346
12865TIP3    H160010   5.225   0.358  13.369 -1.3013  1.0810  0.6953
12865TIP3    H260011   5.266   0.421  13.237 -2.6582  2.4912  0.9339
12866TIP3   OH260012   4.960   0.561  13.183 -0.2172  0.4827 -0.1708
12866TIP3    H160013   4.949   0.544  13.090  2.2153  1.6788 -0.7164
12866TIP3    H260014   5.020   0.493  13.213  1.7069  2.1305 -0.2302
12867TIP3   OH260015   2.819   5.343   4.412 -0.6227  1.1095  0.4312
12867TIP3    H160016   2.746   5.356   4.352 -1.1061  1.9014  1.1832
12867TIP3    H260017   2.793   5.388   4.492 -0.0918 -0.1413  1.3348
12868TIP3   OH260018   2.427   4.237  16.955 -0.1540 -0.8786  0.5305
12868TIP3    H160019   2.442   4.180  17.031 -0.2612 -1.6214 -0.0007
12868TIP3    H260020   2.428   4.325  16.991  1.4698 -1.1333  1.1426
12869TIP3   OH260021   4.110   0.369   5.149 -0.2423  0.1151 -0.1489
12869TIP3    H160022   4.173   0.297   5.147 -0.0556  0.2117  1.7027
12869TIP3    H260023   4.134   0.423   5.074  2.3890  0.5522  0.9356
12870TIP3   OH260024   3.059   1.986  12.399 -0.0441  0.5584  0.2525
12870TIP3    H160025   2.989   1.940  12.353  0.4468 -0.6601  0.6882
12870TIP3    H260026   3.028   2.076  12.408 -2.1749 -0.2944  1.7136
12871TIP3   OH260027   3.984   5.606   3.709 -0.8848  0.6320  0.2609
12871TIP3    H160028   3.901   5.565   3.735 -0.7591 -0.2990 -0.7542
12871TIP3    H260029   3.984   5.691   3.753 -2.3600  0.6162  0.3074
12872TIP3   OH260030   5.580   6.604   4.544 -0.0867 -0.0307  0.3202
12872TIP3    H160031   5.511   6.619   4.609 -0.8803  2.1247 -0.9690
12872TIP3    H260032   5.625   6.688   4.537  0.0362 -0.2618 -1.8741
12873TIP3   OH260033   1.624   1.701  17.082  0.2060 -0.3979 -0.0522
12873TIP3    H160034   1.546   1.730  17.034 -1.1366 -0.6426  1.9203
12873TIP3    H260035   1.634   1.609  17.057 -0.1370 -0.3707 -0.3049
12874TIP3   OH260036   5.860   6.175  16.500  0.0892  0.0267  0.5853
12874TIP3    H160037   5.901   6.109  16.443 -1.5384 -0.6742  0.1970
12874TIP3    H260038   5.869   6.257  16.452  1.4013 -0.0291  0.7009
12875TIP3   OH260039   1.802   6.043   4.440 -0.7902  0.5150 -0.2725
12875TIP3    H160040   1.771   6.042   4.531  0.7548  0.2771  0.2622
12875TIP3    H260041   1.857   5.964   4.432 -1.0798  0.4171 -1.4760
12876TIP3   OH260042   2.629   5.011   3.651 -0.0715 -0.3022  0.1957
12876TIP3    H160043   2.650   4.924   3.685 -2.0379 -0.9862 -0.2508
12876TIP3    H260044   2.713   5.054   3.640  0.8997 -2.0344  0.7606
12877TIP3   OH260045   3.105   4.071   0.646 -0.6618 -0.1621 -1.1594
12877TIP3    H160046   3.176   4.069   0.710 -0.9283 -0.7425 -0.8730
12877TIP3    H260047   3.100   4.163   0.618 -0.1462 -0.0213 -0.7956
12878TIP3   OH260048   2.597   3.307  14.165  0.2052 -0.2121  0.2078
12878TIP3    H160049   2.614   3.220  14.202  1.2444 -0.2470 -0.3215
12878TIP3    H260050   2.677   3.357  14.183 -0.5353  0.7511  0.8418
12879TIP3   OH260051   4.387   5.273   5.484  0.2431  0.4910 -0.2431
12879TIP3    H160052   4.441   5.212   5.535 -0.4177  0.0051 -0.1225
12879TIP3    H260053   4.350   5.220   5.413 -0.4068  0.7275 -0.0861
12880TIP3   OH260054   6.191   3.238   2.504 -0.3633 -0.2653  0.3503
12880TIP3    H160055   6.158   3.325   2.481  3.0094  1.4555  1.5664
12880TIP3    H260056   6.281   3.237   2.469 -0.0193 -2.8842  1.2209
12881TIP3   OH260057   0.466   5.940   3.824 -0.1034  0.0290  0.0446
12881TIP3    H160058   0.557   5.959   3.848 -0.2531  2.4604 -1.1329
12881TIP3    H260059   0.414   6.000   3.877 -0.9404 -0.4283 -0.2535
12882TIP3   OH260060   3.379   3.918   2.556 -0.3869 -0.4547  0.2156
12882TIP3    H160061   3.361   3.921   2.462 -1.2579 -0.8823  0.3629
12882TIP3    H260062   3.350   3.831   2.583  1.7027 -1.0968  0.5239
12883TIP3   OH260063   0.881   5.182  13.464  0.4750  0.2177  0.1585
12883TIP3    H160064   0.904   5.267  13.426  0.0042  1.2620  2.1513
12883TIP3    H260065   0.935   5.175  13.543 -0.0342 -1.0055  0.4106
12884TIP3   OH260066   1.125   6.138  14.910 -0.0582 -0.0148  0.5088
12884TIP3    H160067   1.217   6.141  14.937  0.1992 -0.8509 -0.2530
12884TIP3    H260068   1.126   6.170  14.819 -0.4770 -0.2899  0.4041
12885TIP3   OH260069   3.710   0.443  12.836 -0.3573 -0.6069  0.2127
12885TIP3    H160070   3.803   0.440  12.814 -0.4148  1.7307 -0.5218
12885TIP3    H260071   3.665   0.436  12.751 -0.8946 -2.4768  0.6247
12886TIP3   OH260072   3.474   6.023   2.945 -0.5658 -0.7290  0.3856
12886TIP3    H160073   3.427   6.106   2.956  0.9695 -0.0711  2.3263
12886TIP3    H260074   3.528   6.035   2.867  0.4890  0.5261  1.2940
12887TIP3   OH260075   3.063   5.763   0.617 -0.0648 -0.7303  0.5056
12887TIP3    H160076   3.106   5.838   0.660 -0.1239  0.0064 -0.6850
12887TIP3    H260077   3.133   5.723   0.565 -0.7502  0.3757 -1.3121
12888TIP3   OH260078   3.336   1.477   3.644 -0.1952 -0.2768 -0.3941
12888TIP3    H160079   3.413   1.422   3.659 -0.7948 -0.9568  0.2728
12888TIP3    H260080   3.344   1.548   3.707 -1.2683 -1.6010  1.2988
12889TIP3   OH260081   1.488   0.670   0.990  0.4729 -0.3318  0.7421
12889TIP3    H160082   1.525   0.613   0.922 -1.3608  0.6976 -1.1877
12889TIP3    H260083   1.552   0.740   1.000  0.0588  0.3434 -1.0867
12890TIP3   OH260084   5.575   1.485  11.038  0.2018 -0.3717  0.3475
12890TIP3    H160085   5.604   1.570  11.005 -0.8883  0.2811  1.0447
12890TIP3    H260086   5.607   1.422  10.974 -0.7985  0.7627 -1.3096
12891TIP3   OH260087   3.790   5.236   4.293  0.0060  0.5923  0.2948
12891TIP3    H160088   3.714   5.251   4.236 -0.5463  0.3190  0.9423
12891TIP3    H260089   3.793   5.141   4.304  0.3387  0.6185  0.4085
12892TIP3   OH260090   0.934   4.765   5.696  0.4396 -0.3232  0.4018
12892TIP3    H160091   0.879   4.701   5.651  1.2334 -0.9784  0.3542
12892TIP3    H260092   0.976   4.814   5.626  1.2505 -0.9750  0.4336
12893TIP3   OH260093   6.025   2.190  14.244 -0.3566 -0.1062 -0.0088
12893TIP3    H160094   6.101   2.191  14.185  1.3647  0.2074  2.1340
12893TIP3    H260095   5.985   2.276  14.233  1.8297  1.1719  1.5594
12894TIP3   OH260096   4.278   1.463   5.020  0.2445  0.0320 -0.1288
12894TIP3    H160097   4.199   1.486   5.070  0.1683  0.8448 -0.6216
12894TIP3    H260098   4.298   1.542   4.970 -0.2506 -1.1144 -2.1654
12895TIP3   OH260099   0.415   5.106  11.025 -0.0706  0.2407 -0.4902
12895TIP3    H160100   0.510   5.091  11.023 -0.4197 -2.1267 -1.1791
12895TIP3    H260101   0.383   5.069  10.942 -1.9421 -1.8048  1.0711
12896TIP3   OH260102   0.081   5.233   0.682 -0.0178  0.4268  0.1026
12896TIP3    H160103   0.021   5.307   0.677 -1.4266 -0.7689 -1.4037
12896TIP3    H260104   0.148   5.251   0.617  0.8247  1.3748  1.2187
12897TIP3   OH260105   6.083   3.173   2.883  0.1921  0.0683 -0.0546
12897TIP3    H160106   6.009   3.121   2.913  0.2206 -0.4876 -0.9232
12897TIP3    H260107   6.149   3.163   2.952  0.2564 -1.2041 -0.2786
12898TIP3   OH260108   4.461   3.800   2.859 -0.6211 -0.0605  0.0281
12898TIP3    H160109   4.550   3.830   2.873 -0.1665 -1.5437  0.3866
12898TIP3    H260110   4.422   3.866   2.801 -0.1060  1.9431  1.8985
12899TIP3   OH260111   3.168   0.627   1.432  0.3109 -0.5015  0.6053
12899TIP3    H160112   3.245   0.585   1.396 -0.1627 -0.6362 -0.2608
12899TIP3    H260113   3.112   0.556   1.462  0.2819 -0.4238  0.7397
12900TIP3   OH260114   3.556   3.516  11.225 -0.0471 -0.1035 -0.8630
12900TIP3    H160115   3.607   3.465  11.288 -0.8896 -0.3753 -0.3948
12900TIP3    H260116   3.620   3.544  11.160  0.9872  0.7970  0.4982
12901TIP3   OH260117   6.340   6.293  16.464 -0.3148  0.3064 -0.1828
12901TIP3    H160118   6.405   6.351  16.505 -1.2657  0.8453  0.5704
12901TIP3    H260119   6.347   6.211  16.514 -1.1306  0.8017  0.7538
12902TIP3   OH260120   1.669   4.010  14.693 -0.1904 -0.2746 -0.3553
12902TIP3    H160121   1.634   3.926  14.664  1.2995 -0.5513 -1.4289
12902TIP3    H260122   1.763   3.994  14.704  0.2434  1.4546 -1.3583
12903TIP3   OH260123   2.692   6.469   5.654 -0.3892 -0.5083 -0.1080
12903TIP3    H160124   2.763   6.533   5.656 -1.3258  0.5265  0.4091
12903TIP3    H260125   2.723   6.397   5.709 -0.2808  0.5263  1.1956
12904TIP3   OH260126   6.098   2.780   0.450 -0.0957 -0.0242  0.1978
12904TIP3    H160127   6.115   2.846   0.517  1.3532  1.1240 -1.2941
12904TIP3    H260128   6.074   2.829   0.372  0.1316 -1.2994 -0.6921
12905TIP3   OH260129   5.599   1.535   0.097 -0.1192  0.3670 -0.3262
12905TIP3    H160130   5.638   1.616   0.128 -0.9982  0.6797 -0.0079
12905TIP3    H260131   5.673   1.474   0.088  0.3374  0.6807  1.1059
12906TIP3   OH260132   6.555   6.471   3.386 -0.3412 -0.3399 -0.0394
12906TIP3    H160133   6.509   6.548   3.418 -1.1259 -0.5780 -0.5952
12906TIP3    H260134   6.488   6.403   3.378  0.1399 -0.7635 -0.6026
12907TIP3   OH260135   2.670   2.821  15.483 -0.3290 -0.0581  0.4526
12907TIP3    H160136   2.701   2.799  15.396 -1.2576 -1.0881  0.3669
12907TIP3    H260137   2.747   2.854  15.529  0.1820  0.3948 -0.7203
12908TIP3   OH260138   1.994   2.166  13.300  0.1188 -0.1955  0.0107
12908TIP3    H160139   1.961   2.255  13.314 -0.6409 -0.2782 -1.1628
12908TIP3    H260140   2.088   2.176  13.289 -0.2131  0.7070 -2.1169
12909TIP3   OH260141   2.515   0.348   4.207  0.6409  0.4480 -0.0085
12909TIP3    H160142   2.518   0.272   4.149  1.5888 -0.5762  1.3323
12909TIP3    H260143   2.434   0.336   4.257  1.0889 -0.0321  0.6243
12910TIP3   OH260144   2.124   2.694   3.613 -0.3023 -0.0427  0.2778
12910TIP3    H160145   2.108   2.767   3.553 -2.0844 -1.3959 -0.9682
12910TIP3    H260146   2.111   2.732   3.700  0.6470  1.5524 -0.2548
12911TIP3   OH260147   0.634   6.267   5.047  0.2810  0.3673  0.4366
12911TIP3    H160148   0.709   6.269   5.107  1.5768  0.9749 -1.1651
12911TIP3    H260149   0.668   6.301   4.965 -1.4680 -0.4722 -0.6703
12912TIP3   OH260150   3.717   0.002  13.007  0.5690  0.1978 -0.1787
12912TIP3    H160151   3.727  -0.007  12.912  0.3296 -0.2126 -0.1669
12912TIP3    H260152   3.774   0.075  13.030 -0.5608  1.3090 -0.8573
12913TIP3   OH260153   5.244   3.765  16.294 -0.8799  0.0778  1.3997
12913TIP3    H160154   5.167   3.819  16.275  0.4267  2.0619  1.6173
12913TIP3    H260155   5.318   3.824  16.282  0.5242 -1.3858  2.7110
12914TIP3   OH260156   2.793   6.507  11.408 -0.2197  0.1319 -0.0892
12914TIP3    H160157   2.720   6.495  11.346 -1.8584  0.2185  1.7565
12914TIP3    H260158   2.810   6.419  11.442 -0.0617  0.2565  0.1499
12915TIP3   OH260159   0.913   2.857   5.053  0.4100  0.0779 -0.7197
12915TIP3    H160160   0.845   2.792   5.069  2.0967 -1.1516  1.7961
12915TIP3    H260161   0.995   2.810   5.068  1.7467  2.1007 -1.4777
12916TIP3   OH260162   2.156   3.616   5.667  0.0782 -0.4641  0.0361
12916TIP3    H160163   2.121   3.693   5.621 -2.4684 -1.5665  0.0230
12916TIP3    H260164   2.152   3.641   5.759 -0.9066 -0.6084  0.0447
12917TIP3   OH260165   5.809   2.902   1.903  0.0156  0.2740 -0.0861
12917TIP3    H160166   5.835   2.812   1.882  0.6899  0.3042  0.5922
12917TIP3    H260167   5.760   2.931   1.826  0.3732 -0.4422 -0.5942
12918TIP3   OH260168   5.254   0.773  15.771 -0.3223 -0.1546  0.3601
12918TIP3    H160169   5.170   0.797  15.733  0.1693  1.7136  0.3891
12918TIP3    H260170   5.236   0.753  15.862 -0.5761  1.3946  0.6664
12919TIP3   OH260171   4.269   6.314  15.294  0.7709  0.3173  0.3402
12919TIP3    H160172   4.312   6.330  15.210  1.8818 -1.0983  0.6326
12919TIP3    H260173   4.231   6.399  15.317  0.8328  0.8296 -1.3741
12920TIP3   OH260174   4.156   3.867  10.494 -0.1489  0.3660  0.5329
12920TIP3    H160175   4.106   3.930  10.442 -1.0933  0.1781  1.2262
12920TIP3    H260176   4.239   3.858  10.446 -1.0885  0.0399 -1.0748
12921TIP3   OH260177   3.041   5.971  15.051  0.0962  0.0223 -0.1012
12921TIP3    H160178   3.030   6.009  14.963 -2.9667 -2.5286 -0.9128
12921TIP3    H260179   3.082   5.886  15.035  1.1749  0.2980  1.1308
12922TIP3   OH260180   0.463   2.649  15.096  0.4806 -0.3653 -0.4046
12922TIP3    H160181   0.399   2.634  15.026 -0.9559  1.2693  0.5319
12922TIP3    H260182   0.488   2.561  15.124 -2.1885 -1.0721 -0.0552
12923TIP3   OH260183   1.935   6.777   0.043 -0.2082  0.3236 -0.6063
12923TIP3    H160184   1.847   6.757   0.074 -0.1762 -0.7605 -1.2063
12923TIP3    H260185   1.992   6.715   0.088  0.4783  2.1106  1.0694
12924TIP3   OH260186   1.140   0.424  14.003 -0.4224  0.3230 -0.0522
12924TIP3    H160187   1.207   0.452  13.941 -0.4212  0.0140 -0.1879
12924TIP3    H260188   1.115   0.336  13.974  0.7095 -0.4719  1.3277
12925TIP3   OH260189   2.102   0.850   5.213 -0.1476 -1.0050 -0.0697
12925TIP3    H160190   2.150   0.852   5.130 -0.1586  1.1301 -0.0697
12925TIP3    H260191   2.170   0.864   5.279 -0.8128  3.1252 -0.1388
12926TIP3   OH260192   4.731   3.510   5.093 -0.2371 -0.0281 -0.3242
12926TIP3    H160193   4.780   3.427   5.103  1.1368  0.7919 -0.0550
12926TIP3    H260194   4.662   3.490   5.031 -0.4331 -1.6115  0.3740
12927TIP3   OH260195   1.934   2.211  12.804 -0.2434  0.0465 -0.1534
12927TIP3    H160196   1.890   2.230  12.887 -0.5780 -0.7576 -0.1512
12927TIP3    H260197   1.995   2.285  12.793 -0.2220  0.1795  0.7861
12928TIP3   OH260198   1.873   2.214  16.432 -1.1135 -0.0697  0.0396
12928TIP3    H160199   1.857   2.122  16.411 -2.5302  0.0696  0.4769
12928TIP3    H260200   1.963   2.230  16.403 -0.5450 -1.8362  0.7757
12929TIP3   OH260201   3.932   2.280  11.445 -1.0923 -0.0423 -0.0325
12929TIP3    H160202   4.020   2.283  11.408 -0.8823 -0.8798  0.3934
12929TIP3    H260203   3.943   2.238  11.530 -1.6903  1.1404  0.6509
12930TIP3   OH260204   2.743   4.470  16.822  0.1078  0.1898  0.4029
12930TIP3    H160205   2.813   4.456  16.758  0.8856 -0.6009  1.4237
12930TIP3    H260206   2.704   4.554  16.796  1.2525  0.5067 -0.3367
12931TIP3   OH260207   4.166   2.806   5.647 -0.1617 -0.8593  0.0536
12931TIP3    H160208   4.193   2.898   5.641 -2.8602 -0.0642 -0.5658
12931TIP3    H260209   4.173   2.784   5.740 -2.7176  1.0126  0.7165
12932TIP3   OH260210   2.822   1.302   2.913 -0.0545  0.1082 -0.3525
12932TIP3    H160211   2.801   1.377   2.969  0.4048  1.2191 -1.6331
12932TIP3    H260212   2.918   1.302   2.909 -0.1315  1.5415 -3.0915
12933TIP3   OH260213   5.022   1.096  13.862 -0.2223 -0.1306 -0.0016
12933TIP3    H160214   5.055   1.056  13.943 -1.8822  0.7250  1.1320
12933TIP3    H260215   5.034   1.190  13.875  0.8116 -0.0787 -1.3506
12934TIP3   OH260216   3.127   1.184   6.557  0.5321  0.1879 -0.4565
12934TIP3    H160217   3.057   1.245   6.577  0.9784  0.5011  0.1871
12934TIP3    H260218   3.088   1.098   6.570  0.3124  0.3627  0.0629
12935TIP3   OH260219   2.034   3.928   1.129 -0.1812 -0.2207 -0.2182
12935TIP3    H160220   2.107   3.899   1.183  0.2813 -1.2110 -1.3615
12935TIP3    H260221   2.072   3.992   1.069 -0.6061  0.5621  0.3442
12936TIP3   OH260222   3.696   3.514  12.044  0.5346 -0.5149  0.3322
12936TIP3    H160223   3.651   3.434  12.016  3.0264 -1.7980 -0.0623
12936TIP3    H260224   3.745   3.543  11.967  1.9882 -0.2489  1.3439
12937TIP3   OH260225   3.184   3.914  11.539  0.5249 -0.4868 -0.1846
12937TIP3    H160226   3.219   3.988  11.490 -3.6597 -0.4825 -3.5285
12937TIP3    H260227   3.206   3.837  11.486  2.9039 -1.4694  2.1272
12938TIP3   OH260228   3.307   0.865   5.251  0.3969  0.3311  0.0911
12938TIP3    H160229   3.299   0.887   5.344  0.2275 -1.2781  0.4605
12938TIP3    H260230   3.244   0.923   5.208 -0.4058  0.2234  1.1055
12939TIP3   OH260231   4.779   0.589  11.267 -0.0916  0.0843 -0.4852
12939TIP3    H160232   4.841   0.558  11.201 -0.4887  1.3199 -1.4605
12939TIP3    H260233   4.809   0.549  11.349  2.7937  1.6941 -0.7079
12940TIP3   OH260234   5.793   3.403  17.148  0.2759  0.4909  0.0566
12940TIP3    H160235   5.810   3.334  17.083  0.1768  0.9730 -0.4813
12940TIP3    H260236   5.879   3.442  17.164  0.4246 -0.1000  0.7651
12941TIP3   OH260237   6.737   3.435   4.303 -0.3734  0.2045  0.1030
12941TIP3    H160238   6.712   3.514   4.255  1.2192  0.1530 -0.8524
12941TIP3    H260239   6.673   3.369   4.275 -0.0763  0.4486 -1.1829
12942TIP3   OH260240   4.474   1.355  12.700  0.2535  0.0888 -0.4637
12942TIP3    H160241   4.396   1.411  12.699 -0.7360 -1.2014  1.2943
12942TIP3    H260242   4.545   1.414  12.727 -0.6460  0.6776  0.7102
12943TIP3   OH260243   0.873   2.564   1.542 -0.0141  0.2827 -0.0909
12943TIP3    H160244   0.934   2.584   1.471  0.6950  0.1846  0.4903
12943TIP3    H260245   0.927   2.526   1.611 -0.2069  2.9976  1.6485
12944TIP3   OH260246   2.278   0.800  16.809 -0.0503  0.0107  0.7836
12944TIP3    H160247   2.184   0.786  16.816  0.0099 -0.3056  1.0303
12944TIP3    H260248   2.315   0.711  16.803  0.1338  0.1756 -0.7157
12945TIP3   OH260249   5.005   0.551   1.763 -0.6960 -0.0000  0.1945
12945TIP3    H160250   5.012   0.501   1.845  0.8855 -2.1105 -1.1648
12945TIP3    H260251   4.988   0.641   1.791 -0.8548 -0.8039  2.8208
12946TIP3   OH260252   2.145   2.627   0.663 -0.4393 -0.1800  0.0913
12946TIP3    H160253   2.227   2.587   0.634  0.7368  1.1453  1.5535
12946TIP3    H260254   2.118   2.681   0.588 -0.4917 -1.3422 -0.7519
12947TIP3   OH260255   4.147   2.218  17.001 -0.0896  0.6398  0.1145
12947TIP3    H160256   4.221   2.166  16.969 -0.6621 -1.0619  1.4976
12947TIP3    H260257   4.120   2.270  16.925  0.3707 -1.2340 -1.3664
12948TIP3   OH260258   6.767   2.938  13.932 -0.2358  1.0152 -0.3658
12948TIP3    H160259   6.724   2.911  13.851 -0.1004  1.8574 -0.7284
12948TIP3    H260260   6.811   2.859  13.963  0.0538  0.7843 -1.3344
12949TIP3   OH260261   6.247   1.677  12.592 -0.4700 -0.1833  0.2953
12949TIP3    H160262   6.192   1.695  12.669  1.2214  2.4861  0.9282
12949TIP3    H260263   6.237   1.754  12.537  2.1928  0.0899  0.1537
12950TIP3   OH260264   0.379   5.656  11.286  0.0546  0.2401 -0.6142
12950TIP3    H160265   0.453   5.618  11.333 -0.4423  1.4846  1.2129
12950TIP3    H260266   0.406   5.746  11.268 -0.5941  0.3789 -0.8929
12951TIP3   OH260267   5.677   4.758  11.266  0.4695 -0.2986 -0.8489
12951TIP3    H160268   5.678   4.773  11.171  1.2149  1.0134 -0.6479
12951TIP3    H260269   5.747   4.814  11.300 -0.5887  0.1758  0.6140
12952TIP3   OH260270   2.289   5.584   0.857  0.6417  0.5830 -0.6891
12952TIP3    H160271   2.230   5.611   0.928  0.1653  0.6120 -1.0983
12952TIP3    H260272   2.231   5.565   0.783  1.0116 -0.8963 -0.6169
12953TIP3   OH260273   4.527   3.571  12.156 -0.0537  0.3658  0.0672
12953TIP3    H160274   4.593   3.514  12.194  0.6198 -0.1793 -1.8587
12953TIP3    H260275   4.444   3.527  12.174  0.4501 -1.1688 -1.2491
12954TIP3   OH260276   5.771   2.383   1.084 -0.4086  0.4673 -0.4234
12954TIP3    H160277   5.765   2.357   1.175  0.7534 -1.8009 -0.9590
12954TIP3    H260278   5.718   2.463   1.078 -1.8485 -0.2802  1.8469
12955TIP3   OH260279   4.242   2.161  11.695 -0.1383  0.2084 -0.2979
12955TIP3    H160280   4.277   2.250  11.684 -1.0349  0.5160 -0.6273
12955TIP3    H260281   4.315   2.112  11.733  0.2466  1.1710  0.2177
12956TIP3   OH260282   3.429   6.603  14.929  0.0871 -0.1519 -0.1737
12956TIP3    H160283   3.493   6.628  14.997  0.9872  0.0441 -1.0796
12956TIP3    H260284   3.420   6.509  14.938  1.4853 -0.3675 -0.8664
12957TIP3   OH260285   4.022   0.169   0.391 -0.1405 -0.8040 -0.2457
12957TIP3    H160286   4.012   0.137   0.480  2.4604 -0.8265  0.0671
12957TIP3    H260287   4.044   0.092   0.339  0.3329 -0.4849 -0.5303
12958TIP3   OH260288   0.370   3.044  11.371  0.3981 -0.2235  0.2974
12958TIP3    H160289   0.437   3.018  11.435  1.9248  2.0985 -0.3039
12958TIP3    H260290   0.415   3.039  11.287 -0.9326 -1.0356 -0.3751
12959TIP3   OH260291   6.113   3.907   0.043 -0.0124  0.6777  0.4454
12959TIP3    H160292   6.167   3.925   0.119 -0.6277  1.3877  0.7214
12959TIP3    H260293   6.042   3.971   0.048 -0.8789 -0.2365  0.0907
12960TIP3   OH260294   5.875   6.123   5.179 -0.1046 -0.0430 -0.1701
12960TIP3    H160295   5.843   6.213   5.179  0.5794  0.2203  1.4854
12960TIP3    H260296   5.800   6.070   5.153 -1.2848  0.7590  1.5679
12961TIP3   OH260297   3.274   0.634   0.326 -0.3893 -0.8818  0.2864
12961TIP3    H160298   3.355   0.584   0.328  0.3659  0.3029 -0.1711
12961TIP3    H260299   3.294   0.714   0.375 -0.8182  0.0858 -1.0796
12962TIP3   OH260300   5.796   4.724   5.305  0.1712 -0.0905 -0.3015
12962TIP3    H160301   5.881   4.700   5.268  1.2700  2.3809  0.4991
12962TIP3    H260302   5.736   4.722   5.231  1.2105 -0.4728 -1.1438
12963TIP3   OH260303   2.985   1.768  11.706  0.4786  0.4067 -0.0765
12963TIP3    H160304   2.901   1.808  11.729  0.6806  0.1666  1.1488
12963TIP3    H260305   2.981   1.757  11.611 -1.1438 -0.2006  0.0321
12964TIP3   OH260306   3.638   5.771   5.174 -0.1098 -0.2322  0.3338
12964TIP3    H160307   3.650   5.852   5.223  1.1593 -0.7562  0.9015
12964TIP3    H260308   3.543   5.763   5.163 -0.5469 -0.8570  3.9739
12965TIP3   OH260309   2.244   1.658   1.788 -0.0613  0.1529 -0.4569
12965TIP3    H160310   2.211   1.745   1.764  0.0825  0.1431 -0.6905
12965TIP3    H260311   2.264   1.665   1.882  0.0018  0.3876 -0.4870
12966TIP3   OH260312   1.461   5.935   4.069  0.4885 -0.0876  0.0934
12966TIP3    H160313   1.440   5.850   4.106  0.2790 -0.2252 -0.3408
12966TIP3    H260314   1.555   5.931   4.052  0.4840 -0.2191  0.1024
12967TIP3   OH260315   3.868   2.234   1.345  0.1674 -0.2661 -0.0478
12967TIP3    H160316   3.891   2.212   1.435  0.5248 -0.7320 -0.2508
12967TIP3    H260317   3.933   2.299   1.319 -0.3386  0.3649  0.2497
12968TIP3   OH260318   0.025   6.024  12.086  0.2031 -0.4497 -0.0463
12968TIP3    H160319   0.028   5.963  12.159  2.8435  2.7092  2.6790
12968TIP3    H260320   0.112   6.020  12.048  0.3713  1.4493  0.0925
12969TIP3   OH260321   2.541   5.606   0.766 -0.4684 -0.6391  0.2628
12969TIP3    H160322   2.554   5.657   0.685 -0.3697 -0.4441  0.4003
12969TIP3    H260323   2.450   5.622   0.790 -0.2277  0.0720  0.7121
12970TIP3   OH260324   1.989   5.863  12.354 -0.0698  0.1232 -0.1498
12970TIP3    H160325   2.021   5.950  12.379  0.0821 -0.2380  0.9223
12970TIP3    H260326   2.069   5.813  12.336 -0.1374  0.0650 -0.2847
12971TIP3   OH260327   1.110   1.761  11.938 -0.0521  0.3332 -0.2870
12971TIP3    H160328   1.069   1.709  11.869 -0.6493  1.4580 -0.7969
12971TIP3    H260329   1.179   1.810  11.892  0.4400  0.0741  0.1707
12972TIP3   OH260330   5.198   2.940   0.375  0.4635  0.4806  0.6233
12972TIP3    H160331   5.265   2.890   0.421  0.9614  0.4847 -0.0931
12972TIP3    H260332   5.123   2.880   0.371  0.7840  0.0825  0.4918
12973TIP3   OH260333   0.557   4.839   4.360  0.8417  0.6377 -0.0220
12973TIP3    H160334   0.580   4.787   4.282  1.0894  0.4064  0.2024
12973TIP3    H260335   0.641   4.856   4.403  0.5946 -0.3611  0.8971
12974TIP3   OH260336   5.319   0.953   2.386  0.1584  0.2156  0.7164
12974TIP3    H160337   5.374   1.013   2.437  2.4235 -0.3288 -1.0207
12974TIP3    H260338   5.303   0.999   2.304  1.1798 -1.1928 -0.2870
12975TIP3   OH260339   6.488   3.333  14.086 -0.6900  0.1067  0.3430
12975TIP3    H160340   6.474   3.278  14.008  0.6908 -0.2230  0.3158
12975TIP3    H260341   6.475   3.423  14.054 -0.9186 -0.0749 -0.0862
12976TIP3   OH260342   2.157   1.534   3.878  0.9072 -0.0389  0.2827
12976TIP3    H160343   2.247   1.545   3.908  1.2641 -0.5727 -0.5628
12976TIP3    H260344   2.164   1.478   3.800 -0.0609  0.6949 -0.3458
12977TIP3   OH260345   3.701   5.829  11.642 -0.3971 -0.1161  0.0031
12977TIP3    H160346   3.640   5.902  11.629  0.0133  0.5464  1.5749
12977TIP3    H260347   3.767   5.840  11.574 -1.3864 -0.1582 -0.9860
12978TIP3   OH260348   3.113   3.262  11.604  0.0617  0.0624  0.1900
12978TIP3    H160349   3.094   3.276  11.511 -0.5103 -2.3020 -0.0706
12978TIP3    H260350   3.039   3.303  11.650 -1.0303 -1.1325 -0.4929
12979TIP3   OH260351   0.161   2.955   3.902  0.1270  0.6320 -0.1433
12979TIP3    H160352   0.146   3.045   3.875 -0.0106  0.4317 -0.7377
12979TIP3    H260353   0.228   2.923   3.842 -2.1601 -0.6812 -2.0772
12980TIP3   OH260354   0.049   0.337   6.039 -0.2484 -0.1640 -0.1274
12980TIP3    H160355   0.120   0.276   6.018 -1.2621 -2.1584  2.0444
12980TIP3    H260356   0.070   0.368   6.127 -1.2195  0.4698 -0.1145
12981TIP3   OH260357   1.180   2.646   3.489 -0.1165  0.3991 -0.3851
12981TIP3    H160358   1.155   2.587   3.560 -1.3512  1.3379 -0.0304
12981TIP3    H260359   1.255   2.694   3.525 -0.5332  0.6437  0.1614
12982TIP3   OH260360   3.173   2.593  10.828  0.3854  0.2681 -0.7189
12982TIP3    H160361   3.131   2.660  10.773 -2.3603 -2.2936 -1.9026
12982TIP3    H260362   3.240   2.555  10.772 -1.2255 -1.1317 -1.7583
12983TIP3   OH260363   5.513   2.474  14.794  0.3565  0.0014 -0.1473
12983TIP3    H160364   5.585   2.462  14.732 -0.5769 -0.6540 -1.1165
12983TIP3    H260365   5.485   2.565  14.780 -0.4877 -0.4391 -1.3928
12984TIP3   OH260366   2.505   3.347  11.731  0.2053 -0.0047  0.1081
12984TIP3    H160367   2.456   3.360  11.650 -0.1733 -0.2974  0.2844
12984TIP3    H260368   2.483   3.424  11.785  1.0900  0.5912 -0.3703
12985TIP3   OH260369   5.924   6.105  12.587  0.3978 -0.6130 -0.1633
12985TIP3    H160370   5.951   6.171  12.524 -1.6896 -0.2486 -0.7286
12985TIP3    H260371   5.851   6.060  12.544  0.3423 -1.7865  1.1333
12986TIP3   OH260372   5.411   5.495  16.842  0.2698 -0.3217 -0.1172
12986TIP3    H160373   5.459   5.540  16.911 -0.8741  0.6063  0.0900
12986TIP3    H260374   5.404   5.560  16.771 -0.1864 -0.6343 -0.3621
12987TIP3   OH260375   5.604   1.121  12.456 -0.0909  0.7008  0.6520
12987TIP3    H160376   5.598   1.036  12.501  1.1598  0.5260  0.5216
12987TIP3    H260377   5.694   1.150  12.472  0.3170  0.7257 -1.5579
12988TIP3   OH260378   0.235   5.700  14.380 -0.0482  0.3479 -0.5328
12988TIP3    H160379   0.158   5.663  14.422 -0.1495  0.5283 -0.5603
12988TIP3    H260380   0.279   5.749  14.450 -0.3421  0.8433 -0.6941
12989TIP3   OH260381   0.298   5.942   2.663 -0.2208 -0.5050 -0.1696
12989TIP3    H160382   0.365   5.874   2.657 -0.1857 -0.5569  0.7219
12989TIP3    H260383   0.314   5.984   2.747 -0.3470  0.5054 -0.6383
12990TIP3   OH260384   0.968   1.685  11.093  0.2093  0.5426 -0.0507
12990TIP3    H160385   0.953   1.639  11.010  0.0283 -0.3261  0.4641
12990TIP3    H260386   0.940   1.775  11.075  0.4000  0.4210 -1.0073
12991TIP3   OH260387   3.179   0.102  10.519 -1.0211  0.2005 -0.1615
12991TIP3    H160388   3.244   0.164  10.487 -0.5354  0.0637  0.5454
12991TIP3    H260389   3.095   0.145  10.504 -0.5810  2.4269  3.1667
12992TIP3   OH260390   0.375   4.795  15.830  0.0768  0.0532 -0.0451
12992TIP3    H160391   0.338   4.848  15.900 -0.5778 -1.5804  0.8785
12992TIP3    H260392   0.300   4.766  15.779  0.2239 -1.4898  0.5646
12993TIP3   OH260393   5.682   6.592  12.751  0.1653  0.0263  0.7157
12993TIP3    H160394   5.712   6.681  12.732 -2.1025  0.1501 -2.7087
12993TIP3    H260395   5.712   6.541  12.677 -1.3366 -1.4031  1.0667
12994TIP3   OH260396   5.776   3.887   4.565  0.1315  0.7666  0.2624
12994TIP3    H160397   5.743   3.956   4.508 -0.1161  0.1649 -0.3391
12994TIP3    H260398   5.818   3.825   4.505 -0.1295  0.1303  0.7242
12995TIP3   OH260399   4.608   2.185   5.241 -0.0980 -0.1413  0.2874
12995TIP3    H160400   4.700   2.158   5.249 -0.6539 -2.0629  0.3718
12995TIP3    H260401   4.558   2.114   5.282 -1.6718  0.4605 -0.5362
12996TIP3   OH260402   1.235   6.420  14.631  0.2742  0.2924 -1.4899
12996TIP3    H160403   1.274   6.332  14.639  0.9913  0.7213 -0.0701
12996TIP3    H260404   1.310   6.479  14.627 -0.2119  0.9029 -1.6720
12997TIP3   OH260405   1.482   1.448   0.669  0.4685  0.3271  0.6399
12997TIP3    H160406   1.415   1.415   0.729 -0.3782 -0.8262 -0.8777
12997TIP3    H260407   1.491   1.541   0.691 -3.6268  1.1909 -0.8434
12998TIP3   OH260408   4.742   4.934   2.107  0.2422 -0.1610  0.3952
12998TIP3    H160409   4.701   4.848   2.101 -0.9503  0.5074 -1.6126
12998TIP3    H260410   4.669   4.994   2.126  0.7360  0.6539 -0.2295
12999TIP3   OH260411   5.460   5.540  13.862  0.2706  0.0127  0.1576
12999TIP3    H160412   5.534   5.557  13.805 -0.4616  1.8474 -0.2787
12999TIP3    H260413   5.396   5.495  13.806  1.1978 -1.9630  0.6471
13000TIP3   OH260414   3.875   0.686  16.015 -0.1868 -0.3266  0.1462
13000TIP3    H160415   3.921   0.716  15.937 -0.5464 -0.0963  0.0243
13000TIP3    H260416   3.940   0.635  16.064 -0.2768 -1.4132 -0.8442
13001TIP3   OH260417   5.598   6.126  17.016 -0.1309  0.0409 -0.4393
13001TIP3    H160418   5.692   6.135  17.001 -0.1750  1.4146  0.0600
13001TIP3    H260419   5.559   6.137  16.930  0.2382 -1.7742 -0.8532
13002TIP3   OH260420   6.191   1.253  16.817 -0.4045  0.3219 -0.2702
13002TIP3    H160421   6.178   1.199  16.740  1.7308  0.7131 -0.9429
13002TIP3    H260422   6.102   1.275  16.847 -1.2757 -2.6992 -0.5331
13003TIP3   OH260423   2.320   3.654   3.975  0.0420 -0.1502 -0.6484
13003TIP3    H160424   2.280   3.668   4.061  0.3587 -2.2072 -0.1530
13003TIP3    H260425   2.278   3.719   3.918 -2.4090 -0.8095  0.3651
13004TIP3   OH260426   2.261   2.193   1.554  0.1966  0.1042  0.2656
13004TIP3    H160427   2.351   2.219   1.535  0.2571 -0.2023  0.1414
13004TIP3    H260428   2.256   2.194   1.650  0.5413 -0.5813  0.2975
13005TIP3   OH260429   4.289   5.033  16.955 -0.1760  0.2943  0.0597
13005TIP3    H160430   4.198   5.014  16.979 -0.0801  1.2269  1.2150
13005TIP3    H260431   4.340   5.004  17.031 -0.0088  4.8980  1.8208
13006TIP3   OH260432   0.082   3.097   2.352  0.1091  0.6622 -0.6010
13006TIP3    H160433   0.057   3.074   2.263 -1.9519 -3.7376  0.9849
13006TIP3    H260434   0.149   3.033   2.376 -1.0334  0.2803  1.7532
13007TIP3   OH260435   4.693   2.922  11.608 -0.4213 -0.6065 -0.3323
13007TIP3    H160436   4.709   2.840  11.654  0.7517 -0.5719 -0.6646
13007TIP3    H260437   4.774   2.940  11.561 -0.5845  0.8491 -0.0966
13008TIP3   OH260438   0.217   4.662  13.929 -0.6693  0.2666  0.3833
13008TIP3    H160439   0.262   4.630  14.008 -0.4704  0.2345  0.2569
13008TIP3    H260440   0.152   4.724  13.962  0.0288  0.9520  0.5147
13009TIP3   OH260441   4.682   6.318  14.093 -0.1294  0.1664  0.1460
13009TIP3    H160442   4.650   6.228  14.104  0.2901 -0.0506 -0.3598
13009TIP3    H260443   4.753   6.310  14.029  1.9636  0.4104  2.3905
13010TIP3   OH260444   5.010   2.310   3.409 -0.2167 -0.1107  0.5021
13010TIP3    H160445   5.086   2.327   3.353 -1.0551  0.3649 -0.5140
13010TIP3    H260446   4.999   2.391   3.459 -1.3632  0.6619 -0.9439
13011TIP3   OH260447   5.440   5.763   0.808  0.2504  0.7261  0.0546
13011TIP3    H160448   5.518   5.817   0.794  1.2346  0.2413  3.1259
13011TIP3    H260449   5.433   5.757   0.904 -2.0683 -1.3674 -0.2106
13012TIP3   OH260450   6.571   0.503   6.729 -0.6980  1.2526 -1.1279
13012TIP3    H160451   6.654   0.458   6.721 -1.2449  0.3129 -1.5569
13012TIP3    H260452   6.513   0.440   6.772 -0.8093  2.3992  0.4751
13013TIP3   OH260453   2.878   1.867   3.663 -0.1536  0.0756  0.0142
13013TIP3    H160454   2.833   1.785   3.642 -0.6246  0.9498 -2.6417
13013TIP3    H260455   2.971   1.844   3.660 -0.2628 -0.2284 -1.4778
13014TIP3   OH260456   3.444   3.968  15.913  0.3727  0.1525 -0.0512
13014TIP3    H160457   3.352   3.951  15.893  0.5429  1.1853 -1.8070
13014TIP3    H260458   3.452   4.063  15.911  1.7881  0.0156 -1.3154
13015TIP3   OH260459   2.769   3.900   1.040  0.1376 -0.0362  0.2503
13015TIP3    H160460   2.859   3.895   1.008  0.5648 -0.1194  1.4442
13015TIP3    H260461   2.726   3.963   0.982  0.6460 -0.8475 -1.0425
13016TIP3   OH260462   6.228   4.413  16.325 -0.1522  0.2784  0.3377
13016TIP3    H160463   6.314   4.434  16.363 -0.2807 -0.5848  1.1224
13016TIP3    H260464   6.181   4.368  16.395 -0.8693 -0.1839 -0.4294
13017TIP3   OH260465   2.817   2.660  16.181 -0.2344 -0.1824 -0.4124
13017TIP3    H160466   2.797   2.605  16.256  0.9411  0.5742  0.4637
13017TIP3    H260467   2.776   2.744  16.201  0.2400  0.0773 -0.5303
13018TIP3   OH260468   4.960   5.226   3.306 -0.1714  0.1211  0.3066
13018TIP3    H160469   4.927   5.148   3.263 -0.4224  0.2001  0.3561
13018TIP3    H260470   4.994   5.281   3.235 -0.2002  0.0666  0.2519
13019TIP3   OH260471   2.791   3.570  11.264  0.4634 -0.1763  0.0475
13019TIP3    H160472   2.751   3.560  11.351  1.8959  0.7772  0.8239
13019TIP3    H260473   2.881   3.539  11.276 -0.0574 -2.5796 -1.7552
13020TIP3   OH260474   3.337   6.773   1.501  0.1267  0.0661 -0.1823
13020TIP3    H160475   3.383   6.690   1.511  2.1832  1.1685 -0.0979
13020TIP3    H260476   3.252   6.759   1.541 -0.1642 -2.4823 -1.6374
13021TIP3   OH260477   4.380   5.770  11.984 -0.2889  0.3903 -0.1081
13021TIP3    H160478   4.333   5.768  11.901  0.2101  2.5820 -0.4776
13021TIP3    H260479   4.472   5.759  11.960 -0.0740  1.7077  0.0701
13022TIP3   OH260480   4.547   5.940  16.554  0.3110 -0.4363 -0.4599
13022TIP3    H160481   4.588   5.896  16.628 -0.3921 -1.1855 -0.5028
13022TIP3    H260482   4.482   5.998  16.594  0.3664 -0.3754 -0.4596
13023TIP3   OH260483   4.319   3.810  15.604  0.1011  0.2706 -0.0258
13023TIP3    H160484   4.397   3.790  15.657  0.1996  2.1484  0.5888
13023TIP3    H260485   4.246   3.771  15.651  0.4640  0.0249  0.3301
13024TIP3   OH260486   3.046   2.723  13.888 -0.0189  0.2940  0.9083
13024TIP3    H160487   3.054   2.645  13.834 -0.8826  0.6240  0.3043
13024TIP3    H260488   2.995   2.785  13.836 -0.6692  0.6982  1.9888
13025TIP3   OH260489   6.088   6.273   1.626 -0.2259 -0.3302 -0.1108
13025TIP3    H160490   6.080   6.188   1.583 -1.7943 -0.0931 -0.3370
13025TIP3    H260491   6.022   6.271   1.695 -0.9006  1.0270 -0.6859
13026TIP3   OH260492   4.153   0.240   1.976 -0.4017 -0.1004 -0.5644
13026TIP3    H160493   4.131   0.248   2.069  0.4402  1.1192 -0.4585
13026TIP3    H260494   4.243   0.208   1.975  0.0212  1.0663 -0.9384
13027TIP3   OH260495   0.544   0.994  14.907 -0.1890 -0.0184  0.0935
13027TIP3    H160496   0.589   0.918  14.944  2.4656  1.6401  0.3407
13027TIP3    H260497   0.614   1.051  14.875 -2.1374  2.3186 -0.1439
13028TIP3   OH260498   3.303   2.599  14.546  0.1154  0.1822  0.2487
13028TIP3    H160499   3.398   2.612  14.548  0.1443  0.8321 -2.6096
13028TIP3    H260500   3.291   2.522  14.489 -0.9956 -1.3079  2.4054
13029TIP3   OH260501   0.131   1.639   3.689  0.3920 -0.6542 -0.4389
13029TIP3    H160502   0.153   1.659   3.598  2.4977 -2.9092 -0.4775
13029TIP3    H260503   0.160   1.548   3.701  0.3376 -0.3214  2.5285
13030TIP3   OH260504   5.341   5.452   0.239 -0.1621  0.0359 -0.1371
13030TIP3    H160505   5.285   5.407   0.176  1.0800 -0.3767 -0.9487
13030TIP3    H260506   5.423   5.404   0.238  0.3361  0.8465  0.7974
13031TIP3   OH260507   1.790   3.492   2.231 -0.3594 -0.0186  0.2876
13031TIP3    H160508   1.751   3.411   2.198 -0.5689  0.8153 -1.5461
13031TIP3    H260509   1.728   3.524   2.296 -0.8295 -0.7357  0.1976
13032TIP3   OH260510   4.701   1.673   4.327  0.3211 -0.2135  0.2478
13032TIP3    H160511   4.634   1.732   4.294  0.6366 -0.1887 -0.3587
13032TIP3    H260512   4.755   1.728   4.384 -0.5719 -0.3964  1.2811
13033TIP3   OH260513   1.350   6.593  14.111  0.3634  0.1463  0.2064
13033TIP3    H160514   1.263   6.554  14.118  0.7749 -0.7539  0.4988
13033TIP3    H260515   1.390   6.578  14.197  0.2445  1.9554  0.5875
13034TIP3   OH260516   0.976   4.621   5.032 -0.2119 -0.5239 -0.0605
13034TIP3    H160517   0.964   4.694   5.093 -1.2000 -0.7621  0.0481
13034TIP3    H260518   1.032   4.656   4.963 -0.5658  0.3029  0.0603
13035TIP3   OH260519   2.676   5.895   6.355 -0.3412 -0.0060 -0.5106
13035TIP3    H160520   2.680   5.806   6.320 -1.6915 -0.4114  0.3463
13035TIP3    H260521   2.765   5.928   6.347  0.6557 -2.1915  1.1220
13036TIP3   OH260522   0.491   5.437   3.358  0.2610  0.8330  0.1665
13036TIP3    H160523   0.505   5.375   3.430 -0.1262 -1.2008 -1.4656
13036TIP3    H260524   0.398   5.430   3.339  0.3007  1.6206 -0.3067
13037TIP3   OH260525   1.232   5.776   0.372 -0.2853 -0.1486  0.3779
13037TIP3    H160526   1.240   5.681   0.374 -1.5245 -0.2300  2.3635
13037TIP3    H260527   1.192   5.795   0.287  0.2849 -1.3496 -0.1702
13038TIP3   OH260528   5.709   5.668  13.791  0.0702 -0.1838  0.1262
13038TIP3    H160529   5.705   5.759  13.763  4.3001 -0.3121 -1.3951
13038TIP3    H260530   5.736   5.671  13.883 -0.4409  0.1251  0.2622
13039TIP3   OH260531   5.449   4.348  11.113 -0.2983 -0.1833 -0.0831
13039TIP3    H160532   5.367   4.300  11.109 -1.1359  1.2768 -0.6184
13039TIP3    H260533   5.446   4.393  11.197 -0.9572  1.4750 -0.9858
13040TIP3   OH260534   1.983   3.673  15.425  0.0723 -0.1400 -0.9132
13040TIP3    H160535   1.896   3.680  15.466  1.0577  2.5656  0.9003
13040TIP3    H260536   2.021   3.760  15.436  4.8582 -2.4244  2.6126
13041TIP3   OH260537   3.730   4.186  15.636 -0.2416 -0.2123  0.0636
13041TIP3    H160538   3.667   4.114  15.645  0.4951 -0.6640  1.7828
13041TIP3    H260539   3.689   4.260  15.681 -0.1052 -0.1198  0.0387
13042TIP3   OH260540   3.871   2.000  12.567  0.5430  0.0337 -0.9560
13042TIP3    H160541   3.931   1.934  12.603 -1.1378 -0.9933  0.0394
13042TIP3    H260542   3.840   1.961  12.485  1.6080  0.7965 -1.7400
13043TIP3   OH260543   1.463   2.874   1.126 -0.5612 -0.1956 -0.0894
13043TIP3    H160544   1.509   2.929   1.189 -1.3146  0.1769  0.1338
13043TIP3    H260545   1.522   2.870   1.050 -0.5172  0.9161 -0.1108
13044TIP3   OH260546   4.079   1.660   5.031  0.1809  0.1133 -0.6927
13044TIP3    H160547   4.154   1.705   4.992  0.1910  0.1018 -0.6862
13044TIP3    H260548   4.085   1.681   5.124 -1.4428  2.4407 -1.0794
13045TIP3   OH260549   6.491   0.635   3.790 -0.2915  0.7141  0.1816
13045TIP3    H160550   6.502   0.541   3.779 -0.7711  0.6229  0.4727
13045TIP3    H260551   6.499   0.649   3.884 -2.1865  0.7021  0.3556
13046TIP3   OH260552   0.781   2.318  15.214  0.7168 -0.3124 -0.2634
13046TIP3    H160553   0.860   2.267  15.235  0.9016 -0.6155 -1.6285
13046TIP3    H260554   0.735   2.326  15.297  1.5993 -1.1581  0.3220
13047TIP3   OH260555   5.919   4.912  14.749  0.0131  0.5336  0.1881
13047TIP3    H160556   5.974   4.835  14.754 -1.3417 -0.5372 -0.8248
13047TIP3    H260557   5.961   4.976  14.807  1.8140 -0.5289  0.0906
13048TIP3   OH260558   0.302   5.612  11.807 -0.0255 -0.0079 -0.4721
13048TIP3    H160559   0.281   5.706  11.809 -1.1128 -0.2152 -1.6821
13048TIP3    H260560   0.392   5.608  11.777  0.5835  0.7272  1.1829
13049TIP3   OH260561   1.793   4.724   5.635 -0.0453  0.1906  0.4947
13049TIP3    H160562   1.763   4.680   5.715  0.2044 -1.0060 -0.0648
13049TIP3    H260563   1.825   4.809   5.666 -0.0562 -0.2128  1.6597
13050TIP3   OH260564   5.391   4.120   3.190 -0.0862 -0.8198  0.3456
13050TIP3    H160565   5.477   4.107   3.230  0.5552  0.1939 -0.6810
13050TIP3    H260566   5.373   4.213   3.201 -0.1882 -0.6543 -1.1360
13051TIP3   OH260567   2.257   6.254  11.737 -1.0318 -0.2258 -0.0292
13051TIP3    H160568   2.344   6.295  11.736 -1.9581  1.9178  2.3096
13051TIP3    H260569   2.275   6.161  11.725  1.8436 -0.1495  3.0288
13052TIP3   OH260570   4.061   0.948  12.131  0.1717  0.3454 -0.1358
13052TIP3    H160571   3.978   0.989  12.107  0.2673  2.1252  2.4165
13052TIP3    H260572   4.125   0.988  12.073 -0.3866  0.6584 -0.5459
13053TIP3   OH260573   2.895   1.403  13.597 -0.6189 -0.2719  0.1941
13053TIP3    H160574   2.893   1.321  13.548  0.2939 -0.1642 -0.0370
13053TIP3    H260575   2.817   1.400  13.653 -1.8431 -0.2606 -1.4720
13054TIP3   OH260576   5.995   1.923   2.414 -0.4277  0.3214 -0.5897
13054TIP3    H160577   6.061   1.965   2.360 -2.5063  0.7620 -2.8430
13054TIP3    H260578   5.927   1.990   2.426 -0.7921 -0.3214  1.1884
13055TIP3   OH260579   6.526   4.292  14.025  0.0605 -0.4804  0.2635
13055TIP3    H160580   6.612   4.256  14.006  0.1192  0.2363 -0.8748
13055TIP3    H260581   6.466   4.218  14.017  0.2509 -0.4709 -1.4391
13056TIP3   OH260582   5.984   2.663   1.609  0.2760 -0.3058  0.3018
13056TIP3    H160583   6.051   2.666   1.678  1.4126 -1.6300 -0.7211
13056TIP3    H260584   6.015   2.596   1.548 -0.8364  0.7061 -1.4000
13057TIP3   OH260585   5.622   1.527   0.503 -0.1045 -0.1350 -0.5116
13057TIP3    H160586   5.551   1.484   0.550 -0.4777 -2.2454 -2.8737
13057TIP3    H260587   5.700   1.475   0.523  0.8126  2.0392  1.8933
13058TIP3   OH260588   3.187   2.612   6.145  0.0367  0.6004 -0.0538
13058TIP3    H160589   3.187   2.517   6.135 -0.9450  0.4484  1.3113
13058TIP3    H260590   3.137   2.643   6.069  2.2675  0.2018 -1.7485
13059TIP3   OH260591   3.722   4.518  16.371  0.1919 -1.1700  0.3110
13059TIP3    H160592   3.653   4.476  16.320 -1.6868 -0.2434  1.9781
13059TIP3    H260593   3.685   4.524  16.460  1.1902  2.1419  0.5632
13060TIP3   OH260594   5.436   1.438  10.772 -0.1015  0.1768  0.2402
13060TIP3    H160595   5.342   1.426  10.763 -0.0945  0.5920 -0.4091
13060TIP3    H260596   5.448   1.533  10.771  0.3648  0.1176 -0.1533
13061TIP3   OH260597   2.195   1.078  12.685 -0.3372 -0.6040  0.3959
13061TIP3    H160598   2.114   1.106  12.727  1.1180  0.4856  2.6251
13061TIP3    H260599   2.185   0.984  12.672 -0.5631 -1.1278  3.9586
13062TIP3   OH260600   1.225   5.248  15.541 -0.2227 -0.1954 -0.5245
13062TIP3    H160601   1.260   5.332  15.511  0.7412 -0.1042  0.7671
13062TIP3    H260602   1.232   5.190  15.466  1.5293  0.1874 -0.6722
13063TIP3   OH260603   5.733   1.811   0.577 -0.1720  0.7315  0.1565
13063TIP3    H160604   5.672   1.884   0.589 -0.6031  0.5080 -0.6586
13063TIP3    H260605   5.684   1.747   0.525  1.4819  1.4766 -2.4380
13064TIP3   OH260606   1.157   0.866  14.623 -0.7110 -0.1205  0.3291
13064TIP3    H160607   1.150   0.955  14.659 -0.6999 -0.3673  0.9391
13064TIP3    H260608   1.117   0.810  14.689  0.1649 -0.6886  0.3850
13065TIP3   OH260609   0.477   4.178   0.443 -0.1331  0.2868 -0.4080
13065TIP3    H160610   0.484   4.273   0.446 -1.1180  0.3653 -0.4598
13065TIP3    H260611   0.523   4.153   0.362 -0.9015  0.8200 -1.0175
13066TIP3   OH260612   0.055   6.214   5.364  0.1583 -0.8384 -0.4778
13066TIP3    H160613  -0.033   6.199   5.398  0.4049 -0.8997  0.1466
13066TIP3    H260614   0.105   6.243   5.440  0.3874  0.3562 -1.0760
13067TIP3   OH260615   2.177   2.911  14.575  0.2888  0.0517  0.2283
13067TIP3    H160616   2.170   2.865  14.658  1.3369 -1.7099 -0.6174
13067TIP3    H260617   2.118   2.986  14.583  0.6993  0.1469  2.6975
13068TIP3   OH260618   4.135   1.107   2.676  0.2240 -0.2486  0.5634
13068TIP3    H160619   4.195   1.164   2.724 -0.3967  0.5887  0.3610
13068TIP3    H260620   4.174   1.098   2.589 -0.1599  0.6505  0.2950
13069TIP3   OH260621   1.528   2.267   4.396 -0.1958 -0.1961 -0.2624
13069TIP3    H160622   1.454   2.254   4.456  0.0166 -0.5581 -0.0826
13069TIP3    H260623   1.597   2.306   4.450  0.1888 -1.0347 -0.1510
13070TIP3   OH260624   3.374   2.389   1.143  0.7128 -0.2843  0.2281
13070TIP3    H160625   3.385   2.455   1.074 -0.2067  0.2819  0.6149
13070TIP3    H260626   3.461   2.377   1.178  1.1210 -0.2546 -0.7433
13071TIP3   OH260627   0.765   4.348  11.946 -1.0879 -0.1852 -0.2061
13071TIP3    H160628   0.764   4.253  11.960 -0.3755 -0.3140 -0.9824
13071TIP3    H260629   0.706   4.362  11.872 -2.8279  0.2181  1.2198
13072TIP3   OH260630   0.248   2.707   5.262  0.2738  0.4613  0.9916
13072TIP3    H160631   0.162   2.672   5.286 -0.5980  1.2706 -0.8597
13072TIP3    H260632   0.235   2.802   5.257  1.0312  0.5111 -0.2669
13073TIP3   OH260633   2.757   5.228   2.653 -0.0232  0.7073 -0.4864
13073TIP3    H160634   2.782   5.272   2.733 -1.9757  1.6003 -0.3445
13073TIP3    H260635   2.783   5.137   2.667  1.9897  1.3449  0.1012
13074TIP3   OH260636   0.086   4.630  13.013  0.2822 -0.4569 -0.0702
13074TIP3    H160637   0.176   4.607  12.991  0.3715 -0.1375 -0.0255
13074TIP3    H260638   0.040   4.626  12.929  0.6408  0.8368 -0.3372
13075TIP3   OH260639   4.844   4.779   1.325 -0.3990 -0.2344 -0.3570
13075TIP3    H160640   4.908   4.849   1.309 -1.8977  1.1542 -0.3142
13075TIP3    H260641   4.817   4.750   1.238 -0.5866 -0.0341 -0.3632
13076TIP3   OH260642   5.515   3.364  12.042  0.1840 -0.4241  0.8685
13076TIP3    H160643   5.571   3.439  12.022 -1.8436  0.4774 -1.7554
13076TIP3    H260644   5.566   3.287  12.014 -0.1046  0.4170 -2.0670
13077TIP3   OH260645   4.136   6.639   1.204  0.0223 -0.0748  0.0855
13077TIP3    H160646   4.138   6.554   1.161 -0.5216 -0.0470  0.0022
13077TIP3    H260647   4.079   6.693   1.150  0.5464  0.4158  0.0105
13078TIP3   OH260648   1.254   5.388  16.542 -0.1655  0.1812 -0.3215
13078TIP3    H160649   1.210   5.331  16.479 -1.0648  0.5753 -0.0541
13078TIP3    H260650   1.200   5.467  16.545 -0.3968 -0.0243  1.2971
13079TIP3   OH260651   6.783   1.129   0.964  0.0149 -0.6093 -0.0855
13079TIP3    H160652   6.773   1.212   1.010  1.2041  0.5523 -1.9048
13079TIP3    H260653   6.745   1.064   1.024 -0.3500  1.1399  1.6149
13080TIP3   OH260654   4.752   4.081   0.697 -0.1698  0.1898 -0.3313
13080TIP3    H160655   4.715   4.118   0.617  0.3831  0.4193 -0.4843
13080TIP3    H260656   4.677   4.044   0.743 -0.3996 -0.5870 -1.2982
13081TIP3   OH260657   0.912   6.157   2.089  0.4195 -0.7212  0.0331
13081TIP3    H160658   0.883   6.228   2.146  1.9412 -0.3392  0.3617
13081TIP3    H260659   0.943   6.089   2.149  0.3172 -1.0618 -0.2988
13082TIP3   OH260660   3.465   6.618  16.904  0.2608  0.2670 -0.0037
13082TIP3    H160661   3.551   6.644  16.938  1.7567 -1.5864 -2.2040
13082TIP3    H260662   3.440   6.543  16.959 -0.1633  1.0728  0.9141
13083TIP3   OH260663   2.561   1.787  16.616  0.0996 -0.1027 -0.2165
13083TIP3    H160664   2.633   1.831  16.571  0.2283  0.8072  0.8598
13083TIP3    H260665   2.536   1.716  16.557  0.4170  0.9265 -1.6205
13084TIP3   OH260666   4.811   0.453   0.391  0.1913 -0.0636  0.4522
13084TIP3    H160667   4.904   0.474   0.405  0.3179  1.3624 -2.0919
13084TIP3    H260668   4.765   0.535   0.410  0.0587  0.9210 -3.5178
13085TIP3   OH260669   5.193   3.045  11.428  0.3343  0.3675  0.2597
13085TIP3    H160670   5.189   3.053  11.333  1.2218 -1.0814  0.0872
13085TIP3    H260671   5.119   3.097  11.460 -1.6747 -1.4181 -1.3447
13086TIP3   OH260672   1.522   4.142   2.932 -0.1368 -0.1151 -0.2870
13086TIP3    H160673   1.430   4.136   2.957  0.1392  0.6547  0.9385
13086TIP3    H260674   1.571   4.106   3.006  0.5920  0.2252 -0.5878
13087TIP3   OH260675   0.043   3.860  12.125 -0.2393 -0.4229 -0.4695
13087TIP3    H160676   0.003   3.947  12.133  0.3667  0.0331 -2.0929
13087TIP3    H260677   0.063   3.834  12.215 -0.3906  1.1417  0.0307
13088TIP3   OH260678   4.549   1.539  14.372 -0.7724 -0.6991 -0.2568
13088TIP3    H160679   4.594   1.606  14.423 -0.1935 -1.8557  0.8085
13088TIP3    H260680   4.457   1.547  14.398 -0.6261 -0.6517  0.2607
13089TIP3   OH260681   1.443   3.824  13.357 -0.1502  0.5737 -0.2684
13089TIP3    H160682   1.374   3.846  13.420 -0.5202  1.0941 -0.8488
13089TIP3    H260683   1.423   3.733  13.332  0.9445 -0.1851  1.5670
13090TIP3   OH260684   0.218   1.036  12.284 -0.7176 -0.6224 -0.2913
13090TIP3    H160685   0.162   1.013  12.359 -1.1355 -0.1027 -0.4423
13090TIP3    H260686   0.164   1.018  12.207 -0.8682  0.3574 -0.4251
13091TIP3   OH260687   4.151   5.489   5.361 -0.2759 -0.2171 -0.3534
13091TIP3    H160688   4.172   5.407   5.316 -0.5692 -0.7638  0.4891
13091TIP3    H260689   4.077   5.525   5.312  0.1520 -0.2193 -1.0079
13092TIP3   OH260690   6.455   1.065   1.574 -0.2121  0.7804 -0.4355
13092TIP3    H160691   6.399   1.134   1.607 -1.1363  0.5021 -1.3821
13092TIP3    H260692   6.419   1.044   1.488 -1.4432 -2.5170  0.7963
13093TIP3   OH260693   6.737   1.184  13.278  0.1714  0.0323  0.2639
13093TIP3    H160694   6.742   1.246  13.351 -2.8723  0.5672  0.0749
13093TIP3    H260695   6.703   1.103  13.317 -1.4995  0.3306 -0.5352
13094TIP3   OH260696   6.704   0.113  15.562  0.2742  0.1006 -0.2389
13094TIP3    H160697   6.763   0.184  15.588 -1.9339  1.7810  0.4153
13094TIP3    H260698   6.704   0.116  15.466  1.7726 -0.3771 -0.2566
13095TIP3   OH260699   4.331   4.293  12.147 -0.2664  0.1299  0.0145
13095TIP3    H160700   4.262   4.268  12.208 -0.3930 -1.3042 -0.6967
13095TIP3    H260701   4.298   4.264  12.062  0.2086  1.5015 -0.6479
13096TIP3   OH260702   5.852   0.188  13.078 -0.0927 -0.4145 -0.1524
13096TIP3    H160703   5.888   0.158  13.162  0.0707  1.3624  0.4416
13096TIP3    H260704   5.840   0.282  13.090 -0.5566 -0.2288 -1.9595
13097TIP3   OH260705   6.616   2.859   4.201 -0.2093 -0.0615 -0.0145
13097TIP3    H160706   6.606   2.814   4.285  0.5313 -1.4666 -0.6653
13097TIP3    H260707   6.542   2.827   4.148  0.4543 -0.7193 -0.5592
13098TIP3   OH260708   1.158   2.673   4.890  0.0327  0.3741  0.1009
13098TIP3    H160709   1.194   2.755   4.857  0.5772 -0.5226 -1.5632
13098TIP3    H260710   1.163   2.682   4.985  2.2694  1.3244 -0.0732
13099TIP3   OH260711   6.002   4.114   5.473 -0.2224  0.1318  0.0302
13099TIP3    H160712   6.042   4.028   5.486 -0.3706  0.1223  0.4133
13099TIP3    H260713   6.036   4.167   5.545  0.5515  0.6391 -0.6965
13100TIP3   OH260714   2.531   0.699  10.669  0.4116  0.2525 -0.1545
13100TIP3    H160715   2.572   0.638  10.609  2.6052  1.7719 -0.2600
13100TIP3    H260716   2.601   0.725  10.729 -0.1489  3.5620 -0.8581
13101TIP3   OH260717   3.263   1.299   6.018  0.2117  0.2217 -0.5840
13101TIP3    H160718   3.249   1.309   6.112 -0.5357  0.7655 -0.7466
13101TIP3    H260719   3.225   1.213   5.998 -0.3795  0.4669 -0.5292
13102TIP3   OH260720   6.723   0.214   0.546 -0.5508  0.2866  0.1682
13102TIP3    H160721   6.699   0.194   0.455 -0.1304 -4.5403  0.9908
13102TIP3    H260722   6.804   0.265   0.538 -1.5996  1.6929 -2.1613
13103TIP3   OH260723   4.601   6.626   0.420 -0.0569 -0.5835 -0.8524
13103TIP3    H160724   4.650   6.669   0.490 -1.0278 -0.8663  0.0146
13103TIP3    H260725   4.622   6.676   0.342 -0.3156  0.8142 -0.0536
13104TIP3   OH260726   5.749   3.267  15.011  0.4978 -0.5429 -0.4422
13104TIP3    H160727   5.678   3.318  14.973 -0.3834 -1.9543 -0.7156
13104TIP3    H260728   5.717   3.243  15.098  0.8181 -0.8409 -0.4054
13105TIP3   OH260729   4.458   1.703  15.443 -0.5050 -0.0574  0.0482
13105TIP3    H160730   4.432   1.649  15.517 -1.5308  0.1309 -0.1673
13105TIP3    H260731   4.471   1.790  15.481  0.3849 -0.2794  0.2580
13106TIP3   OH260732   5.523   4.476  11.981  0.6359 -0.2658 -0.4113
13106TIP3    H160733   5.451   4.436  11.933  0.0797 -0.5460  0.6205
13106TIP3    H260734   5.590   4.494  11.915 -0.1185 -0.6014 -1.2796
13107TIP3   OH260735   6.641   1.733  16.115  0.3702 -0.6181  0.3686
13107TIP3    H160736   6.614   1.642  16.105  0.3893 -0.4640 -1.3178
13107TIP3    H260737   6.636   1.750  16.209  1.6653 -2.7423  0.8420
13108TIP3   OH260738   2.679   2.865   1.926 -0.7021 -0.4706  0.3481
13108TIP3    H160739   2.710   2.947   1.888 -1.4482 -1.6008 -2.8800
13108TIP3    H260740   2.756   2.808   1.924 -0.6637 -0.4379  0.8498
13109TIP3   OH260741   2.976   6.541  11.695 -0.3516  0.0385  0.6546
13109TIP3    H160742   2.924   6.461  11.705 -0.1351 -0.2414 -0.3517
13109TIP3    H260743   3.039   6.519  11.626 -0.7147  1.2973 -0.0830
13110TIP3   OH260744   3.291   0.998  13.419  0.0046 -0.2206 -0.1062
13110TIP3    H160745   3.306   1.093  13.426  0.2443 -0.2901  0.3420
13110TIP3    H260746   3.378   0.960  13.426  0.0640 -0.4001 -1.7361
13111TIP3   OH260747   0.344   2.894   5.841  0.4029 -0.2060 -0.2057
13111TIP3    H160748   0.317   2.831   5.909 -0.0895 -0.0940 -0.2908
13111TIP3    H260749   0.413   2.945   5.882  0.5000 -0.5152  0.0194
13112TIP3   OH260750   1.601   1.749   4.352  0.1757 -0.5950 -0.7243
13112TIP3    H160751   1.669   1.773   4.289  0.2190  0.1081 -0.4091
13112TIP3    H260752   1.555   1.675   4.311  0.6235 -0.5599 -1.2865
13113TIP3   OH260753   6.286   1.423  13.888 -0.1354 -0.6240  0.5565
13113TIP3    H160754   6.327   1.427  13.802 -3.4139 -2.0946 -1.1992
13113TIP3    H260755   6.249   1.510  13.902  1.1950 -0.1114  0.9163
13114TIP3   OH260756   5.255   3.151  14.608  0.2004 -0.6279  0.1631
13114TIP3    H160757   5.305   3.205  14.668 -1.3452 -1.6719  2.4368
13114TIP3    H260758   5.186   3.112  14.661 -1.7090 -0.9652 -2.4309
13115TIP3   OH260759   6.574   1.753   5.581 -0.3582 -0.0284 -0.3604
13115TIP3    H160760   6.576   1.825   5.518  1.2605 -0.5416 -0.9382
13115TIP3    H260761   6.542   1.792   5.662  0.8842  1.4552 -0.5550
13116TIP3   OH260762   4.183   6.054   4.463  0.0332 -0.1783  0.1469
13116TIP3    H160763   4.101   6.006   4.450 -0.3811  0.7961 -0.8800
13116TIP3    H260764   4.223   6.058   4.377  1.0880 -0.4740  0.6073
13117TIP3   OH260765   0.567   3.951  13.190 -0.2342 -0.5166  0.0829
13117TIP3    H160766   0.472   3.940  13.189 -0.1508 -1.2777 -0.6613
13117TIP3    H260767   0.599   3.889  13.123  0.7399  0.0841 -0.0199
13118TIP3   OH260768   4.299   5.335  14.358 -0.0964 -0.1302 -0.1787
13118TIP3    H160769   4.380   5.385  14.347 -0.4948  0.7713  0.8067
13118TIP3    H260770   4.230   5.395  14.329 -0.7403  0.5979  2.6267
13119TIP3   OH260771   0.312   6.343  16.625 -0.1261  0.0027  0.2363
13119TIP3    H160772   0.388   6.347  16.567 -0.0112  0.8155  0.4295
13119TIP3    H260773   0.238   6.322  16.567  0.4298 -1.9871  0.2335
13120TIP3   OH260774   2.936   1.182   4.577 -0.2442  0.0036 -0.0476
13120TIP3    H160775   2.968   1.100   4.540 -0.3198 -0.2416  0.4178
13120TIP3    H260776   3.004   1.207   4.640 -0.9573 -0.5173  0.9416
13121TIP3   OH260777   6.258   1.469   3.954  0.1877  0.3433 -0.0846
13121TIP3    H160778   6.247   1.377   3.979  1.3430  0.4122  0.6876
13121TIP3    H260779   6.243   1.469   3.859 -0.2686 -0.5599 -0.0261
13122TIP3   OH260780   1.682   6.232   0.830  0.4114  0.0974  0.0138
13122TIP3    H160781   1.715   6.322   0.819 -1.5158  0.9073  0.6534
13122TIP3    H260782   1.729   6.182   0.764  2.3656  1.3342  0.3831
13123TIP3   OH260783   1.543   1.471   2.707 -0.7794  0.0346 -0.2481
13123TIP3    H160784   1.539   1.455   2.612  1.6016  0.7588 -0.4921
13123TIP3    H260785   1.579   1.559   2.715  1.1881 -0.8706  1.3544
13124TIP3   OH260786   5.886   3.989   1.639 -0.2154  0.2023  0.0393
13124TIP3    H160787   5.949   4.056   1.612  0.6218 -0.7181 -0.3023
13124TIP3    H260788   5.815   3.996   1.575  0.2797  0.1635 -0.5189
13125TIP3   OH260789   2.186   2.814   0.208 -0.3069  0.6412  0.3088
13125TIP3    H160790   2.266   2.801   0.157 -1.1425 -0.8286 -0.6771
13125TIP3    H260791   2.122   2.846   0.144 -1.4674 -1.5583  0.3248
13126TIP3   OH260792   5.896   3.790   3.924  0.2312  0.0634  0.5851
13126TIP3    H160793   5.833   3.855   3.954 -1.5335 -1.1016 -0.4866
13126TIP3    H260794   5.881   3.784   3.829  1.1328 -1.0795  0.4989
13127TIP3   OH260795   3.048   4.405  13.907 -0.5581  0.1945 -0.1792
13127TIP3    H160796   3.026   4.422  13.816  0.3069  0.9947 -0.2405
13127TIP3    H260797   3.111   4.332  13.904 -0.2969  0.4208 -0.2469
13128TIP3   OH260798   4.456   2.328   0.852  0.3647 -0.0576 -0.1973
13128TIP3    H160799   4.374   2.300   0.892 -0.3264  0.0293 -1.5519
13128TIP3    H260800   4.483   2.254   0.797  2.2456 -0.9116  1.7719
13129TIP3   OH260801   6.766   0.141  16.364 -0.5687 -0.6550  0.5587
13129TIP3    H160802   6.736   0.232  16.362 -1.5029 -0.9836 -0.5168
13129TIP3    H260803   6.861   0.148  16.370 -0.6887  0.3877  1.5410
13130TIP3   OH260804   5.222   6.288   1.937 -0.0782 -0.1771 -0.9305
13130TIP3    H160805   5.134   6.269   1.905  0.6701 -1.7947 -2.1108
13130TIP3    H260806   5.247   6.209   1.987  0.7402  0.2201 -0.6944
13131TIP3   OH260807   3.324   0.591   5.136 -0.1675  1.1890  0.2140
13131TIP3    H160808   3.369   0.671   5.107  4.0491 -1.6324 -1.4749
13131TIP3    H260809   3.354   0.578   5.226 -0.6587  1.3840  0.4043
13132TIP3   OH260810   6.469   3.784   4.206 -0.0442  0.3566 -0.2832
13132TIP3    H160811   6.478   3.778   4.301 -1.0951 -0.1362 -0.2125
13132TIP3    H260812   6.394   3.729   4.185  1.0034 -0.6372 -1.5512
13133TIP3   OH260813   5.995   1.385  13.829 -0.1576  0.0664 -0.3699
13133TIP3    H160814   6.061   1.411  13.893 -0.2328  1.3621 -0.7973
13133TIP3    H260815   5.914   1.427  13.859 -1.2238 -3.0123  1.1614
13134TIP3   OH260816   2.677   5.997  16.113  0.4268 -0.0288 -0.8492
13134TIP3    H160817   2.755   6.043  16.082  1.1492  0.4382  1.5053
13134TIP3    H260818   2.710   5.939  16.182 -1.3326  0.3161  0.3188
13135TIP3   OH260819   4.535   6.442  14.295  0.2392  1.3045  0.0728
13135TIP3    H160820   4.601   6.423  14.228 -0.5227  0.0456 -0.3163
13135TIP3    H260821   4.533   6.364  14.350  0.6483  2.2160  1.4087
13136TIP3   OH260822   0.358   2.181  16.836  0.0898  0.6664  0.5819
13136TIP3    H160823   0.270   2.216  16.821  0.1264  0.1590 -0.8390
13136TIP3    H260824   0.344   2.093  16.869  0.0574 -0.9332 -3.4197
13137TIP3   OH260825   4.029   4.557   4.945  0.1459  0.0035 -0.3959
13137TIP3    H160826   4.102   4.571   5.005 -0.7993 -1.5723  1.1765
13137TIP3    H260827   4.052   4.478   4.896 -0.1169 -0.0238 -0.4767
13138TIP3   OH260828   0.305   3.854   0.296 -0.0239  0.0896 -0.0253
13138TIP3    H160829   0.398   3.856   0.321 -0.2687  0.5139  0.8726
13138TIP3    H260830   0.287   3.762   0.277 -0.9253 -1.0670  5.5852
13139TIP3   OH260831   1.697   2.978   4.424  0.1340 -0.0645 -0.2984
13139TIP3    H160832   1.774   2.989   4.369 -0.4777  0.6246 -1.0252
13139TIP3    H260833   1.731   2.972   4.513  1.0079  0.3550 -0.6046
13140TIP3   OH260834   1.073   4.621   0.862 -0.3429  0.2885 -0.2128
13140TIP3    H160835   1.124   4.702   0.870 -0.2292  0.0236  2.4085
13140TIP3    H260836   1.136   4.555   0.835  0.4863  0.2156  1.8183
13141TIP3   OH260837   2.014   5.520   2.445  0.8367  0.1641  0.2710
13141TIP3    H160838   2.060   5.578   2.385  0.5346  0.5867  0.4453
13141TIP3    H260839   1.935   5.569   2.470 -0.9939 -1.4986 -1.9551
13142TIP3   OH260840   5.028   0.657  13.933  0.2281  0.6604  0.0609
13142TIP3    H160841   4.991   0.738  13.897  0.0123 -0.6579 -2.7600
13142TIP3    H260842   5.119   0.657  13.904  0.3938  0.1540  0.5674
13143TIP3   OH260843   2.529   5.474   1.204  0.3001  0.1931  0.6814
13143TIP3    H160844   2.434   5.463   1.207  0.1754  1.6804  2.9260
13143TIP3    H260845   2.543   5.555   1.155  0.3971  0.2549  0.8112
13144TIP3   OH260846   2.756   4.503  15.771  0.0289  0.4707  0.2811
13144TIP3    H160847   2.763   4.562  15.695  0.9408  2.3797  1.8199
13144TIP3    H260848   2.829   4.443  15.761  0.5013  1.0922 -0.0498
13145TIP3   OH260849   6.550   1.203   4.505  0.0030 -0.1273 -0.2123
13145TIP3    H160850   6.562   1.140   4.575 -0.1724 -1.3601 -1.2673
13145TIP3    H260851   6.637   1.214   4.466 -0.2841 -1.0947 -1.1639
13146TIP3   OH260852   6.385   3.749  15.449  0.7640 -0.2777 -0.1642
13146TIP3    H160853   6.342   3.696  15.516  1.0459 -0.4109 -0.0862
13146TIP3    H260854   6.476   3.757  15.479  0.3256  1.6930  0.7068
13147TIP3   OH260855   1.706   1.604   1.478 -0.4826 -0.8377 -0.4984
13147TIP3    H160856   1.781   1.572   1.428 -0.7164 -1.4476 -0.4654
13147TIP3    H260857   1.712   1.557   1.561 -0.5431 -0.4111 -0.2525
13148TIP3   OH260858   4.767   1.567  11.413 -0.2206  0.3609 -0.0001
13148TIP3    H160859   4.762   1.651  11.367  0.3137  0.1092 -0.5299
13148TIP3    H260860   4.684   1.560  11.460 -0.9764  0.4163 -1.3010
13149TIP3   OH260861   2.661   4.584   5.931  0.0829  0.1929 -0.4475
13149TIP3    H160862   2.691   4.496   5.909  1.3724  0.8843 -1.5712
13149TIP3    H260863   2.574   4.591   5.892 -0.6523 -1.0763  0.9172
13150TIP3   OH260864   3.961   3.198   4.740  0.6772  0.0830 -0.8225
13150TIP3    H160865   3.878   3.170   4.702 -0.3667 -0.1251  1.5278
13150TIP3    H260866   3.938   3.272   4.796  2.0242 -0.2037  0.1438
13151TIP3   OH260867   2.418   0.111  16.026 -0.3871 -0.1517  0.3505
13151TIP3    H160868   2.412   0.197  15.985  0.4973  0.3226  1.2076
13151TIP3    H260869   2.499   0.074  15.992 -0.1525 -0.1542  0.9071
13152TIP3   OH260870   5.863   3.214  14.610  0.0748  0.1647  0.3801
13152TIP3    H160871   5.902   3.261  14.684 -0.3494  2.3133 -0.7333
13152TIP3    H260872   5.898   3.257  14.533  0.6542 -2.1803 -0.7192
13153TIP3   OH260873   4.789   3.329   4.223 -0.1805  0.4929  0.1777
13153TIP3    H160874   4.767   3.374   4.141 -0.2511 -0.6266 -0.4279
13153TIP3    H260875   4.704   3.301   4.258 -0.0354 -0.3231 -0.1200
13154TIP3   OH260876   5.984   6.067   1.275  0.4466  0.4675  0.7581
13154TIP3    H160877   5.908   6.028   1.319 -1.1591  1.6564 -0.9222
13154TIP3    H260878   5.972   6.161   1.284  1.5502  0.6804  0.1286
13155TIP3   OH260879   5.067   5.964  15.168  0.9546  0.2743  0.6649
13155TIP3    H160880   5.097   5.876  15.145 -0.9915 -0.0052 -0.8814
13155TIP3    H260881   5.146   6.008  15.199  2.8081 -0.8017 -2.2521
13156TIP3   OH260882   4.202   3.780  13.977 -0.3841 -0.3249  0.2053
13156TIP3    H160883   4.131   3.834  14.012 -1.0458 -1.8650  1.2604
13156TIP3    H260884   4.159   3.702  13.942  0.7994 -1.3991  1.0971
13157TIP3   OH260885   1.454   6.655  13.713  0.4866  0.5631 -0.1354
13157TIP3    H160886   1.378   6.711  13.699  0.2913  0.8172  1.8137
13157TIP3    H260887   1.523   6.695  13.660 -0.1879  1.5048 -0.3206
13158TIP3   OH260888   4.076   2.387  15.606 -0.4274 -0.4001 -0.5912
13158TIP3    H160889   4.014   2.445  15.651 -0.3053  0.0522 -1.0025
13158TIP3    H260890   4.159   2.401  15.653 -0.7864 -1.5528  0.4332
13159TIP3   OH260891   1.136   5.890  12.313  0.1542  0.0781  0.2773
13159TIP3    H160892   1.126   5.981  12.341 -1.5798  0.8921 -2.7070
13159TIP3    H260893   1.186   5.896  12.231 -2.9392 -1.2720 -1.8127
13160TIP3   OH260894   1.387   1.497  15.449  0.3568  0.1956 -0.2496
13160TIP3    H160895   1.325   1.477  15.520  0.6489  0.9013  0.2039
13160TIP3    H260896   1.335   1.485  15.369 -0.5144  1.2213  0.1403
13161TIP3   OH260897   5.119   2.606   1.197  0.6033  0.0075  0.5659
13161TIP3    H160898   5.031   2.571   1.207  0.3946  0.2144 -0.5103
13161TIP3    H260899   5.160   2.592   1.283 -0.5137  0.0404  1.1184
13162TIP3   OH260900   4.239   2.913  13.716  0.5240 -0.1696  0.2341
13162TIP3    H160901   4.203   2.981  13.773  0.6719 -0.1341  0.2846
13162TIP3    H260902   4.217   2.943  13.628  0.9534  0.1546  0.2355
13163TIP3   OH260903   4.986   2.511  15.176  0.4787 -0.2296  0.4687
13163TIP3    H160904   4.926   2.524  15.250  1.2594  1.7154  0.7913
13163TIP3    H260905   5.058   2.461  15.214  0.8242  0.6638  1.0066
13164TIP3   OH260906   0.942   2.161   0.114 -0.1847  0.0325  0.1033
13164TIP3    H160907   1.027   2.206   0.110 -0.7058  0.9603 -0.8185
13164TIP3    H260908   0.964   2.068   0.116  0.8907  0.3037  1.1718
13165TIP3   OH260909   6.265   0.754  14.763 -0.3361  0.3176  0.3133
13165TIP3    H160910   6.273   0.659  14.771  0.3726  0.3774  0.3443
13165TIP3    H260911   6.355   0.785  14.759 -0.5661  1.0015  0.4381
13166TIP3   OH260912   3.009   5.774  16.955  1.2278  0.5016  0.6173
13166TIP3    H160913   3.044   5.766  17.044 -0.3118 -0.8990  1.1074
13166TIP3    H260914   2.929   5.824  16.965  0.5414 -0.4840  0.1656
13167TIP3   OH260915   5.465   5.794  13.590 -0.0864  0.1974 -0.1594
13167TIP3    H160916   5.558   5.795  13.568 -0.3600 -0.7152 -1.4331
13167TIP3    H260917   5.442   5.886  13.600  0.5248  0.5534 -1.7877
13168TIP3   OH260918   5.529   5.209   1.729 -0.3674 -0.1408 -0.4011
13168TIP3    H160919   5.440   5.173   1.722 -0.6365  0.4801 -0.1816
13168TIP3    H260920   5.524   5.295   1.688 -0.0013  0.1335  0.1274
13169TIP3   OH260921   5.337   2.305   5.323 -0.5569  0.1251  0.2530
13169TIP3    H160922   5.286   2.306   5.404  1.4170  2.1833  1.5214
13169TIP3    H260923   5.295   2.371   5.268 -1.6572 -1.0007 -0.3068
13170TIP3   OH260924   5.078   4.554   5.175 -0.0976 -0.0937  0.5808
13170TIP3    H160925   5.011   4.495   5.140  0.6017 -0.4038 -0.2623
13170TIP3    H260926   5.050   4.571   5.265 -0.1934 -1.8885  0.9135
13171TIP3   OH260927   0.320   1.132  13.309 -0.0535  0.2367 -0.1398
13171TIP3    H160928   0.349   1.088  13.388 -0.3300 -0.7595 -0.5848
13171TIP3    H260929   0.399   1.143  13.256 -0.1889 -0.8623 -0.5748
13172TIP3   OH260930   2.168   4.062   2.677 -0.2308 -0.3475 -0.1394
13172TIP3    H160931   2.198   4.005   2.606 -2.4439 -1.4164 -0.2558
13172TIP3    H260932   2.092   4.107   2.640 -0.5610  0.1179  1.1041
13173TIP3   OH260933   4.637   4.666  12.824  0.5539 -0.6687  0.5515
13173TIP3    H160934   4.568   4.700  12.767  0.7785 -0.5137  0.3661
13173TIP3    H260935   4.703   4.736  12.824  0.2929 -0.4216  1.4727
13174TIP3   OH260936   3.758   0.633   2.739 -0.1562 -0.1723 -0.7523
13174TIP3    H160937   3.799   0.668   2.660 -1.2120  1.1660 -0.7231
13174TIP3    H260938   3.664   0.634   2.721 -0.3740 -0.4350  0.2851
13175TIP3   OH260939   3.693   4.090   3.606  0.6763 -0.0006 -0.3447
13175TIP3    H160940   3.648   4.123   3.528  4.0705  1.0961 -1.9184
13175TIP3    H260941   3.715   4.000   3.584 -0.7944 -0.5904  0.4940
13176TIP3   OH260942   0.329   0.215  15.173 -0.0297 -0.0943 -0.5765
13176TIP3    H160943   0.391   0.246  15.240  0.0760  1.4921 -1.3700
13176TIP3    H260944   0.384   0.165  15.112  0.0776 -0.5732 -0.0903
13177TIP3   OH260945   3.502   1.303  16.758  0.2105 -0.5835  0.4738
13177TIP3    H160946   3.481   1.210  16.756  1.0989 -0.7952  0.7853
13177TIP3    H260947   3.585   1.310  16.710 -0.3429  0.1863 -0.3994
13178TIP3   OH260948   3.896   3.785  12.193 -0.5312 -0.4308 -0.1293
13178TIP3    H160949   3.812   3.831  12.198 -0.0786  0.3081  0.6557
13178TIP3    H260950   3.924   3.795  12.102 -0.6661  0.4340 -0.0740
13179TIP3   OH260951   2.085   2.142  15.725 -0.2564  0.1981 -0.5445
13179TIP3    H160952   2.160   2.134  15.783  0.4687  0.5045 -1.4278
13179TIP3    H260953   2.068   2.052  15.694  0.6532  0.3320 -1.4613
13180TIP3   OH260954   3.986   5.745  15.370  0.2444 -0.4720 -0.0044
13180TIP3    H160955   3.949   5.825  15.334 -0.6084  0.1327  2.1467
13180TIP3    H260956   3.998   5.763  15.463 -0.2389 -2.9181  0.5750
13181TIP3   OH260957   2.478   6.730  12.269 -0.1886  0.0228  0.2746
13181TIP3    H160958   2.527   6.812  12.261 -1.6774  0.6910 -2.5614
13181TIP3    H260959   2.518   6.671  12.205  0.0162 -1.0743  1.3765
13182TIP3   OH260960   5.108   6.452   2.452  0.0978  0.0175 -0.6818
13182TIP3    H160961   5.059   6.370   2.457  1.3923 -0.6889  1.4383
13182TIP3    H260962   5.196   6.426   2.425  0.3303  0.7830 -0.6828
13183TIP3   OH260963   4.517   2.246   4.254 -0.5757  0.1738  0.3262
13183TIP3    H160964   4.545   2.338   4.256  0.1285  0.0935 -3.2043
13183TIP3    H260965   4.599   2.197   4.253 -0.9398 -0.4260  0.1481
13184TIP3   OH260966   5.093   0.428   4.607 -0.1081  0.7746 -0.1543
13184TIP3    H160967   5.145   0.355   4.640  0.2032  0.6519 -0.8902
13184TIP3    H260968   5.115   0.432   4.514  0.6296  2.4628  0.0869
13185TIP3   OH260969   0.877   0.991  12.216 -0.4759  0.0534 -0.1602
13185TIP3    H160970   0.961   1.023  12.248 -0.5266 -1.0732  1.1404
13185TIP3    H260971   0.835   0.951  12.292 -0.9112 -2.0419 -1.4370
13186TIP3   OH260972   5.979   5.049  11.599  0.2945  0.1835  0.2018
13186TIP3    H160973   6.021   5.088  11.676  0.1448  1.7430 -0.4799
13186TIP3    H260974   5.897   5.013  11.632 -0.1219  1.4951  0.6705
13187TIP3   OH260975   0.918   5.497   5.147 -0.1345 -0.0113  0.1958
13187TIP3    H160976   0.951   5.411   5.175 -3.9654 -0.9065  2.3094
13187TIP3    H260977   0.848   5.476   5.085  0.3354  1.6856 -0.9281
13188TIP3   OH260978   5.688   0.148  16.341 -0.1696  0.2896  0.3161
13188TIP3    H160979   5.721   0.213  16.279  0.2374  0.3979  0.6462
13188TIP3    H260980   5.763   0.092  16.361 -0.3879  0.0396  0.4337
13189TIP3   OH260981   0.104   0.998  15.868 -0.0940  0.0202  0.5855
13189TIP3    H160982   0.140   0.934  15.807  0.4441 -0.1357  1.0694
13189TIP3    H260983   0.040   0.949  15.919  0.4544 -0.1775  1.0842
13190TIP3   OH260984   5.202   0.696   2.351 -0.2229  0.2458 -0.6303
13190TIP3    H160985   5.273   0.751   2.384  1.6839 -2.9363  0.7987
13190TIP3    H260986   5.227   0.675   2.261  1.8555 -2.6379  0.5485
13191TIP3   OH260987   1.767   0.766   5.967  0.3342 -0.3404 -0.1644
13191TIP3    H160988   1.834   0.721   6.019 -0.5404  0.0185  1.3040
13191TIP3    H260989   1.731   0.833   6.026 -2.5053 -1.6386 -0.3324
13192TIP3   OH260990   2.502   1.503  17.114 -0.6992  0.2402  0.3206
13192TIP3    H160991   2.494   1.551  17.032  0.3826  0.5977  0.4142
13192TIP3    H260992   2.595   1.508  17.136 -0.6030 -1.7688  0.4126
13193TIP3   OH260993   6.598   1.566   4.238 -0.5376 -0.3097 -0.1802
13193TIP3    H160994   6.550   1.482   4.235  1.7351 -1.6146 -1.5598
13193TIP3    H260995   6.677   1.550   4.187 -0.0888  2.7430 -0.5276
13194TIP3   OH260996   1.198   3.012   1.013  0.0752 -0.0438 -0.1903
13194TIP3    H160997   1.247   3.094   1.018  0.7185 -0.2307 -3.0148
13194TIP3    H260998   1.253   2.949   1.061  1.0301  0.4872 -0.5745
13195TIP3   OH260999   2.683   3.304   5.389  0.3653  0.7327 -0.1345
13195TIP3    H161000   2.714   3.215   5.407  0.6620  0.7705 -0.4368
13195TIP3    H261001   2.749   3.361   5.428  0.4552  0.8166 -0.4051
13196TIP3   OH261002   2.783   0.726   2.343  0.3255 -0.0259 -0.1539
13196TIP3    H161003   2.760   0.797   2.283 -0.4454  0.4006  0.6288
13196TIP3    H261004   2.795   0.649   2.286 -0.0019  0.4592 -0.8861
13197TIP3   OH261005   5.214   6.775  13.401  0.2451  0.5625 -0.5709
13197TIP3    H161006   5.123   6.757  13.427  0.7674 -0.9579  0.2464
13197TIP3    H261007   5.242   6.844  13.461 -0.5133  1.3886 -1.1461
13198TIP3   OH261008   4.434   1.931   5.913 -0.5297 -0.3237 -0.3901
13198TIP3    H161009   4.498   1.962   5.850 -0.7193  0.6051 -0.1310
13198TIP3    H261010   4.421   2.004   5.973  0.0364 -1.3792  1.0378
13199TIP3   OH261011   5.638   2.872   0.037  0.6773 -0.1713  0.1630
13199TIP3    H161012   5.581   2.828  -0.026 -0.4744 -0.5841  1.4625
13199TIP3    H261013   5.723   2.829   0.028  1.1471  1.1551 -2.5595
13200TIP3   OH261014   6.144   2.661  13.652 -0.5453 -0.3487  0.3174
13200TIP3    H161015   6.149   2.623  13.564 -0.7754 -1.5102  0.7997
13200TIP3    H261016   6.142   2.755  13.637 -0.3979 -0.5323 -0.9179
13201TIP3   OH261017   2.842   6.682  12.394 -0.1117  0.1764  0.6510
13201TIP3    H161018   2.851   6.741  12.319 -1.5695 -0.0360  0.2865
13201TIP3    H261019   2.892   6.604  12.369 -1.5300 -0.3576 -0.6277
13202TIP3   OH261020   0.011   3.388  16.210 -0.2446 -0.0509  0.6753
13202TIP3    H161021  -0.001   3.385  16.115  0.1733 -0.7378  0.6368
13202TIP3    H261022  -0.022   3.474  16.235 -1.1564 -0.2039  0.0263
13203TIP3   OH261023   1.549   3.373   2.573  0.1926 -1.0336  0.3082
13203TIP3    H161024   1.493   3.421   2.512  0.7891 -1.5589 -0.6695
13203TIP3    H261025   1.507   3.384   2.658 -1.2634 -1.2287 -0.3776
13204TIP3   OH261026   1.556   6.257   4.900  0.0638 -0.3342 -0.6106
13204TIP3    H161027   1.626   6.202   4.935 -1.5170 -2.0681 -0.0776
13204TIP3    H261028   1.515   6.296   4.977  0.3571  0.5652 -0.9087
13205TIP3   OH261029   5.205   3.918   5.170  0.5036 -0.4366  0.1525
13205TIP3    H161030   5.174   3.863   5.098  2.0469 -0.8713 -0.1785
13205TIP3    H261031   5.128   3.929   5.226 -0.6363 -0.3447 -1.3979
13206TIP3   OH261032   3.445   0.106   2.727 -0.0013 -0.6379 -0.4772
13206TIP3    H161033   3.450   0.053   2.806  1.0174  2.4302  1.5988
13206TIP3    H261034   3.506   0.064   2.666  1.7843 -1.1194  1.5965
13207TIP3   OH261035   2.417   0.285  14.986 -0.2644 -0.2381  0.2696
13207TIP3    H161036   2.505   0.298  15.021  0.1325 -0.1944 -0.7048
13207TIP3    H261037   2.382   0.373  14.973 -0.6940 -0.2650  1.2459
13208TIP3   OH261038   6.128   3.897  15.538  0.3502 -0.8711 -0.1392
13208TIP3    H161039   6.202   3.877  15.481 -1.1402 -0.9466 -2.0991
13208TIP3    H261040   6.062   3.934  15.480 -0.8244  0.0728  1.7306
13209TIP3   OH261041   4.241   0.420  11.307  0.7096 -0.1486 -0.0510
13209TIP3    H161042   4.272   0.380  11.226  1.2237  0.5718 -0.2192
13209TIP3    H261043   4.175   0.359  11.341  1.5840 -1.1852 -0.2199
13210TIP3   OH261044   5.234   1.990   5.657 -0.5088  1.0359  0.2325
13210TIP3    H161045   5.208   1.994   5.565 -0.7534  1.5268  0.3224
13210TIP3    H261046   5.330   1.993   5.654 -0.3947 -1.4932 -0.1314
13211TIP3   OH261047   0.768   0.623   1.851  0.5608  0.3521  0.1360
13211TIP3    H161048   0.861   0.642   1.841  0.6101  0.2580  0.4140
13211TIP3    H261049   0.729   0.648   1.767  1.3424 -2.5800 -1.1695
13212TIP3   OH261050   4.416   5.169  15.925  0.5818  0.5185  0.5113
13212TIP3    H161051   4.362   5.090  15.935  1.5747 -0.3053 -0.4661
13212TIP3    H261052   4.371   5.221  15.859  0.9189 -0.1173 -0.2239
13213TIP3   OH261053   5.330   5.916  12.667  0.2977 -0.3011 -0.0652
13213TIP3    H161054   5.420   5.938  12.643  0.3009  0.3625  0.5375
13213TIP3    H261055   5.338   5.838  12.721  0.5898  0.2047  0.6363
13214TIP3   OH261056   2.305   2.470  11.663 -0.0238  0.1639  0.4233
13214TIP3    H161057   2.372   2.427  11.610  0.1286 -0.6822  1.2689
13214TIP3    H261058   2.281   2.404  11.729 -1.7550  0.4194  0.0765
13215TIP3   OH261059   2.434   6.109  16.959  0.5227  0.2031 -0.1671
13215TIP3    H161060   2.341   6.089  16.957  1.0550 -2.3729  0.0546
13215TIP3    H261061   2.458   6.120  16.867  0.2022 -0.0120 -0.2754
13216TIP3   OH261062   0.139   5.428   5.591  0.1062 -0.1178  0.1624
13216TIP3    H161063   0.135   5.380   5.674 -2.1413 -0.1283  0.0792
13216TIP3    H261064   0.053   5.416   5.552  0.4989  1.5054 -1.2786
13217TIP3   OH261065   4.326   1.816   2.473  0.0085 -0.0493 -0.1715
13217TIP3    H161066   4.413   1.788   2.500 -0.0986  1.4006  1.7216
13217TIP3    H261067   4.266   1.765   2.527 -0.2195  2.0290  1.6137
13218TIP3   OH261068   2.125   3.353  11.608 -0.0939 -0.1465 -0.2964
13218TIP3    H161069   2.111   3.258  11.605 -0.4414 -0.0730 -2.0744
13218TIP3    H261070   2.047   3.387  11.652 -0.0841 -0.6646  0.1313
13219TIP3   OH261071   0.677   3.328   0.864 -0.0390  0.5106 -0.4089
13219TIP3    H161072   0.630   3.245   0.868 -0.7230  0.7338 -2.6857
13219TIP3    H261073   0.765   3.307   0.896  0.0273 -1.2923 -1.6712
13220TIP3   OH261074   0.798   2.603  11.605 -0.1872  0.3592 -0.1274
13220TIP3    H161075   0.792   2.509  11.587 -0.7110  0.3204  0.2367
13220TIP3    H261076   0.753   2.645  11.532  2.1871  0.4601 -1.5942
13221TIP3   OH261077   2.227   3.501   3.592  0.7407 -0.5146 -0.2027
13221TIP3    H161078   2.249   3.451   3.671  1.4109  1.6762  1.0601
13221TIP3    H261079   2.312   3.527   3.556  0.4347 -1.6632 -1.7529
13222TIP3   OH261080   4.411   6.414   4.832 -0.3494 -0.8458  0.7625
13222TIP3    H161081   4.420   6.506   4.806 -0.0971 -0.6194  1.6372
13222TIP3    H261082   4.416   6.416   4.928 -2.3198 -1.5462  0.8917
13223TIP3   OH261083   2.144   6.346   2.628 -0.0842 -0.2353 -0.5177
13223TIP3    H161084   2.099   6.408   2.685 -0.6627 -0.7733 -0.3878
13223TIP3    H261085   2.114   6.260   2.658  0.5723 -0.5710 -0.8170
13224TIP3   OH261086   6.584   5.365  14.237 -0.2150  0.1720  0.4616
13224TIP3    H161087   6.529   5.384  14.161  0.4678  1.2285  0.2255
13224TIP3    H261088   6.648   5.436  14.239  0.9075 -0.8351  0.9579
13225TIP3   OH261089   4.603   0.654  12.538 -0.0300 -0.3194 -0.4548
13225TIP3    H161090   4.635   0.694  12.457  0.6829 -0.7653 -0.3912
13225TIP3    H261091   4.631   0.714  12.607 -0.2750 -0.1598 -0.4869
13226TIP3   OH261092   2.413   2.571   0.598 -0.8354  0.0099 -0.6979
13226TIP3    H161093   2.466   2.492   0.603  0.4867  0.9729  1.4719
13226TIP3    H261094   2.379   2.572   0.509  0.4381 -2.1414 -1.2434
13227TIP3   OH261095   0.891   6.493   3.766  0.1662  0.6106  0.6010
13227TIP3    H161096   0.852   6.549   3.699  1.2440  0.9605  0.2598
13227TIP3    H261097   0.982   6.522   3.772  0.1383  0.4580  2.0845
13228TIP3   OH261098   6.289   0.178  16.439  0.4707 -0.1087 -0.3143
13228TIP3    H161099   6.220   0.230  16.398 -1.0874  0.3536  2.7632
13228TIP3    H261100   6.329   0.238  16.503  1.5076 -1.3818  0.2394
13229TIP3   OH261101   0.322   2.094   3.877  0.5613  0.5094 -0.0815
13229TIP3    H161102   0.372   2.086   3.795  1.0781 -0.6356  0.3238
13229TIP3    H261103   0.247   2.034   3.864  0.8426  0.0463  0.4176
13230TIP3   OH261104   6.306   5.363   4.595 -0.2345  0.0890  0.9483
13230TIP3    H161105   6.284   5.455   4.585 -1.0755 -0.1640  0.3936
13230TIP3    H261106   6.240   5.317   4.544  0.1197 -0.8277  1.3030
13231TIP3   OH261107   4.084   4.601   3.471  0.1424 -0.0418 -0.1995
13231TIP3    H161108   4.040   4.527   3.428 -0.1807  0.3573 -0.5582
13231TIP3    H261109   4.045   4.679   3.431  0.4565  0.3252  0.2042
13232TIP3   OH261110   1.846   4.392   4.772 -0.1056  0.5142 -0.0429
13232TIP3    H161111   1.766   4.365   4.726 -0.4774  0.7548  0.4542
13232TIP3    H261112   1.907   4.415   4.702 -0.9722  1.7603 -0.4128
13233TIP3   OH261113   0.508   4.575  10.529 -0.2577  0.0960  0.0266
13233TIP3    H161114   0.442   4.584  10.461 -0.9372  0.3435  0.7082
13233TIP3    H261115   0.575   4.639  10.506  0.5369 -1.2418 -1.5444
13234TIP3   OH261116   6.366   5.823   5.672  0.9486  0.8129  0.4202
13234TIP3    H161117   6.377   5.918   5.658  0.4974  0.8373  0.2147
13234TIP3    H261118   6.454   5.791   5.685  0.9438  1.5564  2.3946
13235TIP3   OH261119   0.340   6.279  15.298 -0.2953 -0.7860 -0.5539
13235TIP3    H161120   0.376   6.294  15.386 -0.0524 -0.0928 -0.7652
13235TIP3    H261121   0.254   6.242  15.313 -0.6763  0.3072 -0.0029
13236TIP3   OH261122   4.268   0.520  13.557 -0.2834  0.6666 -0.4426
13236TIP3    H161123   4.258   0.536  13.650 -1.3134  1.1420 -0.6310
13236TIP3    H261124   4.353   0.475  13.549 -0.4995  0.0382  0.7781
13237TIP3   OH261125   1.605   2.447   5.338  0.3154  0.1390 -0.0584
13237TIP3    H161126   1.545   2.520   5.327 -0.4507 -0.3194  1.0464
13237TIP3    H261127   1.570   2.377   5.283 -0.0301 -0.0412  0.3860
13238TIP3   OH261128   4.732   0.649  13.682 -0.3196  0.0854 -0.5735
13238TIP3    H161129   4.786   0.715  13.640  0.7766  1.6762  3.0647
13238TIP3    H261130   4.643   0.684  13.677 -0.2799 -0.0136 -2.0016
13239TIP3   OH261131   0.275   5.171   6.711  0.0342  0.4653  0.3162
13239TIP3    H161132   0.331   5.151   6.636 -0.2683 -1.7272  0.6240
13239TIP3    H261133   0.192   5.128   6.690 -0.0876 -0.0700  1.8537
13240TIP3   OH261134   6.360   6.370   4.670 -0.0359  0.5588  0.4604
13240TIP3    H161135   6.418   6.394   4.742 -0.5144 -0.7731  1.3089
13240TIP3    H261136   6.275   6.355   4.711 -0.3802  0.0455 -0.4084
13241TIP3   OH261137   2.125   1.776   2.882 -0.2926  0.0417  0.1770
13241TIP3    H161138   2.059   1.742   2.821  0.6100  0.0633 -0.8343
13241TIP3    H261139   2.120   1.871   2.873 -2.6466  0.2250  2.8255
13242TIP3   OH261140   2.760   0.672  16.332  0.0528  0.0652  0.0897
13242TIP3    H161141   2.717   0.709  16.409  2.0829 -0.3625  1.4892
13242TIP3    H261142   2.776   0.747  16.275 -1.3127  0.4165  0.1543
13243TIP3   OH261143   5.038   5.554  11.336 -0.1533 -0.3105  0.1524
13243TIP3    H161144   4.944   5.575  11.337 -0.4514 -1.5110 -1.1531
13243TIP3    H261145   5.051   5.502  11.415 -0.4617  0.3915  0.6669
13244TIP3   OH261146   1.823   4.588  12.569 -0.9096 -0.0390 -0.2292
13244TIP3    H161147   1.759   4.523  12.599 -0.6875  0.8190  2.2248
13244TIP3    H261148   1.907   4.557  12.604 -0.3776  0.1657 -1.3083
13245TIP3   OH261149   3.606   3.884   5.285  0.5750  0.0598 -0.1227
13245TIP3    H161150   3.622   3.794   5.255  2.5125  0.5460 -0.6654
13245TIP3    H261151   3.623   3.938   5.208 -1.3612  0.8546 -0.0126
13246TIP3   OH261152   6.296   0.583  17.211 -0.8865  0.2644  0.0205
13246TIP3    H161153   6.362   0.642  17.247  0.5919 -0.3519 -1.6366
13246TIP3    H261154   6.275   0.525  17.284  0.8334  0.1005  0.4087
13247TIP3   OH261155   5.223   2.326  15.096  0.4581  0.1890  0.0786
13247TIP3    H161156   5.246   2.409  15.054 -1.1854 -0.6091 -2.5543
13247TIP3    H261157   5.296   2.267  15.076  0.0181  0.0256 -1.1225
13248TIP3   OH261158   2.137   4.878   2.939 -0.1517 -0.0631 -0.5474
13248TIP3    H161159   2.081   4.952   2.916  0.5611  0.5988 -0.1628
13248TIP3    H261160   2.213   4.887   2.882 -0.8015 -1.4443 -1.6767
13249TIP3   OH261161   6.013   6.253  16.754 -0.6212 -0.0089  0.3322
13249TIP3    H161162   6.019   6.321  16.686 -2.4036  0.3193  0.4708
13249TIP3    H261163   5.954   6.187  16.716 -1.9747  0.3802  1.7029
13250TIP3   OH261164   1.610   2.859  13.526  0.0247  0.2232 -0.1066
13250TIP3    H161165   1.662   2.896  13.455 -1.0710  1.7392 -0.1510
13250TIP3    H261166   1.589   2.934  13.582  0.7150 -0.9166  1.7122
13251TIP3   OH261167   3.637   5.160  12.710 -0.1049  0.7075 -0.1247
13251TIP3    H161168   3.731   5.142  12.708 -0.2714 -0.3637  1.1497
13251TIP3    H261169   3.629   5.251  12.681  1.3500  0.9228  0.1234
13252TIP3   OH261170   2.266   5.639  11.070  0.0706  0.2321  0.1462
13252TIP3    H161171   2.172   5.652  11.055 -0.1241  0.1327  1.2550
13252TIP3    H261172   2.308   5.678  10.993 -0.8543  0.7459 -0.1077
13253TIP3   OH261173   4.793   1.061  15.419 -0.1806  0.0835 -0.0710
13253TIP3    H161174   4.870   1.018  15.382  0.8254  1.5566  0.2760
13253TIP3    H261175   4.739   1.082  15.344  1.0911  1.5969 -0.5855
13254TIP3   OH261176   2.458   3.025  15.472  0.1207 -0.0011 -0.2266
13254TIP3    H161177   2.477   3.061  15.558 -0.1002  1.9248 -0.9444
13254TIP3    H261178   2.503   2.941  15.470  1.6188  0.7402  1.1266
13255TIP3   OH261179   2.501   5.522   5.211  0.3201  0.1301 -0.1295
13255TIP3    H161180   2.461   5.606   5.232 -1.0738 -0.6095  0.2334
13255TIP3    H261181   2.547   5.537   5.128 -0.8783  0.9404 -0.6585
13256TIP3   OH261182   0.369   5.137   1.560 -0.2284 -0.6659 -0.3990
13256TIP3    H161183   0.434   5.081   1.602 -1.0665 -0.5023  1.1680
13256TIP3    H261184   0.336   5.193   1.631 -1.0469  0.2258 -1.4631
13257TIP3   OH261185   1.768   5.794  16.443  0.6742  0.1525 -0.2039
13257TIP3    H161186   1.827   5.815  16.371 -0.5358  0.1275 -1.2177
13257TIP3    H261187   1.740   5.704  16.425  0.9865 -0.1417  0.7424
13258TIP3   OH261188   3.316   0.670   4.390 -0.2232 -0.1415  0.0834
13258TIP3    H161189   3.317   0.642   4.481  0.9957  0.9329  0.4228
13258TIP3    H261190   3.409   0.673   4.365 -0.4042  1.6527 -0.5131
13259TIP3   OH261191   2.944   2.166   5.537 -0.3846  0.1144  0.3657
13259TIP3    H161192   3.024   2.128   5.501  0.2440  0.7908  1.0310
13259TIP3    H261193   2.876   2.142   5.474  0.3120 -0.5834 -0.1361
13260TIP3   OH261194   4.517   5.755  16.318  0.1677  0.0923 -0.4645
13260TIP3    H161195   4.542   5.830  16.372  0.6074 -0.3122 -0.0966
13260TIP3    H261196   4.592   5.696  16.323 -2.0180 -2.5965  3.2740
13261TIP3   OH261197   5.567   2.047   0.524  0.3730  0.1334  0.5812
13261TIP3    H161198   5.643   2.086   0.480 -0.6070  1.8939  0.4107
13261TIP3    H261199   5.523   1.996   0.456  0.4259  0.5539  0.2327
13262TIP3   OH261200   0.703   5.703  17.044  0.0188 -0.5425  0.0242
13262TIP3    H161201   0.794   5.673  17.054  0.1029 -0.1038  0.5872
13262TIP3    H261202   0.650   5.627  17.071  0.2325 -0.0144  2.0572
13263TIP3   OH261203   5.959   1.282  14.831 -0.4749 -0.4888 -0.2957
13263TIP3    H161204   6.054   1.274  14.830 -0.5162 -0.9945 -0.2921
13263TIP3    H261205   5.934   1.259  14.921 -0.4674  1.2493  0.1555
13264TIP3   OH261206   0.090   1.270  13.665  0.0391 -0.4769 -0.4653
13264TIP3    H161207   0.013   1.326  13.662  1.1486  1.0696 -0.9161
13264TIP3    H261208   0.151   1.316  13.724  1.4299 -0.5768 -1.7845
13265TIP3   OH261209   6.363   3.891  11.456 -0.7244 -0.3737 -0.3941
13265TIP3    H161210   6.453   3.859  11.464 -0.5410 -0.0457 -1.0953
13265TIP3    H261211   6.369   3.984  11.474 -0.7302 -0.1296 -1.6150
13266TIP3   OH261212   3.648   1.577  14.236  0.0703 -0.3954  0.0215
13266TIP3    H161213   3.569   1.592  14.185  1.0348  1.8571 -0.8961
13266TIP3    H261214   3.627   1.503  14.292 -2.2757 -0.5745 -1.0314
13267TIP3   OH261215   5.824   3.602  14.716 -0.1036  0.0898  0.0930
13267TIP3    H161216   5.868   3.517  14.707  0.3724  0.3512 -0.1038
13267TIP3    H261217   5.840   3.628  14.807  0.3412  0.2818 -0.0358
13268TIP3   OH261218   0.872   4.455   4.477 -0.4828  0.6736 -0.1027
13268TIP3    H161219   0.905   4.501   4.554  1.4540  0.4231 -0.7623
13268TIP3    H261220   0.778   4.447   4.493 -0.3669  2.0760  1.4664
13269TIP3   OH261221   3.189   4.162  11.729 -0.3698  0.5115 -1.0244
13269TIP3    H161222   3.155   4.079  11.762  1.9044  0.3120  0.9396
13269TIP3    H261223   3.247   4.137  11.657 -1.5107  0.5908 -1.9844
13270TIP3   OH261224   2.632   5.847  13.691 -0.5998 -0.5520 -0.8386
13270TIP3    H161225   2.647   5.785  13.763  0.7067  0.4873 -0.2114
13270TIP3    H261226   2.697   5.915  13.704 -1.5771  0.6026 -1.9428
13271TIP3   OH261227   0.415   1.431  11.289 -0.6333  0.1885 -0.2616
13271TIP3    H161228   0.322   1.450  11.304 -0.6404  0.2068 -0.3293
13271TIP3    H261229   0.459   1.514  11.308 -0.6585  0.2570 -0.4996
13272TIP3   OH261230   4.702   0.706   0.775  0.0238  0.4782 -0.0807
13272TIP3    H161231   4.617   0.740   0.749 -1.1349 -1.6946  0.8098
13272TIP3    H261232   4.735   0.770   0.838 -1.9271  0.2280  1.2413
13273TIP3   OH261233   5.259   2.080   3.240 -0.2389  0.2112 -0.0627
13273TIP3    H161234   5.301   2.028   3.308  0.6236  0.2403 -0.5753
13273TIP3    H261235   5.301   2.053   3.159 -0.0704  1.4151 -0.3870
13274TIP3   OH261236   0.324   4.450  10.971  0.1108 -0.0902 -0.3017
13274TIP3    H161237   0.394   4.457  10.905 -0.8392 -1.4961 -1.4880
13274TIP3    H261238   0.305   4.357  10.976 -1.8949  0.2983 -0.2140
13275TIP3   OH261239   2.406   4.234   2.752 -0.1687  0.5256 -0.4022
13275TIP3    H161240   2.385   4.226   2.845  1.3191  0.5755 -0.0558
13275TIP3    H261241   2.325   4.208   2.707 -0.6450 -0.2665  0.8926
13276TIP3   OH261242   1.479   5.908   0.670  0.8100  0.8832 -0.1309
13276TIP3    H161243   1.387   5.936   0.668  0.8077  0.9372  0.7171
13276TIP3    H261244   1.518   5.948   0.592 -0.0292  0.3672 -0.8212
13277TIP3   OH261245   5.243   0.559   3.906  0.3074 -0.2139  0.4298
13277TIP3    H161246   5.254   0.475   3.861  1.6232 -1.3952  2.8591
13277TIP3    H261247   5.255   0.625   3.837  2.0836 -1.9607 -0.9920
13278TIP3   OH261248   2.440   2.674  12.507  0.2312  0.1270 -0.0273
13278TIP3    H161249   2.427   2.737  12.437 -0.8276  1.4428  1.3134
13278TIP3    H261250   2.515   2.708  12.556 -1.1811  1.1014  1.4902
13279TIP3   OH261251   2.267   3.008  15.137 -0.3103  0.3151  0.1316
13279TIP3    H161252   2.317   2.928  15.153  0.7677  0.6998 -1.2665
13279TIP3    H261253   2.254   3.046  15.225 -0.3220 -1.0747  0.7410
13280TIP3   OH261254   5.751   3.559  12.189 -0.3485 -0.1288  0.3257
13280TIP3    H161255   5.768   3.653  12.184  3.0256 -0.7103 -0.2647
13280TIP3    H261256   5.721   3.535  12.102 -1.2710  0.3853  0.4933
13281TIP3   OH261257   3.418   0.378   0.477  0.4432  0.1652 -0.6611
13281TIP3    H161258   3.427   0.426   0.395 -1.4310 -1.8017 -2.0555
13281TIP3    H261259   3.418   0.286   0.452  1.3504 -0.5264  1.7173
13282TIP3   OH261260   3.219   0.480   2.392 -0.1037  0.4509 -0.0373
13282TIP3    H161261   3.276   0.531   2.334  2.0070 -0.8324  0.8552
13282TIP3    H261262   3.176   0.545   2.448 -0.8586  1.5650 -1.8730
13283TIP3   OH261263   4.573   1.042   6.124  0.3792 -0.2980 -0.0235
13283TIP3    H161264   4.532   1.127   6.109  1.4520  0.1334 -0.5957
13283TIP3    H261265   4.667   1.062   6.128  0.5290 -1.2324  1.4308
13284TIP3   OH261266   6.667   2.234  11.363  0.2483  0.2290  0.3543
13284TIP3    H161267   6.674   2.141  11.386  1.3803  0.0403 -0.7144
13284TIP3    H261268   6.609   2.235  11.287 -0.9135  0.5444  1.2323
13285TIP3   OH261269   3.040   2.816  16.764 -0.0470 -0.0038 -0.1757
13285TIP3    H161270   2.952   2.787  16.741 -0.0794  1.1100 -1.4901
13285TIP3    H261271   3.097   2.746  16.734 -0.5233 -1.1047  1.3990
13286TIP3   OH261272   4.288   2.034  11.163 -0.1283  0.2760 -0.1145
13286TIP3    H161273   4.365   1.977  11.162 -0.7416 -0.5914  0.7826
13286TIP3    H261274   4.297   2.089  11.085 -0.6415 -2.5738 -2.2536
13287TIP3   OH261275   6.576   4.849  11.826  0.2330 -0.4117 -0.3007
13287TIP3    H161276   6.534   4.913  11.770 -0.7448 -0.1866  0.6617
13287TIP3    H261277   6.663   4.885  11.843  0.2018 -0.0378 -0.9155
13288TIP3   OH261278   4.677   3.292   0.652  0.4970  0.0120  0.0872
13288TIP3    H161279   4.584   3.302   0.673  0.7778 -0.2921  1.5403
13288TIP3    H261280   4.692   3.353   0.579 -0.7028  0.5080  0.2441
13289TIP3   OH261281   2.922   4.693   4.639 -0.2856 -0.2025  0.0374
13289TIP3    H161282   2.994   4.675   4.579  0.1037  0.8685  0.1741
13289TIP3    H261283   2.942   4.640   4.717  0.5002  0.2891  0.1775
13290TIP3   OH261284   3.843   5.976   0.459  0.5898  0.2737 -0.0880
13290TIP3    H161285   3.821   6.068   0.469  1.4069  0.4830 -0.2569
13290TIP3    H261286   3.840   5.940   0.548  0.4049  0.4822 -0.0097
13291TIP3   OH261287   0.212   2.586   1.827 -0.0423  0.4838  0.6022
13291TIP3    H161288   0.221   2.547   1.740  0.5053  0.3163  0.7365
13291TIP3    H261289   0.299   2.578   1.866 -0.5013 -0.1760  1.4787
13292TIP3   OH261290   1.943   1.088  11.330  0.7736  0.1222 -0.1111
13292TIP3    H161291   2.019   1.132  11.292  2.5836 -1.2392  1.8140
13292TIP3    H261292   1.932   1.128  11.416  0.4001 -0.8689  0.3146
13293TIP3   OH261293   4.144   3.207  12.371 -0.2698 -0.3701 -0.1886
13293TIP3    H161294   4.221   3.197  12.427  0.7008  1.8615 -1.0421
13293TIP3    H261295   4.069   3.192  12.429  0.7645 -0.4987  1.1300
13294TIP3   OH261296   0.144   5.913  11.154 -0.1904 -0.0962  0.0711
13294TIP3    H161297   0.211   5.898  11.087  0.4302 -1.3963  0.9501
13294TIP3    H261298   0.105   5.826  11.168 -1.4426  0.4790  0.2209
13295TIP3   OH261299   0.834   2.237  14.012  0.1327 -0.1493 -0.0809
13295TIP3    H161300   0.791   2.167  14.061  1.2621 -1.4632 -0.9362
13295TIP3    H261301   0.809   2.317  14.058 -1.1999 -1.1018  0.8964
13296TIP3   OH261302   4.818   1.080  14.168 -0.1148 -0.2520  0.8055
13296TIP3    H161303   4.901   1.049  14.130 -0.9246 -1.5967  0.0710
13296TIP3    H261304   4.821   1.175  14.159  0.5295 -0.4221 -0.9542
13297TIP3   OH261305   3.476   6.571   3.401  0.1048 -0.0188  0.2407
13297TIP3    H161306   3.503   6.660   3.379 -0.0509 -0.1503 -0.4960
13297TIP3    H261307   3.405   6.583   3.465 -0.1668  0.3982 -0.1321
13298TIP3   OH261308   4.962   3.763  11.324  0.1704 -0.0373 -0.1670
13298TIP3    H161309   5.022   3.821  11.370  0.0063  0.0633 -0.0792
13298TIP3    H261310   4.878   3.775  11.368  0.3532 -1.0829  0.5000
13299TIP3   OH261311   6.531   3.132  12.639  0.3395  0.2017 -0.5892
13299TIP3    H161312   6.582   3.082  12.575  0.6059  0.4618 -0.5793
13299TIP3    H261313   6.589   3.204  12.664 -0.1563  0.6779 -0.8183
13300TIP3   OH261314   3.706   2.084  17.014  0.1172 -0.4446  0.3839
13300TIP3    H161315   3.759   2.139  17.072  0.7028 -0.2865 -0.2948
13300TIP3    H261316   3.730   2.112  16.926 -1.0159 -0.4498  0.0616
13301TIP3   OH261317   0.545   5.448  12.514 -0.4089  0.1411  0.4392
13301TIP3    H161318   0.478   5.379  12.511 -1.2041  0.9441 -0.4607
13301TIP3    H261319   0.626   5.401  12.535 -0.9354 -1.0790 -0.1850
13302TIP3   OH261320   4.945   1.713  12.829  0.1411  0.3225 -0.2450
13302TIP3    H161321   4.996   1.791  12.848 -0.0745  0.5738 -0.6916
13302TIP3    H261322   4.942   1.708  12.733 -0.7668  0.3778 -0.2244
13303TIP3   OH261323   1.834   0.093   5.411  0.2107  0.0208  0.1688
13303TIP3    H161324   1.802   0.176   5.375 -1.6845  0.2856  2.3511
13303TIP3    H261325   1.899   0.120   5.477 -0.6943 -0.1961  1.1584
13304TIP3   OH261326   3.470   2.358   3.115 -0.2883  0.5300 -0.8028
13304TIP3    H161327   3.549   2.382   3.164 -0.0398 -0.2534 -0.8260
13304TIP3    H261328   3.420   2.304   3.176 -1.6280  2.4414 -0.1597
13305TIP3   OH261329   3.772   1.028  12.087 -0.0397 -0.3558 -0.1959
13305TIP3    H161330   3.780   1.094  12.156 -2.2384  0.9460 -1.1093
13305TIP3    H261331   3.740   0.950  12.131 -1.9149  0.6153  0.2386
13306TIP3   OH261332   3.683   1.214  11.662 -0.5141  0.1617  0.6979
13306TIP3    H161333   3.701   1.287  11.720 -1.3310 -0.2550  1.4978
13306TIP3    H261334   3.749   1.148  11.683 -0.4215  0.2594  0.7086
13307TIP3   OH261335   3.728   2.295  14.034 -0.6179 -0.4205  0.3569
13307TIP3    H161336   3.655   2.355  14.053 -0.8272 -0.3118 -0.7426
13307TIP3    H261337   3.742   2.305  13.940  0.3605 -0.9672  0.4470
13308TIP3   OH261338   1.940   6.340   5.487  0.2349 -0.0394 -0.4561
13308TIP3    H161339   2.007   6.301   5.544  0.2567  1.6546  0.7103
13308TIP3    H261340   1.921   6.424   5.527 -0.6512  0.6574 -2.2995
13309TIP3   OH261341   0.049   4.117   5.082 -0.1125  0.8963 -0.3847
13309TIP3    H161342   0.040   4.139   4.989 -0.7436 -0.4442 -0.6435
13309TIP3    H261343  -0.003   4.038   5.093  2.8698 -1.0073  0.3558
13310TIP3   OH261344   4.219   5.450   3.834 -0.2653 -0.4999 -0.4974
13310TIP3    H161345   4.145   5.468   3.776  0.0149  0.1082 -0.6668
13310TIP3    H261346   4.247   5.536   3.865 -1.3932 -0.9243  1.7684
13311TIP3   OH261347   2.081   0.845   3.436 -0.7698 -0.0049  0.1659
13311TIP3    H161348   2.026   0.826   3.511 -0.7713  2.3802  0.8187
13311TIP3    H261349   2.061   0.777   3.372 -1.6317 -1.3631  1.8736
13312TIP3   OH261350   1.245   2.238   4.651 -0.7265  0.3670 -0.8244
13312TIP3    H161351   1.166   2.291   4.657 -0.0680  1.2539  0.1971
13312TIP3    H261352   1.315   2.296   4.682  0.3920 -0.2524 -2.1035
13313TIP3   OH261353   4.222   4.056   4.165  0.2728  0.5214 -0.6883
13313TIP3    H161354   4.315   4.036   4.162  0.2491  0.1234  0.8057
13313TIP3    H261355   4.195   4.034   4.255 -0.5818  3.5625 -0.1110
13314TIP3   OH261356   0.408   0.646  14.125  0.1012  0.3995 -0.2575
13314TIP3    H161357   0.490   0.605  14.152  0.1256  2.0151  2.2516
13314TIP3    H261358   0.368   0.582  14.066  3.2082 -0.3420 -1.6474
13315TIP3   OH261359   0.022   1.047  12.065 -0.2024  0.0672 -0.2131
13315TIP3    H161360  -0.020   0.969  12.101  0.4074 -1.3212 -2.4124
13315TIP3    H261361  -0.013   1.055  11.977  0.1522  1.9921 -0.2098
13316TIP3   OH261362   5.210   3.665   4.545 -0.4585  0.0934  0.9914
13316TIP3    H161363   5.232   3.638   4.456 -1.1301 -3.2166  1.7562
13316TIP3    H261364   5.294   3.685   4.585  0.1527 -1.2798  0.4559
13317TIP3   OH261365   5.936   0.547   1.600 -0.8780 -0.5220 -0.4841
13317TIP3    H161366   5.897   0.469   1.640  1.8644 -1.6816  0.0674
13317TIP3    H261367   5.948   0.608   1.672 -2.6645  0.2769 -0.8481
13318TIP3   OH261368   2.291   3.009   4.084  0.0648 -0.2994 -0.0657
13318TIP3    H161369   2.201   2.994   4.114  0.1061  0.9060  0.7059
13318TIP3    H261370   2.335   3.049   4.159  1.0317 -0.1433 -0.7065
13319TIP3   OH261371   2.752   0.929   3.088 -0.4928  0.0175  0.0244
13319TIP3    H161372   2.830   0.948   3.035 -1.0894  1.5229 -0.3072
13319TIP3    H261373   2.682   0.918   3.024 -0.8390  0.0099  0.4077
13320TIP3   OH261374   6.590   6.230  10.683 -0.3185 -0.1047  0.2070
13320TIP3    H161375   6.680   6.222  10.715  0.9336  3.7785 -2.0050
13320TIP3    H261376   6.588   6.176  10.604 -0.2677 -0.9884  0.7924
13321TIP3   OH261377   5.826   1.281  12.065 -0.0826  0.1410 -0.4722
13321TIP3    H161378   5.883   1.217  12.022 -1.4146 -1.6100  0.2911
13321TIP3    H261379   5.772   1.317  11.995 -1.1503 -1.5373 -0.5381
13322TIP3   OH261380   5.829   6.673  13.666  0.0854 -0.3716 -0.0349
13322TIP3    H161381   5.790   6.682  13.753 -0.7940 -2.7668 -0.1748
13322TIP3    H261382   5.755   6.676  13.606  0.7730  2.3387 -0.8334
13323TIP3   OH261383   0.269   4.861   6.043  0.6800 -0.0596  0.7976
13323TIP3    H161384   0.289   4.770   6.024  0.3670  0.1839 -0.8347
13323TIP3    H261385   0.343   4.910   6.008  1.0194  0.2995  1.9897
13324TIP3   OH261386   3.579   4.443  13.164 -0.3031 -0.2617  0.0685
13324TIP3    H161387   3.507   4.382  13.155  0.2439 -0.9926  0.5196
13324TIP3    H261388   3.541   4.530  13.148 -1.3297 -0.6138  0.6114
13325TIP3   OH261389   1.963   0.715   6.181 -0.1611 -0.4353 -0.3994
13325TIP3    H161390   2.011   0.635   6.156 -0.3582 -0.8012  0.3694
13325TIP3    H261391   2.031   0.781   6.193  0.3612 -1.4632  2.6288
13326TIP3   OH261392   3.605   2.145   3.685 -0.3251 -0.3303 -0.3430
13326TIP3    H161393   3.700   2.130   3.685 -0.2829 -0.0960  0.4049
13326TIP3    H261394   3.569   2.065   3.724 -0.3251  0.1811  0.7264
13327TIP3   OH261395   3.435   3.423   6.473  0.2066  0.2625 -0.0677
13327TIP3    H161396   3.396   3.392   6.391  1.1699 -2.5252  0.4520
13327TIP3    H261397   3.476   3.506   6.450  0.3073 -0.3718 -2.3713
13328TIP3   OH261398   2.728   1.685   5.216  0.2524 -0.0361  0.3038
13328TIP3    H161399   2.753   1.726   5.299  0.7053  1.0240 -0.3429
13328TIP3    H261400   2.782   1.607   5.210  0.8200  0.3281  0.6155
13329TIP3   OH261401   0.708   0.162   0.768  0.1651  0.3986  0.0604
13329TIP3    H161402   0.639   0.103   0.798 -1.4500  0.7202 -2.7748
13329TIP3    H261403   0.724   0.220   0.842 -2.0230 -0.2281  1.0725
13330TIP3   OH261404   3.831   2.486   0.033  0.1629 -0.1548 -0.2613
13330TIP3    H161405   3.782   2.408   0.057 -1.4396  1.2101  1.0256
13330TIP3    H261406   3.878   2.511   0.112 -0.7465  1.1921 -0.1303
13331TIP3   OH261407   0.826   3.441  17.230 -0.3849 -0.2203  0.0964
13331TIP3    H161408   0.762   3.427  17.300  0.6814 -0.1066  1.0941
13331TIP3    H261409   0.796   3.384  17.159 -0.8545 -1.1717  1.0395
13332TIP3   OH261410   5.729   3.957   3.623  0.1108 -0.2120  0.1786
13332TIP3    H161411   5.815   3.964   3.580  0.0733  1.5607  0.3545
13332TIP3    H261412   5.738   3.883   3.683  0.5538 -1.9405 -1.9861
13333TIP3   OH261413   2.771   4.950  12.681 -0.2186  0.6722  0.1191
13333TIP3    H161414   2.779   5.043  12.662 -0.1571  0.7000  0.2755
13333TIP3    H261415   2.797   4.906  12.600  2.1872  0.7439  0.8144
13334TIP3   OH261416   1.204   5.208   4.519  0.1681  0.0421 -0.4323
13334TIP3    H161417   1.194   5.196   4.424  1.4976  1.5560 -0.7820
13334TIP3    H261418   1.298   5.204   4.534 -0.1087 -1.9072  1.0974
13335TIP3   OH261419   0.351   2.717  11.667  0.4389 -0.1679  0.2218
13335TIP3    H161420   0.369   2.635  11.621  0.3759  0.9381 -1.8647
13335TIP3    H261421   0.307   2.772  11.601  0.6636  1.6024  1.5061
13336TIP3   OH261422   6.363   6.012   5.418 -0.3911  0.2803 -0.0598
13336TIP3    H161423   6.359   6.045   5.328  0.8204  0.0915 -0.1842
13336TIP3    H261424   6.280   6.041   5.457 -0.1863  1.8473 -0.7258
13337TIP3   OH261425   1.962   0.035  11.812  0.3839 -0.0257  0.0704
13337TIP3    H161426   2.006   0.104  11.861  0.2986 -0.0027  0.1166
13337TIP3    H261427   1.951   0.072  11.724 -0.9044  0.5674  0.4685
13338TIP3   OH261428   1.171   0.403   0.701 -0.1756 -0.2707 -0.3173
13338TIP3    H161429   1.266   0.399   0.693 -0.1078 -1.2528  0.8175
13338TIP3    H261430   1.141   0.317   0.670 -0.5700 -0.5198  0.7146
13339TIP3   OH261431   3.473   4.282  13.953 -0.1607  0.2061 -0.2870
13339TIP3    H161432   3.513   4.206  13.911 -2.6133 -0.7593 -0.9533
13339TIP3    H261433   3.492   4.354  13.893  0.6621 -0.2133 -0.5429
13340TIP3   OH261434   3.470   1.601   3.356 -0.5983 -0.2685  0.1075
13340TIP3    H161435   3.447   1.647   3.437  0.3150 -1.3809  1.0101
13340TIP3    H261436   3.563   1.580   3.365 -0.1266  0.8281 -1.8529
13341TIP3   OH261437   4.852   5.125   0.247  0.1811 -0.1709  0.3519
13341TIP3    H161438   4.763   5.159   0.237  0.1575  0.5701  2.7709
13341TIP3    H261439   4.859   5.057   0.179 -2.3518 -0.5156  0.3596
13342TIP3   OH261440   3.340   4.042   4.328 -0.6275 -0.0126  0.6244
13342TIP3    H161441   3.411   4.015   4.269 -2.9249 -1.8532 -1.3762
13342TIP3    H261442   3.343   4.137   4.327  1.9707 -0.0406  0.8022
13343TIP3   OH261443   5.810   5.304   6.122  0.5594 -0.1704  0.4197
13343TIP3    H161444   5.769   5.382   6.085  1.7752 -0.3688 -1.4095
13343TIP3    H261445   5.904   5.323   6.118  0.7534 -0.4329  2.9210
13344TIP3   OH261446   4.062   3.792  16.368  0.1689  0.0534 -0.4941
13344TIP3    H161447   4.023   3.832  16.446 -0.3090 -0.5731 -0.4108
13344TIP3    H261448   4.098   3.710  16.399 -0.8453 -0.6380 -1.1179
13345TIP3   OH261449   3.628   5.617   3.265  0.1954 -0.3568  0.5130
13345TIP3    H161450   3.621   5.644   3.173 -1.8460  0.2478  0.8163
13345TIP3    H261451   3.579   5.683   3.313 -2.3525 -2.9246  1.6009
13346TIP3   OH261452   0.546   0.713   0.574  0.0506  0.0611 -0.0157
13346TIP3    H161453   0.521   0.757   0.492 -0.2983 -0.3867 -0.1523
13346TIP3    H261454   0.476   0.650   0.589  0.2887 -0.0894  0.4545
13347TIP3   OH261455   0.251   2.748  15.662  0.0570 -0.5024 -0.2686
13347TIP3    H161456   0.264   2.766  15.756 -1.6037 -1.0540  0.0866
13347TIP3    H261457   0.214   2.660  15.660 -2.3644  0.4913 -1.2538
13348TIP3   OH261458   6.736   1.434   6.459  0.5778  0.0066 -0.0198
13348TIP3    H161459   6.670   1.502   6.474 -0.7601 -0.6418 -2.5675
13348TIP3    H261460   6.694   1.375   6.395  2.4966 -2.0609  0.6033
13349TIP3   OH261461   0.553   1.086  13.014  0.2653  0.1756 -0.6324
13349TIP3    H161462   0.506   1.008  13.043 -0.2747  0.0376 -1.8381
13349TIP3    H261463   0.562   1.075  12.919  1.4604  0.8923 -0.6087
13350TIP3   OH261464   4.588   3.685  17.027  0.8221  0.2521 -0.3154
13350TIP3    H161465   4.616   3.686  17.118 -0.0205  3.0685 -0.0332
13350TIP3    H261466   4.638   3.755  16.986 -1.9241  1.9134 -0.9781
13351TIP3   OH261467   4.779   4.994   3.267  0.0941  0.1595  0.0426
13351TIP3    H161468   4.687   5.006   3.242  0.1650  0.0769 -0.2553
13351TIP3    H261469   4.817   4.942   3.196  0.1549 -0.5753  0.6076
13352TIP3   OH261470   0.992   3.645   6.202  0.3673  0.2400 -0.2475
13352TIP3    H161471   1.010   3.725   6.152  1.2175  0.4957  0.4510
13352TIP3    H261472   0.952   3.676   6.283  0.3517 -0.0715 -0.1354
13353TIP3   OH261473   3.919   5.833  11.461 -0.5723  0.0297  0.1833
13353TIP3    H161474   3.863   5.818  11.385  0.0724 -2.1253  0.1025
13353TIP3    H261475   3.999   5.783  11.442  0.6614  1.5891  1.1144
13354TIP3   OH261476   6.595   1.609  16.480 -0.3315 -0.3742  0.3559
13354TIP3    H161477   6.650   1.547  16.432 -0.1028 -0.9643  1.3693
13354TIP3    H261478   6.634   1.613  16.568 -0.8492  0.5562  0.5533
13355TIP3   OH261479   3.227   5.329   5.271 -0.2564 -0.0130  0.1653
13355TIP3    H161480   3.138   5.308   5.300 -0.4867 -0.9169 -1.1571
13355TIP3    H261481   3.227   5.309   5.177  2.0505 -2.3146  0.6155
13356TIP3   OH261482   2.332   1.268   1.564 -0.9622 -0.5873 -0.1919
13356TIP3    H161483   2.346   1.302   1.476 -0.2064 -1.4376 -0.3983
13356TIP3    H261484   2.410   1.216   1.583  0.2929  1.9982  2.1412
13357TIP3   OH261485   4.530   6.710   4.299 -0.4530 -0.0294  0.0064
13357TIP3    H161486   4.470   6.642   4.329 -0.3093 -0.6857 -1.1512
13357TIP3    H261487   4.474   6.776   4.258 -0.9049  2.0794  3.7712
13358TIP3   OH261488   1.914   6.306  13.572 -0.0150 -0.5569  0.4717
13358TIP3    H161489   1.987   6.342  13.521  0.3835  0.1020  1.4786
13358TIP3    H261490   1.938   6.215  13.589  0.3277 -0.4891  0.3492
13359TIP3   OH261491   6.693   2.726   3.898 -0.0275 -0.3756  0.1086
13359TIP3    H161492   6.743   2.708   3.978  0.9132 -0.9222 -0.5832
13359TIP3    H261493   6.743   2.683   3.829 -0.0709  1.2901 -0.9910
13360TIP3   OH261494   1.217   0.674   3.369 -0.3467 -0.7149  0.0353
13360TIP3    H161495   1.294   0.660   3.424 -1.2151 -1.8348  0.9887
13360TIP3    H261496   1.216   0.768   3.353 -1.6309  0.1075  4.2888
13361TIP3   OH261497   4.394   5.484  11.283 -0.0862  0.3378 -0.2378
13361TIP3    H161498   4.439   5.540  11.347 -0.1336 -0.8743  0.8715
13361TIP3    H261499   4.436   5.505  11.200  0.8342  1.0287  0.3866
13362TIP3   OH261500   3.377   6.230   5.438 -0.1013 -0.0534 -0.5665
13362TIP3    H161501   3.397   6.261   5.527  0.3613  0.6708 -0.9175
13362TIP3    H261502   3.463   6.211   5.400 -0.3739 -1.6451 -0.4030
13363TIP3   OH261503   2.527   4.182  12.189  0.0339  0.2173 -0.5132
13363TIP3    H161504   2.452   4.153  12.138 -0.8578 -0.2825  1.0514
13363TIP3    H261505   2.549   4.268  12.153 -1.3282  0.3868 -0.9489
13364TIP3   OH261506   1.101   2.094   2.370  0.6050 -0.0671 -0.2477
13364TIP3    H161507   1.063   2.058   2.450 -0.0740  0.1672 -0.4608
13364TIP3    H261508   1.108   2.019   2.311  0.9451 -0.2066 -0.0322
13365TIP3   OH261509   1.074   3.307  11.236 -0.2809  0.1822  0.5423
13365TIP3    H161510   1.089   3.282  11.145  0.7152 -0.4539  0.8751
13365TIP3    H261511   1.082   3.225  11.285  0.2394  0.7011  1.3254
13366TIP3   OH261512   6.228   4.878   3.790 -0.3211  0.1827  0.0352
13366TIP3    H161513   6.298   4.906   3.848 -0.5437  0.0690  0.3592
13366TIP3    H261514   6.273   4.848   3.711  0.0666 -0.9621  0.6764
13367TIP3   OH261515   2.432   4.628   0.418  0.2734 -0.0998 -0.0725
13367TIP3    H161516   2.455   4.720   0.409  0.9756 -0.2218  0.5149
13367TIP3    H261517   2.514   4.583   0.437  0.3413 -1.1852 -2.6978
13368TIP3   OH261518   2.783   5.575  12.214  0.0559  0.6142  0.1443
13368TIP3    H161519   2.836   5.572  12.293  0.0004 -1.3520  0.1288
13368TIP3    H261520   2.695   5.599  12.245  0.3642  1.2931  0.4919
13369TIP3   OH261521   5.155   4.725  14.862  0.4417  0.4429 -0.1344
13369TIP3    H161522   5.094   4.715  14.935  0.8208 -0.3472  0.0744
13369TIP3    H261523   5.101   4.757  14.790 -0.1147  0.2761  0.2046
13370TIP3   OH261524   2.403   0.749  11.188  0.0285 -0.2963  0.1910
13370TIP3    H161525   2.390   0.740  11.093 -0.6513 -1.8101  0.4046
13370TIP3    H261526   2.439   0.837  11.199  1.0124 -0.4374 -1.5621
13371TIP3   OH261527   5.970   3.565  10.473  0.0924 -0.0340 -0.4888
13371TIP3    H161528   6.026   3.509  10.420  0.5919 -0.4349  0.4389
13371TIP3    H261529   5.955   3.515  10.553 -0.5827  0.5846 -0.2197
13372TIP3   OH261530   4.956   1.862  16.252 -0.0294 -0.2222 -0.3045
13372TIP3    H161531   4.938   1.779  16.208 -0.4930  0.4187 -1.3148
13372TIP3    H261532   4.983   1.836  16.340 -0.8720 -1.4231 -0.3856
13373TIP3   OH261533   4.129   4.644  12.173  0.4628  0.3324 -0.3073
13373TIP3    H161534   4.078   4.564  12.186 -0.5468  0.6250 -2.2483
13373TIP3    H261535   4.219   4.618  12.192 -0.0589 -0.8634  0.6145
13374TIP3   OH261536   1.409   5.275   3.952  0.2566  0.0074 -0.2820
13374TIP3    H161537   1.353   5.252   3.878  1.2935  1.4361 -1.5516
13374TIP3    H261538   1.412   5.371   3.951  2.5818 -0.0220 -0.1600
13375TIP3   OH261539   3.305   2.514   0.125  0.2711 -0.9282 -0.3891
13375TIP3    H161540   3.388   2.511   0.174  0.1806 -0.4242 -0.2119
13375TIP3    H261541   3.294   2.605   0.101 -1.1862 -0.6666  1.2065
13376TIP3   OH261542   5.099   2.872  11.946  0.1174  0.1956 -0.1629
13376TIP3    H161543   5.006   2.879  11.924  0.2614  0.1193 -0.7944
13376TIP3    H261544   5.142   2.939  11.893  0.5253 -0.2981 -0.4554
13377TIP3   OH261545   3.747   3.052   1.047 -0.0503 -0.0357 -0.4060
13377TIP3    H161546   3.796   3.000   1.110  0.1025 -0.1380 -0.6058
13377TIP3    H261547   3.678   3.093   1.098 -0.4777 -0.8317 -0.3293
13378TIP3   OH261548   5.432   5.845  13.921  0.6903 -0.8507 -0.4559
13378TIP3    H161549   5.481   5.883  13.994 -0.1788 -2.3703  0.9423
13378TIP3    H261550   5.473   5.760  13.906  0.6660 -0.6725 -1.5357
13379TIP3   OH261551   3.884   3.032  11.817 -0.1643 -0.3822  0.2463
13379TIP3    H161552   3.823   2.969  11.778 -1.7655 -0.6204  2.9484
13379TIP3    H261553   3.962   2.980  11.838 -0.4625 -0.8932  0.1062
13380TIP3   OH261554   1.621   2.623   0.366  0.5108 -0.2987 -0.1553
13380TIP3    H161555   1.599   2.597   0.277  0.9084  0.6787 -0.5394
13380TIP3    H261556   1.656   2.712   0.358  0.9413 -0.3593  0.9173
13381TIP3   OH261557   4.031   5.324   0.149  0.5192  0.0546  0.2872
13381TIP3    H161558   4.089   5.255   0.115  2.3417  0.3076  2.7658
13381TIP3    H261559   4.085   5.403   0.149  0.3026  0.2308  2.9533
13382TIP3   OH261560   0.214   1.509   5.598 -0.1096  0.2482 -0.1289
13382TIP3    H161561   0.237   1.439   5.537 -0.1159  0.7069 -0.6500
13382TIP3    H261562   0.152   1.467   5.659 -0.2767 -0.1420 -0.5633
13383TIP3   OH261563   6.081   5.667  11.127  0.8486  0.2577 -0.0084
13383TIP3    H161564   6.132   5.698  11.052 -0.0051  1.0309 -0.2696
13383TIP3    H261565   5.991   5.689  11.105  0.4937 -0.3702  0.8269
13384TIP3   OH261566   1.985   1.553   1.457 -0.5406  0.3589  0.2579
13384TIP3    H161567   2.048   1.542   1.386 -0.6202 -0.3889  0.3031
13384TIP3    H261568   2.023   1.506   1.531 -1.0668  0.0471  0.3356
13385TIP3   OH261569   4.876   0.600   4.953 -0.3945 -0.0445 -0.3650
13385TIP3    H161570   4.892   0.588   4.860 -0.5481 -0.3570 -0.3520
13385TIP3    H261571   4.911   0.521   4.994 -1.3778 -0.4533 -0.2795
13386TIP3   OH261572   2.798   5.876  15.221 -0.2458  0.0391 -0.1286
13386TIP3    H161573   2.724   5.936  15.218  1.0273  1.6419 -0.6057
13386TIP3    H261574   2.835   5.880  15.132  0.7559 -0.2725  0.2715
13387TIP3   OH261575   1.339   4.739  14.072 -0.3739 -0.1809 -0.0969
13387TIP3    H161576   1.335   4.654  14.028 -0.1919 -0.8559  1.1717
13387TIP3    H261577   1.250   4.756  14.102  0.0043 -0.9609  1.5448
13388TIP3   OH261578   5.186   3.032  12.756  0.3158  0.1915  0.3834
13388TIP3    H161579   5.204   3.060  12.666  2.1564 -1.4125  0.2302
13388TIP3    H261580   5.160   2.941  12.748  1.5480 -0.2762  1.5836
13389TIP3   OH261581   4.540   4.395  17.109  0.0450  0.0702  0.3907
13389TIP3    H161582   4.469   4.435  17.058 -0.0818  0.6787  1.0244
13389TIP3    H261583   4.501   4.316  17.146 -0.2441  0.2773  0.5403
13390TIP3   OH261584   2.049   3.301   2.124 -0.6165 -0.5183 -0.5449
13390TIP3    H161585   2.056   3.268   2.034  0.1142 -1.3808 -0.1777
13390TIP3    H261586   1.991   3.238   2.167  1.0190 -1.5265  0.2395
13391TIP3   OH261587   6.446   2.557   0.438  0.4066  0.4597 -0.1353
13391TIP3    H161588   6.461   2.629   0.377  0.0500  0.1554 -0.5900
13391TIP3    H261589   6.532   2.534   0.472  0.6528  0.3940 -0.8006
13392TIP3   OH261590   5.442   4.893   5.755 -0.1279 -0.1023  0.3554
13392TIP3    H161591   5.523   4.907   5.804 -1.0590 -0.3880  2.0075
13392TIP3    H261592   5.410   4.808   5.784 -0.6889 -0.2920 -0.7785
13393TIP3   OH261593   3.769   1.521  11.304  0.1041 -0.5581 -0.0971
13393TIP3    H161594   3.840   1.554  11.248  0.5007  0.5458  1.0248
13393TIP3    H261595   3.796   1.545  11.393 -1.4447 -0.5801  0.3921
13394TIP3   OH261596   2.636   4.233   0.242 -0.0255 -0.2128 -0.4814
13394TIP3    H161597   2.690   4.214   0.318 -1.3476  1.4586  0.9318
13394TIP3    H261598   2.697   4.269   0.178  1.3097 -2.7879 -0.7149
13395TIP3   OH261599   1.233   0.900  12.785  0.1098 -0.2953 -0.1990
13395TIP3    H161600   1.191   0.952  12.854 -0.8384  0.6918 -1.4992
13395TIP3    H261601   1.327   0.920  12.794  0.1000 -0.8615  1.3540
13396TIP3   OH261602   5.582   0.983   1.666  0.4728 -0.4945 -0.0577
13396TIP3    H161603   5.505   1.022   1.708  0.6471 -2.4446  2.1413
13396TIP3    H261604   5.585   1.025   1.580 -2.7074  0.0528  0.0302
13397TIP3   OH261605   1.770   0.332   2.470  0.0108 -0.0254 -1.0358
13397TIP3    H161606   1.850   0.285   2.445 -0.0012 -0.3064 -0.5707
13397TIP3    H261607   1.739   0.285   2.548 -0.0578  0.6959 -0.6250
13398TIP3   OH261608   2.879   6.150   2.864 -0.2030 -0.0417 -0.2815
13398TIP3    H161609   2.923   6.213   2.921  0.1738 -0.4296 -0.1436
13398TIP3    H261610   2.926   6.068   2.878 -0.2102 -0.1754 -1.0327
13399TIP3   OH261611   3.077   6.294   3.893 -0.1842 -0.1576  0.6501
13399TIP3    H161612   3.047   6.262   3.808  0.8800 -0.1470  0.2645
13399TIP3    H261613   3.135   6.367   3.872 -1.1568  0.8590  1.4562
13400TIP3   OH261614   1.292   3.254  16.460 -0.1207 -0.3252 -0.0768
13400TIP3    H161615   1.199   3.251  16.439 -0.4005 -0.6606  1.1604
13400TIP3    H261616   1.333   3.196  16.395 -0.9573 -1.3277  0.2728
13401TIP3   OH261617   1.879   1.843  13.516 -0.4246 -0.1686  0.2403
13401TIP3    H161618   1.866   1.760  13.562 -1.4348 -0.3075 -0.3013
13401TIP3    H261619   1.905   1.818  13.428  0.0689  0.1022  0.3050
13402TIP3   OH261620   5.527   0.876  14.888  0.0420 -0.3874 -0.0707
13402TIP3    H161621   5.610   0.852  14.930  0.7057 -0.8316 -1.5911
13402TIP3    H261622   5.548   0.956  14.839 -0.8532  0.4093  0.8323
13403TIP3   OH261623   0.395   1.943   5.536 -0.0064 -0.0700 -0.2430
13403TIP3    H161624   0.321   1.936   5.596  1.6301 -1.6130  1.6682
13403TIP3    H261625   0.414   1.852   5.511  0.0155  0.4761 -2.2778
13404TIP3   OH261626   3.193   0.394   2.126  0.3244  0.1721  0.3634
13404TIP3    H161627   3.273   0.361   2.085 -0.1021 -1.4749  0.8273
13404TIP3    H261628   3.202   0.372   2.218 -1.4679 -1.7208  0.1287
13405TIP3   OH261629   1.002   4.173  15.868 -0.2809 -0.0887 -0.3252
13405TIP3    H161630   1.076   4.232  15.853  0.3581 -0.3149  1.7507
13405TIP3    H261631   0.945   4.223  15.927 -0.0649 -1.2607  0.8963
13406TIP3   OH261632   3.979   5.153  10.972 -0.4351 -0.1353 -0.3806
13406TIP3    H161633   3.903   5.208  10.991 -0.9436 -1.6754  2.3153
13406TIP3    H261634   4.028   5.202  10.906 -2.3941  2.1253 -0.2322
13407TIP3   OH261635   2.152   6.548  15.249 -0.0295 -0.2170 -0.0137
13407TIP3    H161636   2.173   6.456  15.262  0.1004 -0.0834  0.7105
13407TIP3    H261637   2.172   6.565  15.156  0.9368 -0.6430  0.1198
13408TIP3   OH261638   2.293   4.268   2.999 -0.3837  0.1976  0.2111
13408TIP3    H161639   2.294   4.342   3.061 -1.9148  0.4036  0.0014
13408TIP3    H261640   2.201   4.258   2.976  0.0988 -0.3123 -1.5303
13409TIP3   OH261641   3.780   2.153   5.416  0.3056 -0.3767 -0.0491
13409TIP3    H161642   3.762   2.063   5.443 -0.2471 -0.4338 -0.5873
13409TIP3    H261643   3.873   2.152   5.392  0.2116 -0.9101 -0.4224
13410TIP3   OH261644   4.966   1.581  12.044  0.1062  0.5310  0.2271
13410TIP3    H161645   4.919   1.578  11.961 -0.9393  0.0749  0.8146
13410TIP3    H261646   4.905   1.623  12.104  0.5960  0.2654  0.9173
13411TIP3   OH261647   0.288   2.605  11.945 -0.3499  0.4847  0.2643
13411TIP3    H161648   0.209   2.630  11.992 -1.5624 -0.1761 -1.3965
13411TIP3    H261649   0.277   2.641  11.857  1.0472  0.0926 -0.0906
13412TIP3   OH261650   2.499   5.268  12.817 -0.2478 -0.1698  0.3437
13412TIP3    H161651   2.420   5.322  12.807  0.2899  0.8072  1.2085
13412TIP3    H261652   2.563   5.308  12.759  0.5988  1.0371  2.0462
13413TIP3   OH261653   1.822   6.242  16.717  0.5571  0.2988 -0.1590
13413TIP3    H161654   1.730   6.223  16.698  1.1726 -1.8596 -1.1739
13413TIP3    H261655   1.858   6.269  16.633  0.8670  1.2060  0.2535
13414TIP3   OH261656   4.800   0.885   3.012 -0.1301 -0.2626  0.1032
13414TIP3    H161657   4.728   0.884   3.075 -0.2169 -0.5222  0.0011
13414TIP3    H261658   4.758   0.864   2.928  0.2407 -1.6124  0.2345
13415TIP3   OH261659   5.192   2.917   1.595 -0.4005  0.3168 -0.6623
13415TIP3    H161660   5.205   2.998   1.547 -1.8629  1.2518  0.4594
13415TIP3    H261661   5.103   2.924   1.630  0.1818 -0.8480  1.1415
13416TIP3   OH261662   4.609   5.277  14.283 -0.2183 -0.4674  0.1735
13416TIP3    H161663   4.575   5.355  14.327 -0.2035  0.0412 -0.7056
13416TIP3    H261664   4.656   5.229  14.352 -0.5878  0.0784  0.8155
13417TIP3   OH261665   3.812   3.289   2.856  0.3111 -0.0041 -0.1046
13417TIP3    H161666   3.828   3.257   2.945  1.3883  1.4010  0.2174
13417TIP3    H261667   3.894   3.330   2.830 -0.4128  0.7352 -1.2608
13418TIP3   OH261668   2.327   2.631   5.221  0.6350 -0.8739  0.1204
13418TIP3    H161669   2.377   2.605   5.299  0.7437 -1.8665 -0.2704
13418TIP3    H261670   2.242   2.588   5.232  0.3283 -0.2609  0.1421
13419TIP3   OH261671   5.541   2.615  15.270 -0.0498 -0.0567  0.3113
13419TIP3    H161672   5.550   2.636  15.177 -0.6866 -2.5875 -0.3660
13419TIP3    H261673   5.469   2.669  15.301 -1.4378 -0.9573 -1.2729
13420TIP3   OH261674   5.370   4.551   3.424  0.3017 -0.2302 -0.2737
13420TIP3    H161675   5.312   4.555   3.500 -0.7589  1.1037 -1.1319
13420TIP3    H261676   5.431   4.480   3.444 -0.3154 -0.2568  1.5689
13421TIP3   OH261677   4.907   6.228  16.189  0.2361  0.0091 -0.4283
13421TIP3    H161678   4.841   6.209  16.256  0.5981  1.5815  0.3999
13421TIP3    H261679   4.859   6.271  16.118 -0.0979 -1.3856 -1.0589
13422TIP3   OH261680   6.207   3.907  16.021 -0.2850  0.5111  0.0762
13422TIP3    H161681   6.242   3.936  15.937 -2.2139 -1.4179 -1.4522
13422TIP3    H261682   6.182   3.815  16.007  0.0131 -0.0608  2.9640
13423TIP3   OH261683   2.553   5.686  12.958  0.6102  0.1464 -0.4375
13423TIP3    H161684   2.469   5.731  12.961  0.6378  0.1811 -0.1098
13423TIP3    H261685   2.614   5.747  13.001  0.6887 -0.1175 -0.1746
13424TIP3   OH261686   1.782   0.817  11.383  0.1902 -0.2276  0.3143
13424TIP3    H161687   1.848   0.808  11.451  0.0318 -1.9546  0.2619
13424TIP3    H261688   1.729   0.891  11.410  2.7859  1.8908 -0.1983
13425TIP3   OH261689   3.106   2.434   1.581 -0.1901 -0.3523  0.3345
13425TIP3    H161690   3.122   2.491   1.656  1.0934  1.2864 -1.1704
13425TIP3    H261691   3.193   2.409   1.551 -0.7213 -3.1736  0.9882
13426TIP3   OH261692   4.408   6.289  17.206  0.4364 -0.0080 -0.0480
13426TIP3    H161693   4.495   6.259  17.178  0.4514 -0.9422  0.9632
13426TIP3    H261694   4.420   6.313  17.298 -0.1434  0.8174 -0.1889
13427TIP3   OH261695   0.945   3.895  16.747  0.0775  0.6253 -0.1887
13427TIP3    H161696   0.901   3.914  16.664 -2.6892 -0.0607  1.0622
13427TIP3    H261697   1.034   3.871  16.721 -0.8222  0.0449 -3.0051
13428TIP3   OH261698   5.442   0.629   1.094 -0.2396 -0.1706  0.3091
13428TIP3    H161699   5.519   0.661   1.141  0.0480 -1.5168  0.7747
13428TIP3    H261700   5.463   0.642   1.002  0.0140  0.6430  0.4783
13429TIP3   OH261701   0.869   2.099  11.412 -0.2383  0.0962  0.0166
13429TIP3    H161702   0.938   2.033  11.410 -2.3504 -2.1610 -0.3625
13429TIP3    H261703   0.826   2.091  11.326 -0.2155  2.2833 -0.2126
13430TIP3   OH261704   2.228   1.903   4.739 -0.4065  0.8358 -0.1336
13430TIP3    H161705   2.192   1.992   4.742 -1.8204  0.2975 -0.5390
13430TIP3    H261706   2.155   1.849   4.708  0.9132 -0.2267 -1.4803
13431TIP3   OH261707   4.017   5.788  14.562 -0.0737  0.1979  0.0125
13431TIP3    H161708   3.962   5.780  14.640  0.3048  0.4823  0.3186
13431TIP3    H261709   3.972   5.852  14.507 -0.6919 -0.5223 -0.3061
13432TIP3   OH261710   3.107   0.209  11.743 -0.4051 -0.4302 -1.0650
13432TIP3    H161711   3.125   0.230  11.834 -3.5728 -0.3859 -0.3813
13432TIP3    H261712   3.147   0.280  11.693 -0.2622  0.5315  0.4048
13433TIP3   OH261713   6.691   4.721  11.527  0.3289  0.2905 -0.3067
13433TIP3    H161714   6.725   4.723  11.438  1.6986  0.9113  0.2139
13433TIP3    H261715   6.769   4.726  11.583 -0.4804 -0.5575  0.9251
13434TIP3   OH261716   0.263   1.306   2.869 -0.4245 -0.4811  0.3842
13434TIP3    H161717   0.194   1.243   2.892 -0.7285 -0.3530 -0.1798
13434TIP3    H261718   0.218   1.373   2.819  0.2267 -0.6965 -0.4888
13435TIP3   OH261719   0.491   0.398  16.104 -0.7169  0.6624 -0.5029
13435TIP3    H161720   0.424   0.446  16.152 -0.1734  0.2522  0.6965
13435TIP3    H261721   0.500   0.315  16.150 -1.3819 -0.4638 -2.3452
13436TIP3   OH261722   4.982   3.626   5.173  0.6896 -0.3475 -0.2569
13436TIP3    H161723   4.993   3.599   5.264  2.6398  1.6053  0.1261
13436TIP3    H261724   4.891   3.604   5.152 -0.1842  0.4325  2.5841
13437TIP3   OH261725   1.790   4.180  16.935 -0.1152  0.1027 -0.2236
13437TIP3    H161726   1.851   4.196  16.863  2.0119 -0.6142  1.3893
13437TIP3    H261727   1.804   4.252  16.995  0.0679 -0.7678  0.7822
13438TIP3   OH261728   6.777   3.382   0.400  0.1523  0.5886  0.4462
13438TIP3    H161729   6.763   3.308   0.340  1.7854  0.0468  0.7110
13438TIP3    H261730   6.760   3.460   0.346  1.3775  0.1003 -0.6643
13439TIP3   OH261731   2.984   3.117   3.374  0.8925 -0.0694  0.0345
13439TIP3    H161732   3.079   3.108   3.382  0.5086 -1.7133  3.7583
13439TIP3    H261733   2.952   3.028   3.366 -0.4330  0.3954  0.1124
13440TIP3   OH261734   3.789   3.715   4.159  0.2218 -0.0974 -0.0190
13440TIP3    H161735   3.799   3.797   4.207 -0.4144  0.1318 -0.2783
13440TIP3    H261736   3.841   3.651   4.208  2.0098  0.8159 -0.6845
13441TIP3   OH261737   0.024   0.904  13.618  0.2851  0.5897  0.5396
13441TIP3    H161738   0.062   0.913  13.706  0.7119 -0.9917  0.5330
13441TIP3    H261739  -0.068   0.887  13.634  0.9008 -2.7802  0.8228
13442TIP3   OH261740   2.458   1.552  13.953  0.0681  0.1592 -0.0594
13442TIP3    H161741   2.530   1.539  13.891 -0.5088  0.1715 -0.7387
13442TIP3    H261742   2.387   1.497  13.919 -0.9444  1.7506 -0.5359
13443TIP3   OH261743   1.700   1.364  11.397 -0.5247 -0.0323  0.6860
13443TIP3    H161744   1.777   1.406  11.357 -0.7757 -0.0873  0.1380
13443TIP3    H261745   1.737   1.304  11.462 -0.1121  0.1046  0.5796
13444TIP3   OH261746   2.212   4.979  16.110  0.8154 -0.4964 -0.5465
13444TIP3    H161747   2.170   5.003  16.192  1.0859  1.1623 -0.8696
13444TIP3    H261748   2.298   5.022  16.113  1.2198 -1.2359 -1.2604
13445TIP3   OH261749   0.833   1.804   0.585 -0.2963 -0.2672  0.2186
13445TIP3    H161750   0.929   1.803   0.584 -0.2935 -0.3649  0.5526
13445TIP3    H261751   0.808   1.727   0.635 -0.5198  0.6998  1.6163
13446TIP3   OH261752   4.537   3.323   1.509 -0.7789  0.4481  0.3313
13446TIP3    H161753   4.443   3.317   1.493 -0.6056  0.4648 -0.7032
13446TIP3    H261754   4.576   3.329   1.422  0.1466  0.9491  0.7767
13447TIP3   OH261755   2.505   3.499  15.249 -0.2190  0.7771  0.1076
13447TIP3    H161756   2.483   3.526  15.338 -1.3727  1.9006 -0.5068
13447TIP3    H261757   2.442   3.431  15.228  0.4464  0.0666  0.3535
13448TIP3   OH261758   2.594   1.208   5.130  0.0433 -0.3776 -0.2224
13448TIP3    H161759   2.635   1.136   5.081  0.5011 -1.5880  1.8849
13448TIP3    H261760   2.657   1.230   5.198 -0.6633  1.1596 -0.0474
13449TIP3   OH261761   3.856   4.904  11.645  0.0068 -0.2172 -0.1824
13449TIP3    H161762   3.773   4.866  11.617 -0.4646  1.0759 -0.5705
13449TIP3    H261763   3.898   4.933  11.564 -1.8178  4.4762  0.4400
13450TIP3   OH261764   6.333   0.989   2.135 -0.6281  0.2486  0.6411
13450TIP3    H161765   6.273   1.002   2.062  0.3970 -0.2320 -0.3050
13450TIP3    H261766   6.322   0.897   2.159  1.2197 -0.4075 -0.9083
13451TIP3   OH261767   6.372   0.487   0.825 -0.4448 -0.0562  0.2747
13451TIP3    H161768   6.420   0.404   0.828 -0.7569 -0.2177  0.8738
13451TIP3    H261769   6.384   0.519   0.736  0.6835 -0.1463  0.3952
13452TIP3   OH261770   3.298   3.640   5.190 -0.7716  0.0019  0.1640
13452TIP3    H161771   3.362   3.572   5.171  0.5521  0.8796  1.3774
13452TIP3    H261772   3.297   3.646   5.286 -1.9407  0.6770  0.1249
13453TIP3   OH261773   3.231   0.340   3.543  0.5124  0.7162  0.3011
13453TIP3    H161774   3.240   0.422   3.593  2.1999  1.6334 -1.4120
13453TIP3    H261775   3.321   0.310   3.532 -0.0345 -0.7742 -0.0840
13454TIP3   OH261776   1.894   3.245   0.642  0.5800  0.5000  1.2240
13454TIP3    H161777   1.977   3.291   0.628 -1.3096  3.6694 -0.1627
13454TIP3    H261778   1.857   3.286   0.719 -0.4550  0.2330  0.8760
13455TIP3   OH261779   3.785   0.441  16.183 -0.1967  0.5440  0.4778
13455TIP3    H161780   3.767   0.366  16.240  0.8570  0.3892  0.6151
13455TIP3    H261781   3.722   0.507  16.210 -1.3888 -0.4231  0.1080
13456TIP3   OH261782   4.624   5.085  12.495 -0.5405 -0.0256  0.0435
13456TIP3    H161783   4.697   5.060  12.551 -1.3355 -0.3620  0.9435
13456TIP3    H261784   4.548   5.085  12.553 -1.2235  0.5014 -0.8405
13457TIP3   OH261785   4.937   2.395  15.700 -1.1671 -0.2831  0.2793
13457TIP3    H161786   4.983   2.406  15.783 -0.5542  1.7405 -0.2872
13457TIP3    H261787   5.007   2.379  15.636 -1.6213 -1.6828  0.1031
13458TIP3   OH261788   5.077   1.784   1.418  0.1687  0.9030 -0.1298
13458TIP3    H161789   5.089   1.814   1.327  0.6325 -1.8138 -1.0053
13458TIP3    H261790   5.016   1.711   1.411 -0.6309  1.3367  1.9097
13459TIP3   OH261791   6.025   2.382  13.847  0.4343 -0.3572  0.4175
13459TIP3    H161792   6.015   2.441  13.772  1.9531  1.5434  1.6610
13459TIP3    H261793   6.117   2.388  13.870  0.6886 -3.4938  0.4052
13460TIP3   OH261794   6.518   1.214   2.479  0.3923  0.1753  0.4320
13460TIP3    H161795   6.609   1.244   2.476  0.3547  0.4431  1.6335
13460TIP3    H261796   6.474   1.262   2.409  1.2966 -0.4153 -0.5685
13461TIP3   OH261797   2.419   5.457   4.528 -0.7903  0.0816  0.4322
13461TIP3    H161798   2.511   5.481   4.519 -0.7709 -0.9729 -2.8336
13461TIP3    H261799   2.377   5.534   4.565  1.2052  0.9800  0.8715
13462TIP3   OH261800   0.654   2.077   0.027  0.7365  0.1820  0.3464
13462TIP3    H161801   0.695   2.164   0.031  1.2722  0.0122 -1.1129
13462TIP3    H261802   0.716   2.023  -0.022 -0.0461 -0.7718  0.3777
13463TIP3   OH261803   4.195   1.468  12.513  0.4051 -0.2791  0.4324
13463TIP3    H161804   4.236   1.546  12.550  2.3721 -0.6624 -0.8389
13463TIP3    H261805   4.233   1.395  12.562  0.7396 -0.5922 -0.2734
13464TIP3   OH261806   0.075   6.679   4.164  0.4621 -0.7329  0.7704
13464TIP3    H161807   0.012   6.610   4.146  0.4672 -0.2038 -1.4107
13464TIP3    H261808   0.160   6.635   4.162  0.8574 -0.1141 -4.7131
13465TIP3   OH261809   0.613   6.336  13.533  0.0354  0.1351 -0.2477
13465TIP3    H161810   0.600   6.284  13.454 -0.9429  1.3350 -0.9087
13465TIP3    H261811   0.706   6.358  13.532  0.3289 -1.0726 -0.2782
13466TIP3   OH261812   4.944   3.906  13.442  0.1973  0.0422  0.1208
13466TIP3    H161813   5.024   3.867  13.406 -0.6984 -0.3172 -1.5630
13466TIP3    H261814   4.947   3.886  13.535  1.6690 -0.6724 -0.0630
13467TIP3   OH261815   4.186   3.498   4.818 -0.1805  0.0078  0.0183
13467TIP3    H161816   4.121   3.563   4.789 -1.4864 -0.8496  0.9697
13467TIP3    H261817   4.146   3.457   4.895  1.6638 -0.2805  0.8477
13468TIP3   OH261818   6.473   5.670   0.159 -0.4632 -0.1091  0.4169
13468TIP3    H161819   6.540   5.681   0.091 -1.3939  1.6213 -0.2477
13468TIP3    H261820   6.502   5.728   0.230 -0.9047  0.1535  0.3859
13469TIP3   OH261821   4.056   4.346   0.636 -0.3826  0.7429 -0.2202
13469TIP3    H161822   3.963   4.321   0.633 -0.1608 -0.4907  2.0546
13469TIP3    H261823   4.054   4.440   0.650 -1.2867  0.9409 -1.5805
13470TIP3   OH261824   3.104   3.357  12.986  0.0872 -0.3133  0.0497
13470TIP3    H161825   3.047   3.398  13.051 -2.4679 -0.6828 -1.8773
13470TIP3    H261826   3.071   3.268  12.978 -0.7415  0.2029 -2.9437
13471TIP3   OH261827   2.480   3.252  14.800  0.0721 -0.0472 -0.8086
13471TIP3    H161828   2.556   3.282  14.851 -0.3026 -0.9194  0.2994
13471TIP3    H261829   2.496   3.158  14.788 -0.7457 -0.1962 -0.7259
13472TIP3   OH261830   5.947   6.303  15.394  1.1716  0.3002  0.4048
13472TIP3    H161831   6.006   6.246  15.442 -0.2419 -0.9572  0.6984
13472TIP3    H261832   5.874   6.319  15.454 -0.7289 -1.4805 -1.3527
13473TIP3   OH261833   4.706   6.423  16.084 -0.2582  0.4142 -0.2743
13473TIP3    H161834   4.690   6.427  15.990 -2.7419 -0.8269  0.0608
13473TIP3    H261835   4.621   6.403  16.122  1.4322 -2.9430  1.9770
13474TIP3   OH261836   6.153   6.483  17.128  0.1648 -0.2104  0.2063
13474TIP3    H161837   6.211   6.534  17.185 -1.2521  0.4886  1.0398
13474TIP3    H261838   6.096   6.435  17.189  1.1510 -2.4500 -0.5591
13475TIP3   OH261839   0.691   0.037  16.992 -0.2391  0.0951 -0.4654
13475TIP3    H161840   0.596   0.026  16.995 -0.1289 -0.6511  0.8124
13475TIP3    H261841   0.724  -0.050  16.968  0.1731  0.0304  0.3181
13476TIP3   OH261842   6.484   2.050  15.380 -0.5110  0.2999  0.4938
13476TIP3    H161843   6.405   2.008  15.414 -0.3085  0.3345  1.0008
13476TIP3    H261844   6.510   2.112  15.448 -1.2740  1.8542 -0.5838
13477TIP3   OH261845   4.607   1.584   3.988 -0.1048 -0.2929  0.3744
13477TIP3    H161846   4.515   1.571   3.968 -0.1934 -0.9430  1.1958
13477TIP3    H261847   4.653   1.522   3.930 -0.2295 -0.4761  0.4701
13478TIP3   OH261848   2.446   3.402  13.402 -0.0210  0.0321 -0.1704
13478TIP3    H161849   2.491   3.486  13.414 -0.3998  0.4317 -1.4160
13478TIP3    H261850   2.357   3.418  13.432  0.5019 -0.6208  1.8324
13479TIP3   OH261851   5.987   0.933  17.064 -0.3497  0.1234  0.5421
13479TIP3    H161852   5.927   0.911  16.993 -0.4712  1.6520  0.1579
13479TIP3    H261853   6.072   0.904  17.034 -0.8723 -2.0489  1.0835
13480TIP3   OH261854   6.349   6.154  15.770 -0.3508  0.0016 -0.4136
13480TIP3    H161855   6.328   6.143  15.678  0.1440  0.4301 -0.5795
13480TIP3    H261856   6.387   6.070  15.796  2.7458  0.9883 -1.4934
13481TIP3   OH261857   4.743   0.374  11.710 -0.2856 -0.2397 -0.0102
13481TIP3    H161858   4.707   0.462  11.697  0.8139  0.2337  0.0503
13481TIP3    H261859   4.689   0.336  11.780  1.4609  1.7328  2.5427
13482TIP3   OH261860   6.332   2.841  16.660  0.3090  0.0708  0.3102
13482TIP3    H161861   6.307   2.848  16.752 -0.7246 -0.9765  0.1167
13482TIP3    H261862   6.407   2.782  16.660 -0.7268 -1.2655  0.3232
13483TIP3   OH261863   5.671   3.159  13.916  0.3496  0.7952 -0.4157
13483TIP3    H161864   5.639   3.248  13.936 -0.3419  0.3657  0.4217
13483TIP3    H261865   5.765   3.169  13.907  0.2436  1.6767 -0.6365
13484TIP3   OH261866   2.922   6.679  10.396  0.2366 -0.5180  0.0473
13484TIP3    H161867   2.959   6.667  10.484  0.9146  0.0906 -0.1528
13484TIP3    H261868   2.848   6.738  10.409  1.1796  0.6841  0.0158
13485TIP3   OH261869   0.623   0.919   1.120  0.1344 -0.0512  0.0971
13485TIP3    H161870   0.635   1.002   1.074  1.0064 -0.1005  0.2235
13485TIP3    H261871   0.646   0.852   1.056 -1.2670 -0.2384 -0.2344
13486TIP3   OH261872   5.358   0.860   3.969 -0.0019  0.5123  0.0066
13486TIP3    H161873   5.321   0.892   3.887 -0.8575  1.5292  0.7690
13486TIP3    H261874   5.301   0.788   3.996 -0.5405  1.0824  0.4046
13487TIP3   OH261875   3.161   3.719  11.327  0.5815  0.2202  1.0101
13487TIP3    H161876   3.080   3.762  11.301  1.1986  0.6687 -0.1776
13487TIP3    H261877   3.133   3.649  11.386 -0.9152 -1.3464 -1.5069
13488TIP3   OH261878   1.926   3.745   2.671  0.3711  0.5253  0.3771
13488TIP3    H161879   1.969   3.786   2.747 -0.3736  2.5881 -0.2992
13488TIP3    H261880   1.996   3.697   2.627  0.7967 -0.7797  2.4136
13489TIP3   OH261881   6.322   4.545   3.717 -0.1573  0.0979 -0.2837
13489TIP3    H161882   6.259   4.536   3.788  0.2326 -3.0690 -0.2730
13489TIP3    H261883   6.389   4.604   3.751 -1.4672  0.9454  0.8761
13490TIP3   OH261884   0.806   4.242   4.068 -0.2089  0.1983 -0.1237
13490TIP3    H161885   0.720   4.228   4.028 -0.4852  0.1660  0.4747
13490TIP3    H261886   0.862   4.176   4.028 -0.7178 -0.4703  0.2570
13491TIP3   OH261887   5.079   6.767  12.322 -0.8764  0.2776  0.0094
13491TIP3    H161888   4.989   6.784  12.349 -0.7739  0.2553  0.3597
13491TIP3    H261889   5.113   6.853  12.298 -1.7851 -0.0046 -2.5686
13492TIP3   OH261890   6.391   3.803  12.633 -0.3205 -0.3203 -0.2784
13492TIP3    H161891   6.438   3.885  12.618 -0.2789 -0.6760 -2.2065
13492TIP3    H261892   6.312   3.811  12.580  0.6995 -2.3999 -2.1463
13493TIP3   OH261893   4.025   0.369   0.215 -0.8304  0.7800 -0.6409
13493TIP3    H161894   4.015   0.317   0.136 -0.5013  0.5449 -0.5302
13493TIP3    H261895   3.994   0.312   0.285 -0.1577  0.6117 -0.4796
13494TIP3   OH261896   5.568   3.452   3.835  0.7293 -0.2396  0.0582
13494TIP3    H161897   5.530   3.390   3.898 -1.5935  1.6919  0.6371
13494TIP3    H261898   5.530   3.424   3.751 -0.7213  0.6593  0.3919
13495TIP3   OH261899   3.425   0.759  14.608  0.1807  0.7118  0.3398
13495TIP3    H161900   3.385   0.717  14.684 -0.5185  0.0828 -0.3712
13495TIP3    H261901   3.507   0.712  14.594  1.1407  1.9214  1.7219
13496TIP3   OH261902   4.730   4.639   1.096 -0.7578  0.2684 -0.0032
13496TIP3    H161903   4.791   4.674   1.030 -1.4211  0.7672 -0.3527
13496TIP3    H261904   4.681   4.571   1.049 -1.0199  0.4146  0.0589
13497TIP3   OH261905   2.465   0.284  15.807  0.1820  0.2336  0.5157
13497TIP3    H161906   2.416   0.273  15.725 -0.1819  0.3259  0.7179
13497TIP3    H261907   2.536   0.344  15.785  0.6099 -0.4340  0.0550
13498TIP3   OH261908   1.053   4.239  15.041 -0.3961 -0.2041  0.1336
13498TIP3    H161909   1.141   4.207  15.023 -0.8427 -1.6352  0.4173
13498TIP3    H261910   1.022   4.274  14.958  0.7005  0.9723  0.2066
13499TIP3   OH261911   4.067   0.226  11.481  0.2427 -0.2120 -0.2729
13499TIP3    H161912   3.976   0.256  11.485  0.4270  0.4820 -1.0021
13499TIP3    H261913   4.099   0.237  11.570  0.1561  1.3383 -0.4091
13500TIP3   OH261914   3.797   3.682   3.193 -0.1242 -0.0118 -0.3358
13500TIP3    H161915   3.783   3.587   3.194  1.5923 -0.2655  0.4018
13500TIP3    H261916   3.874   3.696   3.248 -0.2440  1.8023 -0.5917
13501TIP3   OH261917   5.363   6.705   4.950 -0.0489 -0.7238  0.3905
13501TIP3    H161918   5.299   6.772   4.927  0.2880 -0.9239 -1.1804
13501TIP3    H261919   5.404   6.737   5.030 -0.3676  0.6106  0.0250
13502TIP3   OH261920   3.907   5.941   4.473  0.0752 -0.2327 -0.4944
13502TIP3    H161921   3.826   5.970   4.431 -0.4687 -0.2742  0.5210
13502TIP3    H261922   3.883   5.926   4.564  1.2170 -0.2945 -0.1964
13503TIP3   OH261923   2.705   1.343  15.142  0.4597 -0.3946 -0.0117
13503TIP3    H161924   2.665   1.256  15.153  1.4500 -0.8577  0.0267
13503TIP3    H261925   2.695   1.385  15.228 -0.1901 -0.3935 -0.0838
13504TIP3   OH261926   4.588   3.618  11.220 -0.5272 -0.2312 -0.3998
13504TIP3    H161927   4.656   3.569  11.266  0.0052  1.1037  0.2652
13504TIP3    H261928   4.632   3.657  11.145 -0.6972  0.0967 -0.3308
13505TIP3   OH261929   3.211   4.307  13.331 -0.6269 -0.2626 -0.6002
13505TIP3    H161930   3.260   4.281  13.409  0.1359  1.3811 -0.5170
13505TIP3    H261931   3.144   4.368  13.364  0.3999  1.2999 -1.3607
13506TIP3   OH261932   2.995   1.987   3.439  0.5039 -0.2956  0.6350
13506TIP3    H161933   2.911   1.962   3.478 -0.4465  2.6500  0.5713
13506TIP3    H261934   2.991   1.950   3.350  0.3095 -2.1898  1.4012
13507TIP3   OH261935   2.634   3.211   5.748  0.3778 -0.0161  0.6513
13507TIP3    H161936   2.703   3.273   5.768  0.1669  0.4872 -0.1718
13507TIP3    H261937   2.567   3.262   5.704 -0.6862 -0.4284  1.7578
13508TIP3   OH261938   1.866   4.394  13.601 -0.4564 -0.0291 -0.2800
13508TIP3    H161939   1.784   4.414  13.646  0.0275 -0.0623  0.6343
13508TIP3    H261940   1.925   4.466  13.625  0.1581 -0.6389  0.0628
13509TIP3   OH261941   4.869   1.910   1.007  0.1016 -0.1320 -0.2201
13509TIP3    H161942   4.878   1.928   0.913  1.4137  0.0109 -0.0687
13509TIP3    H261943   4.925   1.834   1.022 -0.0824 -0.1303  0.4648
13510TIP3   OH261944   0.983   2.208   4.390 -0.1892  0.4891 -0.2599
13510TIP3    H161945   0.914   2.154   4.351  0.3980  0.2658 -1.0061
13510TIP3    H261946   1.064   2.176   4.350  0.2144  1.6038 -0.3480
13511TIP3   OH261947   0.234   0.033  11.480  0.0755 -0.1440 -0.7294
13511TIP3    H161948   0.227   0.042  11.575 -0.3929 -0.1352 -0.7640
13511TIP3    H261949   0.187  -0.047  11.459 -0.4638  0.2426 -1.0307
13512TIP3   OH261950   3.472   1.125   0.823 -0.1768 -0.2379 -0.4240
13512TIP3    H161951   3.554   1.174   0.835 -1.1113  1.0929  0.6044
13512TIP3    H261952   3.439   1.110   0.911  0.6465 -3.7489 -0.6470
13513TIP3   OH261953   5.554   2.976   2.248 -0.0143  1.2840  0.5430
13513TIP3    H161954   5.646   2.950   2.254 -0.2511  0.3303  0.1821
13513TIP3    H261955   5.543   3.011   2.160 -0.0858  1.0250  0.4476
13514TIP3   OH261956   5.229   4.566   1.839  0.0342  0.0214 -0.0481
13514TIP3    H161957   5.263   4.628   1.775  0.0128  0.3241  0.2273
13514TIP3    H261958   5.168   4.512   1.790 -0.1860  0.4267 -0.2277
13515TIP3   OH261959   4.217   6.592  13.817 -0.0423 -0.1833  0.3890
13515TIP3    H161960   4.296   6.647  13.815 -0.0341 -0.2081 -0.3074
13515TIP3    H261961   4.184   6.600  13.906 -0.3133  1.3463  0.1694
13516TIP3   OH261962   3.688   0.704   0.138 -0.0510  0.4284 -0.5157
13516TIP3    H161963   3.702   0.764   0.065 -1.1899  1.0288 -0.2529
13516TIP3    H261964   3.767   0.712   0.192 -0.2049  1.7184 -0.4673
13517TIP3   OH261965   1.115   6.487   5.597 -0.6075 -0.4429 -0.4607
13517TIP3    H161966   1.107   6.487   5.502 -1.5478 -3.0633 -0.4110
13517TIP3    H261967   1.193   6.435   5.614 -1.0966 -0.9366  0.2585
13518TIP3   OH261968   3.959   2.419   4.909  0.3255 -0.1250 -0.1305
13518TIP3    H161969   3.937   2.506   4.876 -0.4764  0.2740  1.4237
13518TIP3    H261970   4.046   2.401   4.875  0.8144  1.6052  0.2008
13519TIP3   OH261971   6.437   6.287  11.966 -0.1148 -0.1274 -0.0200
13519TIP3    H161972   6.405   6.197  11.975 -0.1594 -0.0839  0.2938
13519TIP3    H261973   6.454   6.298  11.873 -0.7233 -0.2527 -0.1452
13520TIP3   OH261974   5.619   6.414   5.209  0.2594  0.3578 -0.0058
13520TIP3    H161975   5.705   6.444   5.237 -0.6905  2.5247  0.7632
13520TIP3    H261976   5.598   6.342   5.267  1.5451 -0.1834 -0.1997
13521TIP3   OH261977   5.441   6.222  16.449  0.0490  0.4718 -0.4734
13521TIP3    H161978   5.353   6.238  16.482  0.8887  1.4232  1.3617
13521TIP3    H261979   5.490   6.301  16.471  1.8943 -0.8768  0.4431
13522TIP3   OH261980   4.212   5.137   0.115  0.1660 -0.2460  0.1545
13522TIP3    H161981   4.161   5.057   0.132 -0.4061  0.0736 -0.0595
13522TIP3    H261982   4.299   5.105   0.091  0.0294 -0.7993  0.3807
13523TIP3   OH261983   5.575   4.128   1.215  0.1422 -0.5189 -0.1890
13523TIP3    H161984   5.590   4.204   1.158  0.9686 -1.5599 -1.3971
13523TIP3    H261985   5.655   4.076   1.208 -0.1449 -1.1699  1.1521
13524TIP3   OH261986   2.514   6.092  13.493 -0.4577 -0.1941 -0.0562
13524TIP3    H161987   2.420   6.098  13.509 -0.3289 -1.7119  1.2934
13524TIP3    H261988   2.551   6.163  13.545 -0.8525  0.6315 -0.8598
13525TIP3   OH261989   0.718   4.603   3.238 -0.2324  0.1478 -0.1547
13525TIP3    H161990   0.735   4.695   3.259  0.1400 -0.4529  2.3819
13525TIP3    H261991   0.759   4.554   3.310  0.4748 -2.0605 -1.9922
13526TIP3   OH261992   2.904   5.253  10.525 -0.0072 -0.3753  0.2026
13526TIP3    H161993   2.971   5.204  10.478  0.2481 -0.7461  0.9377
13526TIP3    H261994   2.823   5.233  10.480  0.2631 -0.5688 -0.1956
13527TIP3   OH261995   3.623   3.454  14.545  0.5042  0.3296  0.0860
13527TIP3    H161996   3.696   3.503  14.583  0.4785 -0.0944  0.6913
13527TIP3    H261997   3.551   3.465  14.607  0.2582  0.1788 -0.1688
13528TIP3   OH261998   6.531   1.866   3.955  0.0461  0.0011 -0.1301
13528TIP3    H161999   6.596   1.798   3.938  0.9085  1.1031 -1.3270
13528TIP3    H262000   6.533   1.878   4.050  1.0795 -0.4781 -0.0882
13529TIP3   OH262001   1.180   6.472   3.721 -0.2560 -0.1316  0.1004
13529TIP3    H162002   1.153   6.397   3.668  1.4787 -0.8072  0.1479
13529TIP3    H262003   1.271   6.489   3.694 -0.7441  2.2003 -0.1962
13530TIP3   OH262004   6.441   1.242  16.568 -0.6192 -0.4940 -0.3063
13530TIP3    H162005   6.379   1.312  16.548  0.7958  0.8034 -0.2744
13530TIP3    H262006   6.484   1.223  16.484  1.5651  1.2451  0.3784
13531TIP3   OH262007   5.862   1.073   5.102 -0.3643 -0.0224  0.9060
13531TIP3    H162008   5.838   1.038   5.188 -0.7566 -0.1779  0.7345
13531TIP3    H262009   5.936   1.019   5.074 -0.9515 -0.7050  0.6533
13532TIP3   OH262010   3.544   2.851  10.716 -0.4222 -0.0517 -0.3151
13532TIP3    H162011   3.608   2.832  10.647 -0.1318  0.2628 -0.1331
13532TIP3    H262012   3.547   2.775  10.774  1.7971  1.1401  1.2321
13533TIP3   OH262013   5.829   2.993  15.029  0.0490 -0.1769  0.2648
13533TIP3    H162014   5.770   3.054  15.074 -0.1266  0.4787 -0.8301
13533TIP3    H262015   5.916   3.031  15.041 -0.0570  0.2756 -0.3890
13534TIP3   OH262016   1.737   2.988   4.066 -0.1326  0.2383 -0.3699
13534TIP3    H162017   1.656   2.988   4.015  0.7443  1.9881 -1.8205
13534TIP3    H262018   1.752   3.080   4.087  1.1220 -0.1452  0.4690
13535TIP3   OH262019   1.506   2.149   2.236  0.0276 -0.0151 -0.1553
13535TIP3    H162020   1.429   2.191   2.199  1.0897  0.2304 -2.1432
13535TIP3    H262021   1.481   2.057   2.246 -0.8561  0.2585  0.1740
13536TIP3   OH262022   3.085   1.240   4.782 -0.2447 -0.0822  0.1949
13536TIP3    H162023   3.034   1.271   4.857  0.9629 -0.3622  1.1513
13536TIP3    H262024   3.121   1.320   4.743  0.6890 -0.0542  1.0753
13537TIP3   OH262025   0.268   3.236  13.442  0.2880 -0.1760 -0.4119
13537TIP3    H162026   0.278   3.310  13.502  0.8381 -1.7838  1.5324
13537TIP3    H262027   0.180   3.203  13.459  0.4905 -0.7192 -0.4088
13538TIP3   OH262028   1.105   1.100  15.315  0.2378  0.0942 -0.4754
13538TIP3    H162029   1.102   1.080  15.222 -0.5948  0.4545 -0.5296
13538TIP3    H262030   1.014   1.096  15.344  0.5405 -0.5109  0.4301
13539TIP3   OH262031   2.741   5.066   0.533  0.2579  0.2719 -0.3698
13539TIP3    H162032   2.655   5.059   0.492  0.1395 -1.8253  0.1961
13539TIP3    H262033   2.765   4.976   0.554  2.9083  0.7695 -1.1555
13540TIP3   OH262034   3.182   0.055   1.129 -0.5012 -0.2967 -0.0001
13540TIP3    H162035   3.198   0.028   1.038 -0.6383  1.3686 -0.5415
13540TIP3    H262036   3.090   0.036   1.144 -0.9969  1.2966 -0.9013
13541TIP3   OH262037   0.822   3.556  12.222  0.0937  0.3363 -0.6767
13541TIP3    H162038   0.856   3.470  12.195  0.4792  0.0211  0.7848
13541TIP3    H262039   0.899   3.613  12.222  0.2905  0.0847  0.7522
13542TIP3   OH262040   1.172   6.083  13.581 -0.3423  0.3224 -0.4524
13542TIP3    H162041   1.234   6.011  13.595 -0.3079  0.8127  2.2120
13542TIP3    H262042   1.086   6.040  13.580 -0.2346  0.0952 -0.0948
13543TIP3   OH262043   5.651   2.357   5.178  0.3244  0.0207 -0.1903
13543TIP3    H162044   5.640   2.361   5.273 -0.6045 -0.9854 -0.2507
13543TIP3    H262045   5.658   2.449   5.151 -0.5310  0.3654  0.7172
13544TIP3   OH262046   2.261   4.404   1.431 -0.5386 -0.1886 -0.4116
13544TIP3    H162047   2.329   4.418   1.496 -0.4619  1.8128 -0.8834
13544TIP3    H262048   2.179   4.429   1.475 -0.5696  0.5067 -0.8593
13545TIP3   OH262049   0.979   3.402   5.491 -0.0745  0.3496  0.6874
13545TIP3    H162050   1.030   3.362   5.562 -0.7736  3.0101  2.7739
13545TIP3    H262051   1.030   3.478   5.464 -1.5250  1.3782  0.7938
13546TIP3   OH262052   3.579   5.553   5.568  0.1731 -0.2329 -0.5251
13546TIP3    H162053   3.530   5.633   5.549  0.0366  0.0950  1.1319
13546TIP3    H262054   3.571   5.542   5.663  1.6790 -1.2282 -0.4934
13547TIP3   OH262055   6.218   3.133   2.134  1.0535 -0.2162  0.0891
13547TIP3    H162056   6.306   3.163   2.156  0.5785  1.4016 -0.1820
13547TIP3    H262057   6.227   3.096   2.046  1.4450 -0.0092  0.0411
13548TIP3   OH262058   4.775   1.206  12.893  0.4460  0.4311  0.3138
13548TIP3    H162059   4.788   1.123  12.939 -1.9086 -1.1875 -1.7985
13548TIP3    H262060   4.803   1.188  12.803 -1.5034  1.4663 -0.5232
13549TIP3   OH262061   3.354   2.907   2.380  0.2229  0.4241 -0.5863
13549TIP3    H162062   3.298   2.982   2.399 -1.4554 -1.2330  1.2499
13549TIP3    H262063   3.304   2.857   2.316 -0.2073 -0.8127  0.6919
13550TIP3   OH262064   3.353   2.420   1.921  0.3061  0.3253  0.0324
13550TIP3    H162065   3.261   2.446   1.918  0.0879 -0.5638 -2.0521
13550TIP3    H262066   3.354   2.343   1.979  0.0994  1.6284  1.7949
13551TIP3   OH262067   1.841   5.509  14.036 -0.1646  0.3260 -0.5388
13551TIP3    H162068   1.798   5.568  13.974 -0.7235  1.0153  0.4807
13551TIP3    H262069   1.907   5.564  14.079  1.2780 -0.5402 -1.5900
13552TIP3   OH262070   2.130   1.711  12.243 -0.1807  0.0773  0.3866
13552TIP3    H162071   2.225   1.709  12.248 -0.2839 -1.6580  1.8486
13552TIP3    H262072   2.111   1.778  12.177  1.9955  1.4786  1.1550
13553TIP3   OH262073   2.675   0.338  15.018  0.1454 -0.0371 -0.3443
13553TIP3    H162074   2.744   0.385  15.064  1.7995 -4.3573  1.9343
13553TIP3    H262075   2.715   0.310  14.936 -0.4267  1.4102 -1.1252
13554TIP3   OH262076   0.719   0.023   0.500 -0.8880 -0.0301 -0.3429
13554TIP3    H162077   0.778  -0.052   0.506 -1.1287 -0.0978  1.5026
13554TIP3    H262078   0.706   0.051   0.591  1.3992  3.9509 -1.1154
13555TIP3   OH262079   5.713   3.514   5.388 -0.5584 -0.3832 -0.1605
13555TIP3    H162080   5.798   3.478   5.411 -0.2019 -0.9570 -2.2629
13555TIP3    H262081   5.678   3.547   5.470  0.9080 -1.7610  1.0480
13556TIP3   OH262082   2.056   2.700  14.817  0.4791 -0.3681 -0.5214
13556TIP3    H162083   1.969   2.700  14.856 -0.3417  1.9689 -2.2444
13556TIP3    H262084   2.075   2.608  14.801 -0.5304 -1.1236  2.2892
13557TIP3   OH262085   1.775   5.960  12.824 -0.3979  0.1642  0.0411
13557TIP3    H162086   1.772   5.881  12.878 -0.0246 -0.7176 -1.2181
13557TIP3    H262087   1.869   5.975  12.810 -0.4598  0.9238  0.3844
13558TIP3   OH262088   4.764   3.938   6.457  0.6174 -0.4582  0.3724
13558TIP3    H162089   4.762   3.853   6.414 -2.9953 -0.5786  0.5628
13558TIP3    H262090   4.812   3.995   6.396  0.2941 -1.8969 -1.2479
13559TIP3   OH262091   0.371   3.119   4.123  0.2383 -0.0481  0.0948
13559TIP3    H162092   0.412   3.032   4.127  0.8772  0.2057 -0.6855
13559TIP3    H262093   0.425   3.167   4.061 -0.6715  0.6168 -0.1873
13560TIP3   OH262094   4.110   1.911  13.070 -0.6349 -0.0536  0.0555
13560TIP3    H162095   4.131   1.987  13.124 -1.6688  1.0058 -0.9734
13560TIP3    H262096   4.112   1.837  13.130  0.2757  0.8033  1.1027
13561TIP3   OH262097   1.967   4.570   2.780 -0.0474  0.6278  0.3411
13561TIP3    H162098   1.890   4.536   2.734 -0.3207  0.1021  1.1686
13561TIP3    H262099   1.932   4.605   2.862  0.5693  0.5981  0.6214
13562TIP3   OH262100   3.481   5.974   5.290  0.9876 -0.3416 -0.3757
13562TIP3    H162101   3.412   6.028   5.252  0.2182 -2.9382 -2.9099
13562TIP3    H262102   3.558   6.030   5.293 -0.8377  2.1502  1.0975
13563TIP3   OH262103   5.299   5.167  16.896  0.6679  0.1061  0.0345
13563TIP3    H162104   5.290   5.240  16.958 -2.0184 -1.3330  1.4440
13563TIP3    H262105   5.365   5.110  16.936  0.9366  0.5176  0.1826
13564TIP3   OH262106   2.416   0.038   4.750  0.0176  0.1431 -0.4158
13564TIP3    H162107   2.327   0.064   4.772  0.3661  0.3737  0.7627
13564TIP3    H262108   2.434   0.082   4.667 -1.0631 -0.1475 -0.8148
13565TIP3   OH262109   1.348   3.305  13.095  0.1547  0.1175  0.5497
13565TIP3    H162110   1.328   3.306  13.001  1.5206  1.0548  0.2658
13565TIP3    H262111   1.262   3.303  13.137 -0.5265  1.9049 -0.6991
13566TIP3   OH262112   1.011   6.153   4.347  0.8492 -0.1718 -0.0094
13566TIP3    H162113   1.031   6.072   4.301 -0.2562  0.3941 -1.5126
13566TIP3    H262114   1.048   6.222   4.292  1.1330  0.4063  0.8817
13567TIP3   OH262115   5.273   0.202   0.204  0.2854 -0.2229 -0.1006
13567TIP3    H162116   5.287   0.118   0.161  0.9987 -0.0554 -0.2082
13567TIP3    H262117   5.241   0.180   0.291  0.9209 -0.6225  0.0365
13568TIP3   OH262118   5.286   3.520   1.469  0.8375  0.1177  0.1037
13568TIP3    H162119   5.326   3.459   1.531 -1.1871 -0.3161  1.0353
13568TIP3    H262120   5.309   3.607   1.502 -0.7467 -0.0954  1.8924
13569TIP3   OH262121   1.000   0.555   6.027  0.2915 -0.2051  0.0495
13569TIP3    H162122   1.035   0.483   6.079 -0.1906 -0.6445 -0.2303
13569TIP3    H262123   1.061   0.563   5.954  0.3211 -0.3641  0.0556
13570TIP3   OH262124   2.847   1.152   6.845 -0.3450  0.1750 -0.3068
13570TIP3    H162125   2.811   1.240   6.847  0.0306  0.2880  2.7663
13570TIP3    H262126   2.793   1.102   6.906  2.2783 -0.5779  1.4611
13571TIP3   OH262127   3.881   2.581   0.268 -0.3864  0.9286  0.2016
13571TIP3    H162128   3.853   2.666   0.300 -0.9136  0.9821 -0.3837
13571TIP3    H262129   3.885   2.525   0.345  1.3566  1.8501  0.8071
13572TIP3   OH262130   2.493   6.257  14.504  0.2998  0.6771  0.2123
13572TIP3    H162131   2.409   6.239  14.546  0.1377  0.3589 -0.2473
13572TIP3    H262132   2.537   6.317  14.564  1.4916 -2.3929  2.5317
13573TIP3   OH262133   3.949   3.717  13.397  0.4570 -0.3555 -0.1385
13573TIP3    H162134   3.976   3.638  13.445  1.1943 -0.2773 -0.4073
13573TIP3    H262135   4.032   3.761  13.376  0.0808  0.1636 -0.5438
13574TIP3   OH262136   6.696   0.899  10.931 -0.2304 -0.4747 -0.6147
13574TIP3    H162137   6.761   0.829  10.936  1.6057  1.1453 -1.4186
13574TIP3    H262138   6.622   0.859  10.884  0.4676 -2.1028 -0.3738
13575TIP3   OH262139   2.287   4.383  14.899  1.0310  0.4977  0.3826
13575TIP3    H162140   2.214   4.358  14.842 -0.0168 -0.3981  2.1100
13575TIP3    H262141   2.284   4.479  14.900  1.2983  0.5518 -1.3492
13576TIP3   OH262142   0.878   5.732   5.739  0.3968 -0.2831 -0.1480
13576TIP3    H162143   0.798   5.774   5.771 -0.0592 -0.2519 -1.2984
13576TIP3    H262144   0.913   5.794   5.675  0.2728 -1.1849 -1.1071
13577TIP3   OH262145   0.015   3.577  10.731  0.0840  0.2644  0.2656
13577TIP3    H162146  -0.072   3.536  10.730  0.6256 -0.8875 -0.8665
13577TIP3    H262147   0.025   3.615  10.644  0.6540  0.5489  0.4519
13578TIP3   OH262148   0.842   2.977   2.100  0.4615 -0.0006 -0.1943
13578TIP3    H162149   0.916   3.001   2.044 -0.1897  0.0587 -1.0485
13578TIP3    H262150   0.785   3.054   2.099  0.5394  0.0751  0.7231
13579TIP3   OH262151   2.832   2.009  14.923  0.3115 -0.2237  1.0624
13579TIP3    H162152   2.745   2.049  14.937  0.3875 -0.9047  3.6904
13579TIP3    H262153   2.836   1.937  14.986  0.8157 -3.4875 -2.5316
13580TIP3   OH262154   3.296   2.771  13.752  0.6236  0.4141  0.7888
13580TIP3    H162155   3.352   2.694  13.742 -1.3842 -0.9694  0.0370
13580TIP3    H262156   3.233   2.746  13.820 -2.6536 -0.1816 -2.3685
13581TIP3   OH262157   6.161   2.649   1.858  0.1103 -0.0585  0.0015
13581TIP3    H162158   6.252   2.680   1.857  0.5003 -1.1820 -1.2055
13581TIP3    H262159   6.167   2.558   1.830 -1.4049 -0.0999 -0.2159
13582TIP3   OH262160   4.971   1.225   2.985  0.8978  0.0854  0.0165
13582TIP3    H162161   5.016   1.152   2.942 -0.8323  0.1795 -2.0292
13582TIP3    H262162   4.928   1.185   3.060  2.5426 -0.3917  0.7436
13583TIP3   OH262163   0.874   4.843  14.393 -0.3908  0.5383 -0.6688
13583TIP3    H162164   0.852   4.935  14.377  0.0231  0.7547  0.0005
13583TIP3    H262165   0.800   4.810  14.444 -0.5171  0.5093 -0.8703
13584TIP3   OH262166   2.263   3.909   2.436 -0.2573 -0.1109 -0.1754
13584TIP3    H162167   2.253   4.000   2.407 -2.6824 -0.0876  0.5749
13584TIP3    H262168   2.300   3.863   2.361  0.1716  1.3342 -0.8642
13585TIP3   OH262169   0.207   6.338  14.118  0.0165 -0.0158  0.3191
13585TIP3    H162170   0.282   6.318  14.063  0.7380  0.6088  1.0582
13585TIP3    H262171   0.239   6.403  14.180 -1.9182  2.4752 -1.2020
13586TIP3   OH262172   3.925   6.612   1.670  0.0192 -0.1038 -0.7675
13586TIP3    H162173   3.985   6.671   1.624 -0.0107  0.1239 -0.5158
13586TIP3    H262174   3.866   6.670   1.718  0.0828 -0.3370 -0.3993
13587TIP3   OH262175   1.469   5.540   1.429 -0.0001  0.4462  0.1384
13587TIP3    H162176   1.475   5.466   1.370 -0.9949  0.0181  0.5554
13587TIP3    H262177   1.383   5.578   1.411  0.2372  1.1092  0.3785
13588TIP3   OH262178   0.697   1.863   3.403  0.0445 -0.5600 -0.7948
13588TIP3    H162179   0.778   1.815   3.386  0.3240 -0.2416 -0.3709
13588TIP3    H262180   0.631   1.819   3.349  0.8302  0.2291 -2.4095
13589TIP3   OH262181   0.089   3.363  13.189  0.2030 -0.2551  0.1262
13589TIP3    H162182   0.065   3.393  13.102 -2.6397  0.2089  1.0374
13589TIP3    H262183   0.118   3.272  13.177 -2.3908 -0.9599 -0.9938
13590TIP3   OH262184   4.033   0.640  16.573  0.0010 -0.6496  0.2362
13590TIP3    H162185   4.090   0.668  16.644  0.0003  1.2229 -0.4727
13590TIP3    H262186   4.093   0.610  16.504  0.1774  1.9324 -0.7620
13591TIP3   OH262187   3.008   0.336  15.082 -0.6355 -0.0544  0.6886
13591TIP3    H162188   2.995   0.243  15.067  0.9712 -0.4322  1.5537
13591TIP3    H262189   3.102   0.349  15.071 -0.7694  1.3631  1.1276
13592TIP3   OH262190   1.129   2.985  13.125  0.0324  0.5752  0.3286
13592TIP3    H162191   1.094   3.056  13.070  0.0878  0.2270 -0.1648
13592TIP3    H262192   1.143   2.913  13.064  1.3638  0.6138  0.5548
13593TIP3   OH262193   2.978   3.619   0.545  0.7651  0.2570  0.6519
13593TIP3    H162194   3.020   3.696   0.507 -0.0811  1.2757  1.7160
13593TIP3    H262195   2.891   3.618   0.505  0.7339 -0.0780  0.7273
13594TIP3   OH262196   3.555   4.696   3.651  0.0483 -0.6575  0.2024
13594TIP3    H162197   3.566   4.630   3.720 -0.2589  0.3540  1.2338
13594TIP3    H262198   3.461   4.696   3.633 -0.3552  1.4101  2.1436
13595TIP3   OH262199   3.593   4.523  15.838  0.0354  0.2347  0.2695
13595TIP3    H162200   3.673   4.484  15.873  1.3263  1.5199 -1.2128
13595TIP3    H262201   3.549   4.451  15.794  0.5146 -0.4070  0.8252
13596TIP3   OH262202   0.677   5.749  11.110 -0.1251  0.5368  0.1161
13596TIP3    H162203   0.615   5.795  11.166  0.2273 -2.4076  3.0844
13596TIP3    H262204   0.625   5.720  11.036 -2.1795 -1.0931  2.1080
13597TIP3   OH262205   2.579   4.386   5.565  0.5402 -0.2172  0.0326
13597TIP3    H162206   2.535   4.394   5.480 -1.8037 -1.7775  1.0341
13597TIP3    H262207   2.516   4.421   5.628  2.0667  0.5016  1.2001
13598TIP3   OH262208   3.282   1.045  14.781  0.4430  0.3957  0.0299
13598TIP3    H162209   3.232   0.979  14.828  0.0788 -1.4560 -2.8173
13598TIP3    H262210   3.373   1.017  14.789  0.3324 -0.2212 -0.7592
13599TIP3   OH262211   3.460   6.226   1.544  0.2556  0.6065 -0.4816
13599TIP3    H162212   3.437   6.223   1.451  0.9572 -1.3927 -0.6042
13599TIP3    H262213   3.480   6.136   1.567  3.5428  1.5862  0.7345
13600TIP3   OH262214   6.379   5.457   0.313 -0.7499  0.2363  0.4583
13600TIP3    H162215   6.435   5.411   0.251  1.0991  0.1486  2.1477
13600TIP3    H262216   6.356   5.539   0.268  0.4461  0.1084 -0.4091
13601TIP3   OH262217   6.271   0.974   1.330 -0.3050  0.2551 -0.3080
13601TIP3    H162218   6.229   0.900   1.286  0.0966  0.5816 -1.2571
13601TIP3    H262219   6.365   0.954   1.327 -0.2988  0.0504  0.8414
13602TIP3   OH262220   1.038   4.435  15.359  0.5682 -0.4598  0.2503
13602TIP3    H162221   1.096   4.511  15.357  0.5791 -0.4923 -3.3304
13602TIP3    H262222   1.093   4.362  15.387  1.8886 -0.1814 -1.5931
13603TIP3   OH262223   5.614   4.161   4.833  0.3189 -0.2961 -0.0606
13603TIP3    H162224   5.560   4.199   4.764 -0.1886 -2.0910 -0.6542
13603TIP3    H262225   5.670   4.234   4.861 -1.8947  1.3891  0.0996
13604TIP3   OH262226   0.400   4.606  13.719  0.5836 -0.0629 -0.7121
13604TIP3    H162227   0.405   4.685  13.665 -0.1343  0.5033  0.0375
13604TIP3    H262228   0.327   4.622  13.779 -0.2737 -1.7472 -1.2729
13605TIP3   OH262229   2.582   2.142  14.496 -1.0528  0.0536 -0.6951
13605TIP3    H162230   2.668   2.181  14.511  0.5374 -2.9177 -1.6305
13605TIP3    H262231   2.546   2.128  14.583  0.5823 -1.1403 -0.1883
13606TIP3   OH262232   2.080   1.550  13.678 -0.0465 -0.0028 -0.4314
13606TIP3    H162233   2.048   1.463  13.655  0.3074  0.3345 -2.2728
13606TIP3    H262234   2.128   1.538  13.760  1.0042 -1.7447 -1.2906
13607TIP3   OH262235   4.678   6.529  16.944 -0.2490  0.3293  0.1783
13607TIP3    H162236   4.589   6.517  16.977 -1.0521  1.2637 -1.5772
13607TIP3    H262237   4.682   6.622  16.922  0.8388  0.0840 -0.6769
13608TIP3   OH262238   1.299   5.201  11.531 -0.4737  0.5640  0.5858
13608TIP3    H162239   1.308   5.135  11.462 -2.4750 -0.5049  1.3287
13608TIP3    H262240   1.294   5.284  11.484  1.4328  0.1644 -0.3857
13609TIP3   OH262241   1.878   3.712  10.994 -0.2409 -0.0056 -0.4916
13609TIP3    H162242   1.857   3.626  10.957 -1.3565  0.6742 -1.4856
13609TIP3    H262243   1.973   3.716  10.993 -0.1887 -1.0863 -0.7888
13610TIP3   OH262244   5.499   2.553   2.263  0.8405 -0.1388 -0.2923
13610TIP3    H162245   5.501   2.590   2.175  0.9424  0.2255 -0.1385
13610TIP3    H262246   5.439   2.479   2.256  0.6958  0.0067 -0.6224
13611TIP3   OH262247   3.453   1.829   3.219  0.4732 -0.5195 -0.0599
13611TIP3    H162248   3.368   1.872   3.226  0.2914 -0.7046 -1.0310
13611TIP3    H262249   3.449   1.759   3.284  0.6452  0.7052  1.2941
13612TIP3   OH262250   2.909   5.056   2.039 -0.1331 -0.2773  0.4850
13612TIP3    H162251   2.907   4.965   2.068  2.1393 -0.1518  1.1590
13612TIP3    H262252   2.926   5.106   2.120  0.4146  0.5738 -0.1424
13613TIP3   OH262253   1.761   5.004   2.148  0.1246  0.2991  0.0606
13613TIP3    H162254   1.780   5.051   2.066  0.2050  0.2503  0.0509
13613TIP3    H262255   1.843   5.011   2.198  0.5225 -0.8347 -0.4244
13614TIP3   OH262256   6.671   2.417   0.446 -0.0996  0.8461  0.4402
13614TIP3    H162257   6.716   2.437   0.528 -1.0148 -2.5582  1.8664
13614TIP3    H262258   6.725   2.349   0.406 -2.3439 -1.1440  0.7248
13615TIP3   OH262259   4.579   5.911  11.154  0.0539  0.2927 -0.3917
13615TIP3    H162260   4.573   5.817  11.165 -0.7135  0.2704 -0.9406
13615TIP3    H262261   4.562   5.925  11.060  2.0988  0.8107 -0.7197
13616TIP3   OH262262   2.978   2.050   5.028  0.2146 -0.5849  0.0597
13616TIP3    H162263   2.940   2.115   4.969 -1.2252  0.3107  1.9341
13616TIP3    H262264   3.048   2.097   5.073  0.8991 -1.0987 -0.4396
13617TIP3   OH262265   1.492   4.753   3.645 -0.0531  0.3259 -0.0853
13617TIP3    H162266   1.424   4.769   3.579 -0.7077 -0.0282  0.4927
13617TIP3    H262267   1.469   4.810   3.718 -0.2331 -0.4470  0.4646
13618TIP3   OH262268   2.737   6.264   1.316 -0.3206  0.0651 -0.5539
13618TIP3    H162269   2.787   6.238   1.394  0.4570 -1.0434 -1.4080
13618TIP3    H262270   2.685   6.339   1.345  0.0652 -0.2478  0.9963
13619TIP3   OH262271   0.134   5.538  17.074 -0.2559  0.2125 -0.4447
13619TIP3    H162272   0.147   5.622  17.030  0.9868 -0.0590 -0.6222
13619TIP3    H262273   0.218   5.493  17.063  0.3763  0.4614  2.9356
13620TIP3   OH262274   0.239   3.260   1.226 -0.1857  0.5536  0.3013
13620TIP3    H162275   0.244   3.345   1.269  0.7401  0.3408  0.6417
13620TIP3    H262276   0.240   3.280   1.132 -2.1183  1.0114  0.3751
13621TIP3   OH262277   3.670   0.722  16.191 -0.2035  0.1027 -0.3644
13621TIP3    H162278   3.692   0.796  16.246  1.2709 -0.6871  0.1399
13621TIP3    H262279   3.749   0.705  16.140 -0.2755 -1.5569  0.0418
13622TIP3   OH262280   5.127   1.721  16.796 -0.1443  0.7094  0.8262
13622TIP3    H162281   5.177   1.641  16.783  1.6555  1.9445 -0.0376
13622TIP3    H262282   5.060   1.719  16.727 -0.7716 -0.5225  1.4451
13623TIP3   OH262283   6.590   3.951  12.261  0.2657  0.5210 -0.6572
13623TIP3    H162284   6.499   3.954  12.232  0.1757  0.5972 -0.3736
13623TIP3    H262285   6.612   4.042  12.281  1.4064  0.9810 -3.7320
13624TIP3   OH262286   1.236   1.114   4.450 -0.3633  1.2034  0.8220
13624TIP3    H162287   1.198   1.031   4.478  2.0799 -0.1496  0.2799
13624TIP3    H262288   1.164   1.161   4.409 -2.3862  0.4194  3.3307
13625TIP3   OH262289   1.530   2.476  14.380 -0.3082  0.0237 -0.0507
13625TIP3    H162290   1.495   2.528  14.452  0.6678  1.1171 -0.3545
13625TIP3    H262291   1.467   2.486  14.309 -0.4719  0.2174  0.1250
13626TIP3   OH262292   3.175   5.731   5.442 -0.5313  0.2323 -0.0687
13626TIP3    H162293   3.271   5.732   5.448 -0.5163 -0.1599 -0.2035
13626TIP3    H262294   3.157   5.714   5.350 -0.7155 -1.4933  0.2565
13627TIP3   OH262295   5.362   6.150   5.054 -0.8612  0.5428 -0.5051
13627TIP3    H162296   5.296   6.097   5.009 -1.7343  0.5399  0.7404
13627TIP3    H262297   5.324   6.238   5.056 -1.3186  0.3274  1.1350
13628TIP3   OH262298   4.688   3.897   1.344  0.8242 -0.5776  0.0779
13628TIP3    H162299   4.664   3.979   1.302 -0.9338  0.0965  2.2769
13628TIP3    H262300   4.638   3.830   1.297  0.3787 -0.0796 -0.1542
13629TIP3   OH262301   2.892   1.147  11.893 -0.4462  0.0499  0.0488
13629TIP3    H162302   2.834   1.154  11.817 -0.0829 -0.2891 -0.2606
13629TIP3    H262303   2.877   1.057  11.925  2.0695 -1.0668 -1.7859
13630TIP3   OH262304   2.828   0.336   3.025  0.0338  0.2530  0.3229
13630TIP3    H162305   2.882   0.291   3.090  1.3665  2.2934  0.6474
13630TIP3    H262306   2.785   0.406   3.074 -1.7583 -0.4174 -0.2540
13631TIP3   OH262307   2.981   0.433   5.121 -0.5915 -0.1051  1.2337
13631TIP3    H162308   3.069   0.397   5.127 -0.0606  1.4509  3.5986
13631TIP3    H262309   2.973   0.464   5.031  1.5094  0.3371  1.1860
13632TIP3   OH262310   0.286   5.559  13.877 -0.3249 -0.1011 -0.5055
13632TIP3    H162311   0.356   5.507  13.916 -2.8348 -2.6073  0.8363
13632TIP3    H262312   0.255   5.615  13.948  0.8257  1.6364 -1.3286
13633TIP3   OH262313   2.948   0.688  14.278 -0.1405  0.7733  0.8046
13633TIP3    H162314   3.035   0.715  14.309  0.6789 -0.6223 -0.2276
13633TIP3    H262315   2.907   0.647  14.353  0.6061  0.2600  0.9380
13634TIP3   OH262316   1.825   0.589   3.120  0.0834 -0.3059 -0.2768
13634TIP3    H162317   1.876   0.510   3.100 -0.6636 -1.3305  1.7489
13634TIP3    H262318   1.737   0.570   3.088 -0.5343 -1.0187  1.7911
13635TIP3   OH262319   2.895   5.782   2.234  0.3312  0.3470  0.3743
13635TIP3    H162320   2.861   5.776   2.144  0.6584  0.7245  0.2212
13635TIP3    H262321   2.987   5.809   2.223  0.4600  0.0904  0.8109
13636TIP3   OH262322   4.965   4.867   2.256  0.6260 -0.3355  0.2844
13636TIP3    H162323   4.884   4.890   2.211  0.1501  0.7811  1.6661
13636TIP3    H262324   5.034   4.905   2.202  0.0290  1.4134  0.6937
13637TIP3   OH262325   0.146   4.585  11.473  0.5929 -0.1779 -0.0274
13637TIP3    H162326   0.088   4.529  11.525 -1.9968  1.1122 -1.3969
13637TIP3    H262327   0.120   4.567  11.382  4.0569 -1.3603 -0.8517
13638TIP3   OH262328   5.929   0.259   3.071 -0.1246 -0.2229  0.2377
13638TIP3    H162329   5.918   0.170   3.105 -0.5475 -0.6344 -0.9527
13638TIP3    H262330   5.990   0.300   3.132 -0.7359 -0.9961  1.4048
13639TIP3   OH262331   1.869   1.803  15.262  0.3240 -0.0756 -0.3152
13639TIP3    H162332   1.902   1.858  15.334 -0.8368  0.4869 -0.1961
13639TIP3    H262333   1.805   1.745  15.304 -0.5699  0.4550 -0.9391
13640TIP3   OH262334   2.161   6.186   4.746  0.5491  0.1898  0.0220
13640TIP3    H162335   2.184   6.277   4.727  1.0623  0.1946  0.6529
13640TIP3    H262336   2.149   6.183   4.841  1.1641 -0.5379  0.0801
13641TIP3   OH262337   1.529   2.928   2.102  0.5519  0.3007  0.3339
13641TIP3    H162338   1.505   2.931   2.010 -0.4371  0.4033  0.5938
13641TIP3    H262339   1.578   2.846   2.112  1.9682  0.9971 -0.5845
13642TIP3   OH262340   4.824   4.692   1.892 -0.4109  0.3045 -0.0747
13642TIP3    H162341   4.755   4.627   1.904 -0.5316  0.3684 -0.4478
13642TIP3    H262342   4.833   4.702   1.797  0.4653 -0.0927 -0.0470
13643TIP3   OH262343   5.645   6.063  14.953  0.4463 -0.6838  0.0755
13643TIP3    H162344   5.628   6.051  14.859  1.9790 -1.2586 -0.1372
13643TIP3    H262345   5.567   6.027  14.996 -0.1023 -0.7578 -0.9591
13644TIP3   OH262346   3.575   0.911  13.388 -0.1013 -0.4471 -0.3276
13644TIP3    H162347   3.562   0.994  13.342 -1.0241  1.0131  2.4321
13644TIP3    H262348   3.668   0.910  13.410 -0.0318 -0.2633 -0.6106
13645TIP3   OH262349   6.185   0.480   2.106 -0.0266 -0.2759 -0.1619
13645TIP3    H162350   6.197   0.461   2.013 -1.6086 -0.0055 -0.4294
13645TIP3    H262351   6.110   0.426   2.132  1.7972 -2.1080  1.5186
13646TIP3   OH262352   5.997   4.083  13.027 -0.3848 -0.3170  0.0663
13646TIP3    H162353   5.972   4.035  13.106  2.4738 -0.6505  0.8326
13646TIP3    H262354   6.040   4.162  13.060 -0.8474  0.4505 -1.1677
13647TIP3   OH262355   4.270   0.439  14.102  0.4750  0.7912 -0.0050
13647TIP3    H162356   4.206   0.381  14.142  1.1355 -0.3782 -0.6122
13647TIP3    H262357   4.353   0.418  14.145  0.8165  0.9224 -0.5923
13648TIP3   OH262358   4.677   5.684  15.756 -0.0742  0.0926 -0.6718
13648TIP3    H162359   4.756   5.634  15.739 -0.2808 -0.3455 -0.3436
13648TIP3    H262360   4.699   5.773  15.729  0.8136  0.1496  0.2133
13649TIP3   OH262361   2.124   6.083  15.056  0.1529 -0.2254  0.6693
13649TIP3    H162362   2.030   6.069  15.044  0.1203 -1.5099  2.1226
13649TIP3    H262363   2.130   6.159  15.113  0.0352  0.4983 -0.2763
13650TIP3   OH262364   5.493   5.473   1.621 -0.2870 -0.0481  0.1997
13650TIP3    H162365   5.450   5.539   1.566  0.8804  0.5073 -0.0669
13650TIP3    H262366   5.517   5.521   1.700 -0.0115 -0.3184  0.2794
13651TIP3   OH262367   0.627   5.497   2.586  0.2517  0.7274  0.0559
13651TIP3    H162368   0.570   5.420   2.587 -0.5476  1.3023 -0.4996
13651TIP3    H262369   0.690   5.479   2.516  0.0815  0.5662 -0.0567
13652TIP3   OH262370   4.603   5.536   4.501  0.2299 -0.3752  1.3438
13652TIP3    H162371   4.658   5.558   4.576 -0.2078 -1.8210  2.1052
13652TIP3    H262372   4.516   5.567   4.525  0.4267  0.6886  0.7085
13653TIP3   OH262373   0.679   3.222  11.202  0.1056 -0.1883 -0.2355
13653TIP3    H162374   0.667   3.259  11.114 -3.1116 -1.1789 -0.2992
13653TIP3    H262375   0.597   3.243  11.247  1.1129 -1.0533  2.0202
13654TIP3   OH262376   5.088   1.399   2.018 -0.1303 -0.2609 -0.6787
13654TIP3    H162377   5.173   1.355   2.025 -0.7175 -1.3474 -0.1252
13654TIP3    H262378   5.086   1.434   1.929  1.4593  0.9858 -0.2542
13655TIP3   OH262379   6.305   6.668   3.695 -0.1937  0.3524 -0.4347
13655TIP3    H162380   6.301   6.741   3.756 -0.5239 -0.8128  0.9791
13655TIP3    H262381   6.247   6.602   3.733  3.1351 -2.2059  0.4867
13656TIP3   OH262382   1.931   0.097   2.388  0.7227  0.6113 -0.2038
13656TIP3    H162383   2.012   0.048   2.405  1.0003  1.3302  0.6154
13656TIP3    H262384   1.915   0.085   2.295 -0.3078 -2.6708  0.3246
13657TIP3   OH262385   1.715   3.683  14.545 -0.3162  0.4007  0.0082
13657TIP3    H162386   1.782   3.615  14.537 -0.2655  0.2760  1.3704
13657TIP3    H262387   1.742   3.751  14.484 -0.1234 -0.6017 -1.0439
13658TIP3   OH262388   4.197   3.139   4.143 -0.6195 -0.2367  0.0452
13658TIP3    H162389   4.104   3.122   4.131 -0.1776 -2.3481 -0.6919
13658TIP3    H262390   4.227   3.068   4.199  1.4361 -2.3456 -3.5661
13659TIP3   OH262391   2.710   3.043   2.319  0.1246  0.3892  0.1741
13659TIP3    H162392   2.773   2.976   2.292  1.9168  2.3178 -0.6235
13659TIP3    H262393   2.743   3.123   2.278 -2.2785  1.6468  0.6532
13660TIP3   OH262394   3.377   2.165   2.079 -0.1719  0.0944  0.3293
13660TIP3    H162395   3.322   2.088   2.061 -1.0091  0.5053  1.0996
13660TIP3    H262396   3.465   2.129   2.093 -0.4950 -0.6950  0.3485
13661TIP3   OH262397   6.309   2.804  15.849  0.4478 -0.1955 -0.3236
13661TIP3    H162398   6.390   2.810  15.899 -0.0027  0.4050  0.3322
13661TIP3    H262399   6.338   2.804  15.757  1.4376 -3.9293 -0.0778
13662TIP3   OH262400   4.118   1.336   0.068  0.0670  0.3200 -0.2516
13662TIP3    H162401   4.084   1.334  -0.021 -1.2116  0.4732  0.2299
13662TIP3    H262402   4.091   1.422   0.102 -0.6544 -0.2998  0.7513
13663TIP3   OH262403   4.105   2.459  14.698 -0.4502  0.4204 -0.3274
13663TIP3    H162404   4.178   2.492  14.646 -1.8921  1.7649 -1.5530
13663TIP3    H262405   4.107   2.364  14.685  1.4159  0.3702  0.1419
13664TIP3   OH262406   3.581   4.819  14.151  0.1376 -0.1588  0.2419
13664TIP3    H162407   3.505   4.797  14.204 -0.4761 -0.4651 -0.7554
13664TIP3    H262408   3.563   4.907  14.118 -0.5807 -0.9157 -1.3999
13665TIP3   OH262409   5.161   6.547   4.389  0.5396 -0.1851  0.3185
13665TIP3    H162410   5.107   6.509   4.320 -0.0229  2.1671 -0.5801
13665TIP3    H262411   5.250   6.517   4.369  0.3271  0.1602 -1.2156
13666TIP3   OH262412   4.243   6.322  16.022  0.2083 -0.2638  0.1839
13666TIP3    H162413   4.326   6.350  15.983 -0.4207  0.1546 -0.8616
13666TIP3    H262414   4.266   6.242  16.069  1.6737  1.0688  1.8262
13667TIP3   OH262415   6.031   6.266  12.392 -0.0307 -0.3729  0.1741
13667TIP3    H162416   6.076   6.220  12.321  0.9466  1.7193 -0.6113
13667TIP3    H262417   6.024   6.357  12.360 -1.8675  0.0410  1.6781
13668TIP3   OH262418   4.398   5.665  13.381 -0.6092 -0.4424  0.0153
13668TIP3    H162419   4.355   5.747  13.404 -3.1621 -2.1852  1.8610
13668TIP3    H262420   4.472   5.690  13.327  0.0535  3.2248  2.4763
13669TIP3   OH262421   2.485   1.594  11.859 -0.2973  0.0630  0.2802
13669TIP3    H162422   2.452   1.672  11.815  0.3643  0.0051 -0.3211
13669TIP3    H262423   2.530   1.628  11.937  0.2753  0.3072 -0.1539
13670TIP3   OH262424   6.390   6.608   4.462 -0.1391 -0.0738  0.2256
13670TIP3    H162425   6.415   6.518   4.440  0.2876  1.0184 -4.1718
13670TIP3    H262426   6.295   6.606   4.468 -0.0121 -1.2065  2.2437
13671TIP3   OH262427   1.562   6.257  11.278  0.3844  0.0652 -0.0729
13671TIP3    H162428   1.472   6.264  11.247 -0.2420  0.7068  1.8017
13671TIP3    H262429   1.593   6.347  11.281  0.5607 -0.0188  0.7537
13672TIP3   OH262430   1.157   2.979   3.428  0.6371 -0.4491  0.3652
13672TIP3    H162431   1.195   3.015   3.348  1.5918  0.9661  1.4361
13672TIP3    H262432   1.221   2.915   3.459 -0.4003 -2.0715 -0.7604
13673TIP3   OH262433   2.386   4.688  12.219  0.4361 -0.0320 -0.1441
13673TIP3    H162434   2.302   4.674  12.174 -0.2597  0.1459  1.0591
13673TIP3    H262435   2.452   4.670  12.153 -0.5565 -0.2837 -1.0882
13674TIP3   OH262436   5.807   5.606   4.678  0.1773 -0.1727  0.0761
13674TIP3    H162437   5.792   5.698   4.696 -0.0881 -0.2466  0.2382
13674TIP3    H262438   5.817   5.601   4.583  0.0034 -0.0019  0.0492
13675TIP3   OH262439   3.416   3.235   5.788  0.3420 -0.6260 -0.3006
13675TIP3    H162440   3.390   3.319   5.825 -0.8947 -0.3038 -1.8721
13675TIP3    H262441   3.492   3.208   5.840  0.9716  1.6237 -0.0274
13676TIP3   OH262442   6.467   4.806   2.892 -0.6780  0.2231  0.0013
13676TIP3    H162443   6.387   4.768   2.855  0.0996 -2.1849  0.7560
13676TIP3    H262444   6.439   4.842   2.977 -1.3965  1.3369 -0.6868
13677TIP3   OH262445   4.300   1.976   1.597 -0.0738  0.5040  0.6253
13677TIP3    H162446   4.387   2.011   1.578 -0.5926  1.4013 -0.1269
13677TIP3    H262447   4.241   2.030   1.545 -1.0303 -0.4721  0.6884
13678TIP3   OH262448   5.719   4.916  10.973 -0.0702  0.0569  0.4493
13678TIP3    H162449   5.648   4.980  10.972  0.1594  0.3230  0.9305
13678TIP3    H262450   5.799   4.969  10.970  0.1222 -0.2752 -2.9036
13679TIP3   OH262451   3.817   1.501   2.655 -0.5530 -0.5145  0.3352
13679TIP3    H162452   3.734   1.536   2.689 -1.2864 -1.2310 -0.6668
13679TIP3    H262453   3.792   1.420   2.611  0.5271 -0.1834 -0.9233
13680TIP3   OH262454   1.517   4.879   2.053  0.7561 -0.4322  0.1565
13680TIP3    H162455   1.448   4.876   2.120  0.4359  0.0495 -0.1440
13680TIP3    H262456   1.595   4.908   2.100  0.6539 -0.5753  0.4171
13681TIP3   OH262457   6.664   6.136  11.463 -0.6551  0.4339  0.2572
13681TIP3    H162458   6.756   6.148  11.440 -0.0221 -0.7209  2.0658
13681TIP3    H262459   6.659   6.046  11.494 -3.1108 -0.6503 -3.0094
13682TIP3   OH262460   3.910   4.816   3.261  0.0242 -0.2554  0.1205
13682TIP3    H162461   3.829   4.820   3.313 -0.9643 -0.8484 -1.3451
13682TIP3    H262462   3.882   4.786   3.175  1.7333  0.1670 -0.6041
13683TIP3   OH262463   5.837   1.577   3.459  0.2477  0.1049 -0.1609
13683TIP3    H162464   5.866   1.664   3.487 -0.9178  0.3360  0.3567
13683TIP3    H262465   5.855   1.520   3.534  0.0925  0.1021 -0.1242
13684TIP3   OH262466   0.028   5.277   4.008  0.3333  0.2697  0.7464
13684TIP3    H162467   0.073   5.202   4.047 -1.5895 -1.2289  0.1527
13684TIP3    H262468   0.091   5.312   3.945  0.1438 -2.7663 -1.2342
13685TIP3   OH262469   1.913   1.138   2.708 -0.1927  0.3902  0.4795
13685TIP3    H162470   1.946   1.214   2.660  0.9210 -1.5258 -1.9499
13685TIP3    H262471   1.850   1.173   2.770 -0.3621  3.1913 -1.2029
13686TIP3   OH262472   2.641   6.730  10.620  0.1791 -0.0263  0.3209
13686TIP3    H162473   2.676   6.645  10.647 -0.1717  0.3569  2.0242
13686TIP3    H262474   2.674   6.792  10.685 -1.0709  0.8396  0.1581
13687TIP3   OH262475   5.598   0.733  15.536  0.4132  0.2898 -0.0866
13687TIP3    H162476   5.670   0.795  15.524  0.0095  0.5184 -1.4521
13687TIP3    H262477   5.631   0.651  15.499  0.0802  0.3203 -0.4567
13688TIP3   OH262478   1.068   3.000  15.033 -0.7538  0.1600 -0.4969
13688TIP3    H162479   1.057   2.930  15.097  0.1513  0.6111  0.1682
13688TIP3    H262480   1.082   2.955  14.950  0.7147 -0.4654  0.0755
13689TIP3   OH262481   3.817   2.179   0.713 -0.2481 -0.0759  0.0157
13689TIP3    H162482   3.766   2.184   0.632  1.5621  0.5001 -1.1106
13689TIP3    H262483   3.850   2.089   0.714 -0.2594 -0.0789  0.1196
13690TIP3   OH262484   0.137   2.721  13.980 -0.3498  0.7299  0.1951
13690TIP3    H162485   0.099   2.651  13.926 -1.5594  0.2789  1.5862
13690TIP3    H262486   0.173   2.675  14.057  0.5964  1.4442  0.1851
13691TIP3   OH262487   2.725   0.946   5.272 -0.6198 -0.2093 -0.4121
13691TIP3    H162488   2.753   1.029   5.310 -0.8570 -1.0564  1.6744
13691TIP3    H262489   2.705   0.967   5.180 -0.3077  1.9430 -0.0094
13692TIP3   OH262490   0.319   5.483   0.447  0.4997 -0.5044 -0.1297
13692TIP3    H162491   0.286   5.395   0.463 -0.1344 -0.4604 -1.1630
13692TIP3    H262492   0.412   5.477   0.469  0.6762 -1.6939 -1.1227
13693TIP3   OH262493   3.981   5.858   3.833  0.0488 -0.0244  0.0844
13693TIP3    H162494   4.001   5.893   3.746 -1.3238  0.6743  0.0333
13693TIP3    H262495   3.891   5.886   3.850  0.1139 -0.6290  1.5017
13694TIP3   OH262496   4.652   0.455   0.119  0.0271  0.1662  0.0017
13694TIP3    H162497   4.595   0.513   0.169  0.8051  1.4481 -0.5804
13694TIP3    H262498   4.646   0.371   0.164 -0.8596  0.7817  1.0521
13695TIP3   OH262499   4.527   2.631   5.211 -0.3726  0.0437 -0.7095
13695TIP3    H162500   4.507   2.570   5.141 -0.8185 -0.5653 -0.0569
13695TIP3    H262501   4.445   2.640   5.259  0.0131  0.2137 -0.0753
13696TIP3   OH262502   6.726   1.921   1.202  0.1937 -0.1406 -0.2950
13696TIP3    H162503   6.695   1.848   1.256 -0.2490 -0.9344 -1.5959
13696TIP3    H262504   6.646   1.964   1.172  0.4414  0.4119 -0.1598
13697TIP3   OH262505   2.363   4.510  16.779 -0.3733 -0.2895  0.3766
13697TIP3    H162506   2.386   4.535  16.869 -0.5176 -0.3112  0.4190
13697TIP3    H262507   2.414   4.431  16.763  0.6873  0.4646 -0.0317
13698TIP3   OH262508   6.024   4.581  11.385  0.4283  0.1437 -0.2978
13698TIP3    H162509   6.092   4.609  11.324 -0.6655  0.6065 -1.3341
13698TIP3    H262510   6.020   4.650  11.451  0.3895  0.5354 -0.7067
13699TIP3   OH262511   1.381   2.439  16.218 -0.2104  0.4501  0.2955
13699TIP3    H162512   1.360   2.532  16.214  0.9496  0.6362 -3.1527
13699TIP3    H262513   1.318   2.398  16.159  0.3263 -0.7501  0.5387
13700TIP3   OH262514   2.828   2.298   1.923 -0.6101 -0.5452  0.8416
13700TIP3    H162515   2.857   2.246   1.998 -0.1316 -0.9239  0.3999
13700TIP3    H262516   2.860   2.250   1.847  1.5449  1.3885  0.4655
13701TIP3   OH262517   0.679   0.938  11.656  0.3513  0.2974 -0.1129
13701TIP3    H162518   0.719   1.019  11.625  0.7511  0.7145  1.4554
13701TIP3    H262519   0.622   0.910  11.585  0.4122  1.8206 -0.7604
13702TIP3   OH262520   4.340   0.502   3.808 -0.4844  0.0819  0.2839
13702TIP3    H162521   4.298   0.585   3.784 -0.9466 -0.1831  0.1841
13702TIP3    H262522   4.299   0.437   3.751  0.0034 -0.1900  0.2418
13703TIP3   OH262523   4.918   2.083  12.708  0.3035  0.6292 -0.1544
13703TIP3    H162524   4.896   2.019  12.641 -0.0229 -0.2423  0.7781
13703TIP3    H262525   4.839   2.137  12.717  0.3882  0.8185 -0.5499
13704TIP3   OH262526   0.836   0.126  15.952  0.0015  0.2127 -0.2850
13704TIP3    H162527   0.767   0.083  15.901 -0.1824 -0.3074  0.3943
13704TIP3    H262528   0.902   0.150  15.888 -0.2831 -0.3286 -0.7832
13705TIP3   OH262529   3.339   6.530  15.275 -0.7269  0.2570 -0.0103
13705TIP3    H162530   3.317   6.465  15.209 -0.2117 -0.0050  0.0694
13705TIP3    H262531   3.410   6.489  15.326 -0.1374  1.0342 -0.2019
13706TIP3   OH262532   0.801   6.431   3.109 -0.5190  0.3499 -0.2903
13706TIP3    H162533   0.805   6.345   3.068 -0.1282  0.9119 -1.4719
13706TIP3    H262534   0.713   6.464   3.089 -1.7198 -0.9271  2.6159
13707TIP3   OH262535   3.349   1.697   2.929 -0.0075 -0.1454  0.0359
13707TIP3    H162536   3.341   1.749   3.009 -0.0898  1.6554 -1.0986
13707TIP3    H262537   3.434   1.724   2.892 -0.0200 -0.8789 -0.5393
13708TIP3   OH262538   1.050   5.453  11.647 -1.0381  0.5259 -0.5089
13708TIP3    H162539   0.955   5.446  11.658 -0.9004  0.6392  0.9034
13708TIP3    H262540   1.083   5.470  11.736  0.3959 -0.5430 -0.8210
13709TIP3   OH262541   3.258   3.008   5.729 -0.0302 -0.0779  0.0407
13709TIP3    H162542   3.222   3.093   5.753  1.2519  0.4077  0.2941
13709TIP3    H262543   3.324   2.990   5.796 -0.6471 -1.5041  0.2744
13710TIP3   OH262544   0.972   4.222   4.350  0.1418  0.4347  0.8424
13710TIP3    H162545   0.990   4.191   4.439 -1.9459  1.1311  1.5397
13710TIP3    H262546   0.943   4.312   4.361 -1.4903  0.0876 -0.3933
13711TIP3   OH262547   2.347   6.417  12.516  0.1030 -0.3684  0.6168
13711TIP3    H162548   2.350   6.503  12.559  0.5305 -0.1744  0.2104
13711TIP3    H262549   2.420   6.420  12.453 -1.8323  0.2006 -1.6906
13712TIP3   OH262550   2.714   3.784  15.299 -0.0883  0.0213 -0.5113
13712TIP3    H162551   2.764   3.767  15.378  2.1328  1.3024 -1.5804
13712TIP3    H262552   2.743   3.718  15.236 -0.3199  0.2826 -0.9020
13713TIP3   OH262553   0.352   5.190   0.603 -0.1353  0.0999 -0.6182
13713TIP3    H162554   0.354   5.097   0.622 -1.1360  0.4200  1.2163
13713TIP3    H262555   0.345   5.195   0.508  1.4281 -1.6531 -0.8413
13714TIP3   OH262556   4.231   5.751   4.183  0.5663 -0.3443  0.3518
13714TIP3    H162557   4.267   5.723   4.267 -0.9274  0.1316  1.1677
13714TIP3    H262558   4.184   5.831   4.203 -3.7496 -2.6661 -0.0165
13715TIP3   OH262559   4.710   6.619  10.535 -0.4061 -0.1104  0.4094
13715TIP3    H162560   4.780   6.563  10.569  0.6173  0.5640 -0.5469
13715TIP3    H262561   4.747   6.659  10.457 -0.6796  2.8470  1.7156
13716TIP3   OH262562   1.011   3.934  10.467  0.7840  0.1470  0.0810
13716TIP3    H162563   0.980   3.852  10.428  2.1353  0.0605 -0.8471
13716TIP3    H262564   0.933   3.989  10.473 -0.0517 -1.0295  0.2829
13717TIP3   OH262565   3.305   6.698  13.143  0.2550  0.0268  0.3982
13717TIP3    H162566   3.232   6.692  13.206 -0.9007  2.1694 -0.6692
13717TIP3    H262567   3.380   6.723  13.197 -0.1744 -0.5168  1.2738
13718TIP3   OH262568   6.430   1.582   5.975 -0.4477  0.2044 -0.3540
13718TIP3    H162569   6.414   1.670   5.940 -0.6952 -0.1228 -1.0834
13718TIP3    H262570   6.485   1.596   6.052  0.9301  0.8946 -1.4251
13719TIP3   OH262571   4.408   4.656   5.976  0.0284 -0.2647 -0.4244
13719TIP3    H162572   4.448   4.703   5.903 -0.5672  0.9056 -0.0124
13719TIP3    H262573   4.316   4.647   5.952 -0.1718  0.1374  0.1769
13720TIP3   OH262574   1.999   3.784  13.220 -0.2939 -0.1700 -0.2391
13720TIP3    H162575   2.024   3.755  13.133 -0.8863  0.0007 -0.4695
13720TIP3    H262576   1.906   3.762  13.227 -0.5493  0.9078 -0.1089
13721TIP3   OH262577   1.469   6.317   6.097 -0.1423  0.2431  0.6704
13721TIP3    H162578   1.437   6.406   6.084 -0.4933 -0.2599 -2.0946
13721TIP3    H262579   1.396   6.270   6.137 -0.6941  0.6681  0.1622
13722TIP3   OH262580   2.710   0.895  14.586  0.1814 -0.5116  0.0238
13722TIP3    H162581   2.758   0.856  14.659  0.5637 -0.3712 -0.1504
13722TIP3    H262582   2.778   0.935  14.532 -0.3204  1.5771  0.8889
13723TIP3   OH262583   4.232   3.155   5.949  0.1736 -0.5702 -0.4112
13723TIP3    H162584   4.153   3.201   5.978 -0.6083 -0.5995 -2.4805
13723TIP3    H262585   4.254   3.098   6.023 -2.9761 -2.1666 -0.6033
13724TIP3   OH262586   4.979   0.235   2.878  0.4773  0.5915 -0.0287
13724TIP3    H162587   5.036   0.309   2.857  0.3952  0.5698 -0.3364
13724TIP3    H262588   5.018   0.161   2.831 -0.1696  0.7154 -0.7661
13725TIP3   OH262589   0.298   4.729   4.874  0.0662 -0.5999  0.1138
13725TIP3    H162590   0.283   4.783   4.797 -2.2543  1.2213  1.7862
13725TIP3    H262591   0.348   4.785   4.933  0.9526 -1.6320  0.3610
13726TIP3   OH262592   4.888   4.932  14.246 -0.2323 -0.3571 -0.3117
13726TIP3    H162593   4.875   4.965  14.157  0.2459 -0.7415 -0.5248
13726TIP3    H262594   4.969   4.881  14.241 -1.9858 -3.2253 -0.4491
13727TIP3   OH262595   3.457   6.499   0.793  0.4006  0.2812 -0.1588
13727TIP3    H162596   3.484   6.591   0.803  1.6603 -0.1834  0.8508
13727TIP3    H262597   3.384   6.502   0.731  0.5328  1.9504 -0.2565
13728TIP3   OH262598   3.522   4.436   0.592  0.4726 -0.0706 -0.0877
13728TIP3    H162599   3.434   4.473   0.601  0.4491  0.1627 -1.2225
13728TIP3    H262600   3.567   4.464   0.672 -0.3009  0.3173  0.2231
13729TIP3   OH262601   5.929   3.176   1.558 -0.1550 -0.8210 -0.6557
13729TIP3    H162602   5.946   3.254   1.612  0.7075  0.0085 -2.1086
13729TIP3    H262603   5.970   3.195   1.474 -1.2203 -2.2440 -1.5221
13730TIP3   OH262604   1.443   4.904   3.848  0.4924 -0.1520  0.4857
13730TIP3    H162605   1.502   4.943   3.913  0.9501 -0.0741  0.0282
13730TIP3    H262606   1.356   4.932   3.874  0.8165  1.2325  0.1344
13731TIP3   OH262607   2.407   3.026  14.471 -0.0435 -0.6695 -0.0375
13731TIP3    H162608   2.325   2.997  14.510 -0.4857  0.3969 -0.1490
13731TIP3    H262609   2.434   2.953  14.415 -2.2521 -0.0448 -2.0104
13732TIP3   OH262610   1.373   1.025  17.239  0.3733 -0.2263 -0.3272
13732TIP3    H162611   1.324   0.986  17.166 -0.5454 -2.2184  1.3006
13732TIP3    H262612   1.445   0.964  17.254 -0.2029 -0.5269  1.2816
13733TIP3   OH262613   3.044   6.360   5.172  0.2158  0.3987  0.2407
13733TIP3    H162614   3.079   6.345   5.084 -0.6142 -0.6562  0.0774
13733TIP3    H262615   2.992   6.440   5.164 -1.8408 -0.9872 -0.8333
13734TIP3   OH262616   1.005   2.804   4.328 -0.1567 -0.2750 -0.4139
13734TIP3    H162617   1.080   2.817   4.386 -1.5905  3.2181  0.7937
13734TIP3    H262618   0.931   2.840   4.376 -2.0117 -0.5173 -2.9900
13735TIP3   OH262619   6.582   4.710   3.780  0.3279  0.1531  0.1949
13735TIP3    H162620   6.649   4.654   3.740 -0.1858 -1.9640  2.2256
13735TIP3    H262621   6.614   4.799   3.765  2.3378 -0.7413 -1.0461
13736TIP3   OH262622   2.672   1.279  14.769  0.1233  0.3953 -0.4245
13736TIP3    H162623   2.734   1.287  14.696  1.2565  1.5886  0.6435
13736TIP3    H262624   2.685   1.359  14.821 -2.1996  0.5888 -0.0777
13737TIP3   OH262625   2.871   6.661   1.808  0.3130 -0.0259 -0.2692
13737TIP3    H162626   2.866   6.610   1.889 -1.3060  0.1485 -0.2406
13737TIP3    H262627   2.877   6.596   1.738  1.1526 -0.1841 -0.0629
13738TIP3   OH262628   3.127   0.415  12.690 -0.4812 -0.8042 -0.0693
13738TIP3    H162629   3.093   0.344  12.635 -1.5955 -1.9995  2.0875
13738TIP3    H262630   3.214   0.386  12.717  0.3712  0.1166 -1.7571
13739TIP3   OH262631   5.222   1.851   0.196  0.3640 -0.2546 -0.0201
13739TIP3    H162632   5.267   1.792   0.135 -0.2277  0.8287 -1.5339
13739TIP3    H262633   5.160   1.899   0.142 -1.7714 -0.8580  1.8437
13740TIP3   OH262634   6.372   0.251   2.096 -0.5701  0.3637 -0.2034
13740TIP3    H162635   6.391   0.200   2.175  0.3783  0.8992 -0.0756
13740TIP3    H262636   6.342   0.336   2.130  0.2334  0.7359 -0.4133
13741TIP3   OH262637   3.552   2.959  13.217  0.1503  0.5449  0.6550
13741TIP3    H162638   3.568   2.880  13.165 -0.0057 -0.7090  2.4668
13741TIP3    H262639   3.615   3.023  13.184  0.4740 -0.4306 -0.6456
13742TIP3   OH262640   1.356   0.150  14.249 -0.5681  0.0395 -0.5447
13742TIP3    H162641   1.263   0.166  14.269 -0.6806 -0.5681 -0.5735
13742TIP3    H262642   1.394   0.124  14.333 -0.3251  0.7259 -0.4400
13743TIP3   OH262643   1.654   6.456  15.812 -0.3296  0.3018  0.0273
13743TIP3    H162644   1.707   6.378  15.826 -1.9695 -0.8665 -0.0973
13743TIP3    H262645   1.667   6.478  15.719 -0.9831 -0.6883 -0.3089
13744TIP3   OH262646   5.869   0.056  12.173 -0.1622 -0.1680  0.0341
13744TIP3    H162647   5.898  -0.019  12.121  3.5651  1.1925 -0.0259
13744TIP3    H262648   5.797   0.094  12.122  0.6800 -1.2686 -2.0387
13745TIP3   OH262649   0.193   1.661   4.905  0.9522 -0.3464 -0.5138
13745TIP3    H162650   0.176   1.573   4.937  1.0020 -0.5939 -1.1699
13745TIP3    H262651   0.113   1.710   4.925  1.9589  0.2151  2.4413
13746TIP3   OH262652   4.604   2.548   1.236 -0.2123  0.0350  0.5007
13746TIP3    H162653   4.671   2.616   1.239  0.2316 -0.4232  1.2607
13746TIP3    H262654   4.643   2.474   1.282 -1.0662 -0.3972  0.5466
13747TIP3   OH262655   4.567   2.941   1.564  0.1023  0.2970 -0.0048
13747TIP3    H162656   4.529   2.875   1.507  0.3035  1.0690 -1.0490
13747TIP3    H262657   4.491   2.980   1.609 -0.1700  0.5177 -0.6495
13748TIP3   OH262658   2.129   2.276   5.462  0.0833  0.2062  0.4040
13748TIP3    H162659   2.212   2.300   5.421 -0.5626 -1.1475 -1.7144
13748TIP3    H262660   2.149   2.198   5.514  0.3928  0.6233  0.9259
13749TIP3   OH262661   3.569   2.659  16.218  1.1154  0.1350  0.3683
13749TIP3    H162662   3.649   2.707  16.234  0.9054  0.0518  1.7468
13749TIP3    H262663   3.542   2.627  16.305  0.3616 -1.0252 -0.2717
13750TIP3   OH262664   0.697   4.504   2.369  0.1565  0.4496  0.0610
13750TIP3    H162665   0.612   4.540   2.396 -0.0600 -0.6387  0.8405
13750TIP3    H262666   0.759   4.537   2.434 -0.2176 -1.4273  1.4131
13751TIP3   OH262667   4.742   2.659   0.642  0.0506  0.0784 -0.5176
13751TIP3    H162668   4.746   2.597   0.715 -0.0426  1.6969  0.8963
13751TIP3    H262669   4.667   2.630   0.590 -1.1843  0.1313  1.1894
13752TIP3   OH262670   6.672   4.132  15.893 -0.6374  0.4265  0.0464
13752TIP3    H162671   6.762   4.127  15.859 -0.6758  0.5514 -0.0709
13752TIP3    H262672   6.631   4.051  15.863 -0.2687 -0.0975  0.9428
13753TIP3   OH262673   4.843   1.387  16.376 -0.4557 -0.3529  0.8540
13753TIP3    H162674   4.786   1.327  16.329 -0.3890 -1.3557  2.0059
13753TIP3    H262675   4.806   1.390  16.465  0.3530  0.2212  1.1744
13754TIP3   OH262676   4.451   4.864   2.411  0.0145 -0.3678 -0.7057
13754TIP3    H162677   4.464   4.940   2.467 -0.8117 -0.5050 -0.3202
13754TIP3    H262678   4.513   4.876   2.339 -1.2003  1.4530 -1.4745
13755TIP3   OH262679   3.169   0.265   1.663  0.5510  0.1761  0.3865
13755TIP3    H162680   3.143   0.195   1.722  0.1399  0.3912  0.4609
13755TIP3    H262681   3.234   0.225   1.605 -0.5177 -0.5771 -0.3060
13756TIP3   OH262682   1.660   0.416  12.721 -0.1513  0.3062 -0.3753
13756TIP3    H162683   1.631   0.446  12.808 -0.4865  0.6207 -0.5932
13756TIP3    H262684   1.595   0.451  12.661 -0.0627 -0.1327 -0.7309
13757TIP3   OH262685   4.087   6.718  13.587 -0.2472 -0.0600  0.0477
13757TIP3    H162686   4.127   6.668  13.658 -0.8868  0.0415  0.4815
13757TIP3    H262687   4.124   6.680  13.507  1.9634  1.0925  0.4830
13758TIP3   OH262688   1.431   0.918   1.630 -0.6182 -0.1418 -0.3678
13758TIP3    H162689   1.409   1.009   1.608 -2.1662  0.1234  2.0918
13758TIP3    H262690   1.515   0.924   1.675 -0.5811  0.0413 -0.4604
13759TIP3   OH262691   4.901   1.457   3.654 -0.4940 -0.1768 -0.4458
13759TIP3    H162692   4.987   1.472   3.616  0.5657 -3.5947  0.4250
13759TIP3    H262693   4.910   1.483   3.746 -0.2851 -0.8489 -0.2744
13760TIP3   OH262694   1.711   3.059  16.964  0.0061  0.6461 -0.2146
13760TIP3    H162695   1.769   3.087  16.894  0.7487 -0.6447 -0.1414
13760TIP3    H262696   1.750   3.095  17.044  0.2292  0.5225 -0.2641
13761TIP3   OH262697   5.412   2.146  15.047  0.3086 -0.5908 -0.1300
13761TIP3    H162698   5.492   2.177  15.004 -0.2783 -0.8850 -1.4659
13761TIP3    H262699   5.388   2.067  14.998 -0.2684 -1.0470  0.8776
13762TIP3   OH262700   4.341   4.851  14.095  0.6082 -0.7750  0.4087
13762TIP3    H162701   4.410   4.890  14.149  0.2644  0.7104 -0.1924
13762TIP3    H262702   4.275   4.822  14.159 -0.2180  1.7962  0.8067
13763TIP3   OH262703   5.586   2.869  11.456  0.1258  0.3356  0.1486
13763TIP3    H162704   5.533   2.898  11.382  1.8515 -1.2928 -1.7919
13763TIP3    H262705   5.655   2.816  11.416  0.4570 -1.4975  3.0281
13764TIP3   OH262706   6.114   0.889  13.756 -0.0584  0.2496 -0.4196
13764TIP3    H162707   6.118   0.816  13.694 -1.2913 -0.0858 -0.1125
13764TIP3    H262708   6.025   0.887  13.790  0.2744  1.1317  0.5299
13765TIP3   OH262709   1.548   5.566  13.113  0.1521  0.4105  0.1725
13765TIP3    H162710   1.609   5.637  13.129  0.1891  0.1609  1.1652
13765TIP3    H262711   1.472   5.608  13.074  1.3554  0.5846 -2.0865
13766TIP3   OH262712   1.347   1.659   3.620 -0.2596  0.4305  0.3209
13766TIP3    H162713   1.260   1.697   3.606 -0.4495 -0.3198 -0.5967
13766TIP3    H262714   1.344   1.624   3.709 -0.5490  1.3288  0.6663
13767TIP3   OH262715   4.426   1.262   6.016  0.0189 -0.1988  0.4623
13767TIP3    H162716   4.357   1.307   6.065  0.6076  0.1877  0.9506
13767TIP3    H262717   4.493   1.329   6.003  1.2335 -1.1048  1.8502
13768TIP3   OH262718   6.733   4.936   3.173  0.7835  0.2087  0.5869
13768TIP3    H162719   6.775   4.880   3.240  4.0791 -0.9063 -2.2454
13768TIP3    H262720   6.661   4.883   3.140  1.5659 -0.8554  0.5380
13769TIP3   OH262721   2.632   3.698  12.039  0.6348  0.4407 -0.1084
13769TIP3    H162722   2.588   3.729  12.119  2.6170 -0.9602  1.5839
13769TIP3    H262723   2.657   3.778  11.993  0.6877  1.2992  1.3672
13770TIP3   OH262724   3.382   2.381   3.527  0.4077  0.7127  0.3127
13770TIP3    H162725   3.456   2.332   3.489 -0.1212  0.2690 -0.1531
13770TIP3    H262726   3.330   2.315   3.573 -0.4081  0.7977 -0.4763
13771TIP3   OH262727   6.689   5.388  14.726 -0.2860  0.1749 -0.3716
13771TIP3    H162728   6.726   5.465  14.683 -0.2600  1.5174  1.9996
13771TIP3    H262729   6.731   5.314  14.683 -1.0767  1.4083 -3.4017
13772TIP3   OH262730   0.147   5.920  15.549  0.1422  0.4059  1.1330
13772TIP3    H162731   0.051   5.914  15.552  0.0624  0.8665 -0.1260
13772TIP3    H262732   0.171   5.970  15.627 -0.6928  0.8813  1.0845
13773TIP3   OH262733   3.544   2.893   1.894  0.0240 -0.6452 -0.2343
13773TIP3    H162734   3.469   2.933   1.851  1.9139  1.0516 -2.1096
13773TIP3    H262735   3.553   2.807   1.853 -1.1824 -1.0778  0.3820
13774TIP3   OH262736   5.489   0.278  11.392 -0.6957 -0.8335  0.0774
13774TIP3    H162737   5.519   0.187  11.384  0.4445 -0.3905 -0.8062
13774TIP3    H262738   5.546   0.316  11.458 -0.5794 -0.5173 -0.2032
13775TIP3   OH262739   0.665   3.332   4.686 -0.0330 -0.4594  0.5684
13775TIP3    H162740   0.701   3.245   4.667 -0.0197 -0.4530  0.5636
13775TIP3    H262741   0.604   3.348   4.613  0.6279 -0.0879  0.0855
13776TIP3   OH262742   5.532   2.509  11.938  0.1410  0.1644 -0.2247
13776TIP3    H162743   5.456   2.558  11.905 -2.0311 -3.2450 -0.5603
13776TIP3    H262744   5.533   2.527  12.032 -1.2494  0.0550 -0.1801
13777TIP3   OH262745   4.170   5.844   1.039 -0.2368  0.2511 -0.1913
13777TIP3    H162746   4.088   5.842   1.089  0.4010 -1.8748  0.8565
13777TIP3    H262747   4.239   5.848   1.106  0.5857 -1.4319 -0.8918
13778TIP3   OH262748   1.863   3.796   5.280 -0.3013  0.7350 -0.2316
13778TIP3    H162749   1.797   3.727   5.280 -1.9184  2.1995  2.2272
13778TIP3    H262750   1.889   3.804   5.188  0.0333 -3.1969 -0.5443
13779TIP3   OH262751   1.949   4.657  14.135  0.1716  0.0123  0.0497
13779TIP3    H162752   2.042   4.680  14.126  0.0439  0.8149  0.7081
13779TIP3    H262753   1.903   4.736  14.106 -0.2763  0.7488  2.6997
13780TIP3   OH262754   4.346   6.099   0.790 -0.7768  0.5360 -0.4596
13780TIP3    H162755   4.334   6.004   0.795 -1.6586  0.7375  1.7949
13780TIP3    H262756   4.257   6.134   0.791 -0.4181  1.4447 -0.2343
13781TIP3   OH262757   0.246   0.266  11.300 -0.0429  0.4752 -0.8808
13781TIP3    H162758   0.212   0.293  11.385  0.2187 -2.7672  0.3333
13781TIP3    H262759   0.261   0.172  11.308  4.1084  0.7720 -3.0945
13782TIP3   OH262760   0.161   3.399  13.643 -0.3022 -0.3148 -0.0857
13782TIP3    H162761   0.094   3.399  13.712  0.3607  2.1032  0.5859
13782TIP3    H262762   0.114   3.428  13.564 -0.5868 -1.0680 -0.2033
13783TIP3   OH262763   1.560   2.700  12.386  0.3460 -0.2293  0.6099
13783TIP3    H162764   1.574   2.605  12.391  0.7346 -0.4011 -2.6507
13783TIP3    H262765   1.631   2.737  12.439  1.0513 -1.7032  0.7210
13784TIP3   OH262766   1.402   6.551  15.928 -0.0347 -0.1003 -0.4018
13784TIP3    H162767   1.435   6.641  15.929  1.7250 -0.7147 -0.5057
13784TIP3    H262768   1.445   6.510  15.853  0.1582 -1.3570  0.3659
13785TIP3   OH262769   4.984   1.008  12.116 -0.6587 -0.4582  0.1764
13785TIP3    H162770   5.059   1.050  12.074 -0.7682  0.0791  0.5169
13785TIP3    H262771   4.933   0.972  12.043  0.0163 -0.9766 -0.0425
13786TIP3   OH262772   0.912   5.747  13.406 -0.3524 -0.0123 -0.2299
13786TIP3    H162773   0.863   5.688  13.347 -0.1281  2.0014 -2.4947
13786TIP3    H262774   1.001   5.713  13.405 -0.6421 -0.8092  0.0779
13787TIP3   OH262775   0.625   4.786   5.370  0.1491 -0.2666 -0.5407
13787TIP3    H162776   0.540   4.811   5.406  0.1233  2.0939 -2.1813
13787TIP3    H262777   0.619   4.691   5.359 -1.7500 -0.3092  0.6967
13788TIP3   OH262778   5.225   2.494   5.171 -0.2096  0.8621  0.2817
13788TIP3    H162779   5.144   2.544   5.157 -1.7917 -1.6069  0.2183
13788TIP3    H262780   5.243   2.453   5.087  1.0768  1.3419  0.3197
13789TIP3   OH262781   5.803   3.889   1.908  0.2033  0.1696  0.1981
13789TIP3    H162782   5.862   3.929   1.844 -0.8775  1.3196 -0.0794
13789TIP3    H262783   5.720   3.879   1.861  0.0688 -1.1665  0.6855
13790TIP3   OH262784   2.972   5.994   3.247 -0.1041  0.2764 -0.2353
13790TIP3    H162785   2.984   5.901   3.268  0.9069  0.3354 -0.5060
13790TIP3    H262786   2.878   6.004   3.231 -0.4573 -0.3698  1.3711
13791TIP3   OH262787   2.451   1.599  13.511  0.1448 -0.1936 -0.2164
13791TIP3    H162788   2.466   1.650  13.432 -1.0326  0.1149 -0.2447
13791TIP3    H262789   2.482   1.511  13.489  1.1685  0.2338 -0.5256
13792TIP3   OH262790   2.440   6.375  11.001 -0.4529 -0.3697 -0.2414
13792TIP3    H162791   2.454   6.348  10.910  1.6025  0.6335 -0.2623
13792TIP3    H262792   2.468   6.467  11.003 -0.3191 -0.4263  1.4422
13793TIP3   OH262793   5.725   3.838  12.822 -0.3567 -0.0327 -0.6263
13793TIP3    H162794   5.691   3.765  12.771 -1.3522  0.5543 -0.8149
13793TIP3    H262795   5.820   3.824  12.824 -0.2576  0.1109 -2.9002
13794TIP3   OH262796   1.804   1.552  13.766 -0.4445  0.5302 -0.3910
13794TIP3    H162797   1.876   1.614  13.777 -0.5444  0.4916  0.5763
13794TIP3    H262798   1.846   1.466  13.774 -0.6653  0.5124  0.7546
13795TIP3   OH262799   4.722   1.639  12.214 -0.2877  0.1380  0.7415
13795TIP3    H162800   4.683   1.574  12.273  0.4182  0.3022  1.3879
13795TIP3    H262801   4.741   1.714  12.270  1.9392 -0.3296  0.6563
13796TIP3   OH262802   2.945   0.136   3.164  0.9497  0.0541  0.1315
13796TIP3    H162803   3.027   0.131   3.213  0.9858  0.6335  0.1329
13796TIP3    H262804   2.877   0.133   3.231  0.9405 -1.1661  0.0869
13797TIP3   OH262805   2.536   2.868   0.096  0.6319  0.6640 -0.3625
13797TIP3    H162806   2.501   2.792   0.048  0.9705 -0.7514  1.5325
13797TIP3    H262807   2.505   2.944   0.047  0.0797 -0.6958 -2.1883
13798TIP3   OH262808   3.190   3.903   4.967 -0.1595  0.1266  0.4342
13798TIP3    H162809   3.237   3.985   4.980  2.2783 -1.0011 -0.8999
13798TIP3    H262810   3.132   3.896   5.043 -0.5187  3.1089  0.5156
13799TIP3   OH262811   0.918   4.340   2.302  0.1290 -0.0157 -0.0205
13799TIP3    H162812   0.931   4.381   2.217 -2.1105  1.0483  0.1017
13799TIP3    H262813   0.828   4.363   2.326 -0.6894 -3.7266  0.7841
13800TIP3   OH262814   1.252   0.483  12.955 -0.0702  0.0819  0.1916
13800TIP3    H162815   1.285   0.546  13.019 -0.0256  0.8238 -0.5507
13800TIP3    H262816   1.178   0.529  12.913 -2.8728 -1.9793  2.6783
13801TIP3   OH262817   3.130   0.455   0.910 -0.2704  0.1893 -0.3522
13801TIP3    H162818   3.094   0.500   0.833  0.0114 -1.8454 -1.7325
13801TIP3    H262819   3.056   0.405   0.945 -0.0355 -0.0571 -0.2080
13802TIP3   OH262820   4.356   6.424  13.631 -0.4073  0.2188 -0.2663
13802TIP3    H162821   4.309   6.484  13.690 -3.0907 -2.5428  0.5290
13802TIP3    H262822   4.448   6.446  13.643 -1.1140  1.9256  2.5249
13803TIP3   OH262823   1.294   6.122  17.239  0.6539 -0.2956  0.5260
13803TIP3    H162824   1.225   6.103  17.302  0.7088 -1.1993  0.3257
13803TIP3    H262825   1.258   6.190  17.182 -0.0676 -0.7568  0.4318
13804TIP3   OH262826   3.341   3.100  15.237 -0.1291 -0.2434 -0.1641
13804TIP3    H162827   3.320   3.193  15.241  3.1157  0.5230  0.2475
13804TIP3    H262828   3.335   3.071  15.328 -2.9538 -0.9389 -0.5071
13805TIP3   OH262829   1.429   3.169  15.127 -0.3247  0.2149  0.0208
13805TIP3    H162830   1.517   3.170  15.088 -1.2008 -1.0073 -2.0737
13805TIP3    H262831   1.394   3.083  15.105 -1.4500  0.0647  2.2679
13806TIP3   OH262832   0.252   1.125   4.485 -0.7589  0.3879 -0.1981
13806TIP3    H162833   0.316   1.125   4.557 -0.6724 -1.2834 -0.2543
13806TIP3    H262834   0.306   1.117   4.406 -0.9781 -0.3039 -0.2848
13807TIP3   OH262835   3.337   0.158  12.496 -0.5343 -0.2029 -0.2880
13807TIP3    H162836   3.398   0.231  12.502  0.4608 -1.1588  1.5226
13807TIP3    H262837   3.252   0.198  12.478 -0.1706  1.4631  1.6443
13808TIP3   OH262838   6.577   0.682  14.388  0.8155 -0.1845 -0.0707
13808TIP3    H162839   6.569   0.668  14.294  2.7340  2.0302 -0.6238
13808TIP3    H262840   6.487   0.691  14.419  0.2084  0.1746 -1.8857
13809TIP3   OH262841   3.502   5.103  15.569  0.6267 -0.1261 -0.0640
13809TIP3    H162842   3.424   5.152  15.545  2.3466  1.0101 -3.7788
13809TIP3    H262843   3.545   5.157  15.636  0.2020  1.1684 -0.8268
13810TIP3   OH262844   5.553   6.365   0.296 -0.4689 -0.4861  0.2432
13810TIP3    H162845   5.556   6.374   0.391 -1.2663 -0.6296  0.2828
13810TIP3    H262846   5.578   6.274   0.279  0.2317 -0.3038  0.2781
13811TIP3   OH262847   0.685   6.125   4.371 -0.0929  0.2233  0.1621
13811TIP3    H162848   0.760   6.145   4.427 -0.1185  1.0702 -0.0971
13811TIP3    H262849   0.724   6.102   4.287 -0.1112  0.3679  0.1141
13812TIP3   OH262850   1.551   3.497  12.094 -0.2831  0.3723 -0.2674
13812TIP3    H162851   1.534   3.499  12.000  1.5682  0.2762 -0.6397
13812TIP3    H262852   1.575   3.587  12.116  1.0198  0.0406 -0.2621
13813TIP3   OH262853   4.692   1.110  16.309  0.5116 -0.2903 -0.5179
13813TIP3    H162854   4.666   1.077  16.395  0.9572  0.1057 -0.2210
13813TIP3    H262855   4.759   1.048  16.278 -0.4957 -1.0989 -1.1100
13814TIP3   OH262856   6.492   6.370   3.828 -0.1434 -1.1790  0.5681
13814TIP3    H162857   6.578   6.331   3.812  0.4768 -0.1249  1.2811
13814TIP3    H262858   6.436   6.333   3.760  1.1230 -1.0714 -0.5458
13815TIP3   OH262859   0.922   0.353   5.344 -0.1672  0.0908 -0.0129
13815TIP3    H162860   0.966   0.372   5.261  1.1478 -0.4820  0.5426
13815TIP3    H262861   0.986   0.376   5.411 -1.0709  0.1569  0.8445
13816TIP3   OH262862   6.771   3.531   5.341  0.1917 -0.0545 -0.0114
13816TIP3    H162863   6.841   3.553   5.402 -0.3295  0.3903  0.4348
13816TIP3    H262864   6.811   3.537   5.254  0.0149  2.7841  0.0779
13817TIP3   OH262865   3.419   1.221   3.732  0.1363  0.0383 -0.1824
13817TIP3    H162866   3.412   1.160   3.805 -0.6533 -0.3418 -0.5678
13817TIP3    H262867   3.329   1.249   3.716  0.3745  0.5249 -0.6656
13818TIP3   OH262868   0.751   3.966   1.422 -0.4805  0.0284 -0.3794
13818TIP3    H162869   0.792   4.050   1.443 -0.8608  0.0793  0.2017
13818TIP3    H262870   0.815   3.920   1.368  0.4692 -0.0173  0.7512
13819TIP3   OH262871   6.717   4.499   1.474 -0.4758  0.2912  0.0634
13819TIP3    H162872   6.775   4.563   1.516 -0.3137  0.1416  0.0684
13819TIP3    H262873   6.717   4.524   1.382 -0.7678  0.5696  0.1368
13820TIP3   OH262874   4.384   3.377  11.145 -0.2989  0.0618 -0.5654
13820TIP3    H162875   4.324   3.427  11.089  0.8899  1.0698 -0.9798
13820TIP3    H262876   4.450   3.441  11.171 -0.3557 -0.6077  1.2996
13821TIP3   OH262877   5.129   0.798  15.176  0.4267 -0.5642 -0.2712
13821TIP3    H162878   5.145   0.718  15.126  1.7213  0.4809 -1.6056
13821TIP3    H262879   5.034   0.802  15.187  0.3718 -2.3790 -0.0095
13822TIP3   OH262880   3.030   4.994   4.690  0.1815  0.0742  0.5409
13822TIP3    H162881   3.025   5.068   4.630 -0.0032 -0.6405 -0.3294
13822TIP3    H262882   3.010   4.917   4.636  2.9523 -0.9118  0.8383
13823TIP3   OH262883   0.368   6.038   5.559 -0.5612 -0.0505  0.1790
13823TIP3    H162884   0.439   6.055   5.497 -0.5921  0.2962  0.2367
13823TIP3    H262885   0.313   6.117   5.555 -0.8781 -0.2659  0.2199
13824TIP3   OH262886   1.957   2.663   0.855  0.2601 -0.6921 -0.6728
13824TIP3    H162887   2.009   2.644   0.776  1.2816  0.0201 -0.1844
13824TIP3    H262888   2.021   2.667   0.925 -0.4943 -0.0048 -0.0187
13825TIP3   OH262889   6.288   2.699  13.152  0.7414 -0.2659 -0.6823
13825TIP3    H162890   6.338   2.779  13.167  2.2559 -1.0978 -1.2153
13825TIP3    H262891   6.217   2.725  13.094  0.4823  0.9527  0.1657
13826TIP3   OH262892   0.609   4.101   2.431  0.1166 -0.7671  0.5037
13826TIP3    H162893   0.582   4.018   2.471 -0.0401 -0.7951  0.3391
13826TIP3    H262894   0.609   4.084   2.337  0.4304 -0.6830  0.4887
13827TIP3   OH262895   1.901   2.532  15.018  0.9433  0.1237 -0.0064
13827TIP3    H162896   1.940   2.612  15.052 -0.5683  0.9461 -0.1953
13827TIP3    H262897   1.810   2.535  15.045  0.1718 -0.1459 -2.4195
13828TIP3   OH262898   5.877   0.826  13.841 -0.2056 -0.2705  0.2885
13828TIP3    H162899   5.830   0.812  13.923  0.1090 -0.3215  0.4606
13828TIP3    H262900   5.819   0.789  13.774  0.0881 -1.3696  0.6207
13829TIP3   OH262901   3.029   6.229   2.601  0.2128  0.3882  0.0483
13829TIP3    H162902   3.014   6.198   2.690  0.4887 -2.0602 -0.7341
13829TIP3    H262903   3.124   6.232   2.592  0.1885 -0.3426 -0.4801
13830TIP3   OH262904   6.576   6.709  12.966 -0.6045  0.0935  0.4996
13830TIP3    H162905   6.571   6.679  12.875  2.7954  1.3779 -0.1973
13830TIP3    H262906   6.496   6.761  12.978 -1.6545 -1.0201 -1.3708
13831TIP3   OH262907   5.295   1.479  15.105  0.6416  0.3082  0.0961
13831TIP3    H162908   5.317   1.522  15.188  1.4256  0.4584 -0.1861
13831TIP3    H262909   5.371   1.494  15.049 -1.0462  2.6857 -1.6611
13832TIP3   OH262910   0.156   6.578  11.658 -0.4763 -0.2539 -0.1414
13832TIP3    H162911   0.214   6.509  11.627  1.2687  2.2716 -2.7509
13832TIP3    H262912   0.199   6.613  11.736  1.3674  1.3148 -1.8124
13833TIP3   OH262913   3.757   4.313   5.688 -0.0142  0.2765  0.5876
13833TIP3    H162914   3.690   4.272   5.743 -1.2762 -3.7633 -3.6995
13833TIP3    H262915   3.709   4.379   5.637  0.3160  0.9796  1.1727
13834TIP3   OH262916   4.600   2.521  11.401  1.1487 -0.3658  0.2640
13834TIP3    H162917   4.681   2.498  11.445  2.2602  0.0669 -1.5142
13834TIP3    H262918   4.616   2.501  11.308  0.4436  2.8278 -0.6268
13835TIP3   OH262919   3.757   3.956  13.325  0.3423  0.1079 -0.1122
13835TIP3    H162920   3.826   3.902  13.364  0.8004 -0.9098 -2.2999
13835TIP3    H262921   3.803   4.015  13.266 -0.6083 -0.3409 -1.3223
13836TIP3   OH262922   0.051   4.725  15.922 -0.1680  0.0358 -0.0082
13836TIP3    H162923   0.106   4.773  15.983  1.0663  0.2284 -1.2442
13836TIP3    H262924   0.109   4.660  15.883 -1.0863 -0.4803 -0.5285
13837TIP3   OH262925   1.477   1.822   3.010  0.5615  0.1188 -0.0982
13837TIP3    H162926   1.524   1.835   3.092 -0.6497  0.5155  0.5425
13837TIP3    H262927   1.469   1.910   2.973 -0.0855  0.1182  0.0285
13838TIP3   OH262928   0.797   4.983   5.491 -0.1489 -0.1291 -0.1875
13838TIP3    H162929   0.753   4.971   5.575 -0.1953 -1.7192 -0.4203
13838TIP3    H262930   0.785   4.900   5.446  1.7218 -0.0297 -0.8982
13839TIP3   OH262931   6.351   5.684   1.256  0.4853 -0.4928  0.1366
13839TIP3    H162932   6.263   5.717   1.237  1.3182  0.4863 -2.1301
13839TIP3    H262933   6.336   5.605   1.308 -1.7498 -0.5708 -0.5711
13840TIP3   OH262934   6.306   2.604  11.355  0.4552 -0.8020  0.0540
13840TIP3    H162935   6.352   2.603  11.439 -0.5968 -1.9213  0.6270
13840TIP3    H262936   6.327   2.690  11.318  1.8196 -0.7201  0.9556
13841TIP3   OH262937   5.524   0.210   2.552  0.5642 -0.5708  0.2675
13841TIP3    H162938   5.596   0.251   2.599  0.7313 -1.2468  0.6122
13841TIP3    H262939   5.545   0.222   2.460  0.2941  0.6600  0.3610
13842TIP3   OH262940   0.733   6.406  11.338  0.3428 -0.4303 -0.5031
13842TIP3    H162941   0.640   6.401  11.314 -0.1692  0.0450  1.2928
13842TIP3    H262942   0.773   6.457  11.267 -0.8864 -0.0891 -0.9756
13843TIP3   OH262943   2.696   2.366  12.663 -0.2271  0.5059  0.1873
13843TIP3    H162944   2.771   2.362  12.722 -0.5930  0.9566  0.6867
13843TIP3    H262945   2.633   2.305  12.701  0.4311 -0.9824 -1.0293
13844TIP3   OH262946   5.648   4.801  12.013  0.3117 -0.2640  0.3224
13844TIP3    H162947   5.651   4.761  11.926  0.0748  0.3978  0.0106
13844TIP3    H262948   5.602   4.884  12.000  1.4351  0.4452  0.8469
13845TIP3   OH262949   2.763   1.466  16.938 -0.1071  0.3596 -0.0959
13845TIP3    H162950   2.699   1.409  16.895 -0.4026  1.6974 -1.5193
13845TIP3    H262951   2.847   1.422  16.927 -0.4528 -0.2262 -0.3985
13846TIP3   OH262952   0.106   2.957   3.355  0.3902  0.4349 -0.3958
13846TIP3    H162953   0.019   2.989   3.333  0.1486 -0.2650 -0.4608
13846TIP3    H262954   0.154   3.035   3.383 -0.3594  0.7657 -0.0257
13847TIP3   OH262955   4.349   5.066   0.497 -0.2994  0.2366  0.2540
13847TIP3    H162956   4.351   4.987   0.443 -1.1629 -0.2485  0.9304
13847TIP3    H262957   4.361   5.137   0.435  1.9070 -0.4976 -0.1990
13848TIP3   OH262958   1.031   0.135  15.717  0.2434 -0.0927  0.1849
13848TIP3    H162959   1.074   0.050  15.725 -0.3497 -0.7771 -3.3125
13848TIP3    H262960   1.100   0.199  15.738  1.3843 -1.3531  0.3222
13849TIP3   OH262961   2.886   5.878  11.400  0.0749  0.0161  0.6523
13849TIP3    H162962   2.853   5.888  11.311  1.5289  1.3159  0.2264
13849TIP3    H262963   2.881   5.785  11.417 -1.8518 -0.0522 -0.1419
13850TIP3   OH262964   6.680   1.242  11.226 -1.0549 -0.2914  0.1089
13850TIP3    H162965   6.653   1.313  11.284  2.0531  0.9744  0.0998
13850TIP3    H262966   6.631   1.257  11.145 -1.5974  0.8878  0.6418
13851TIP3   OH262967   0.664   6.550   1.649 -0.6488  0.0007  0.5402
13851TIP3    H162968   0.641   6.554   1.742  0.3086  1.2676  0.7371
13851TIP3    H262969   0.580   6.558   1.604 -0.8854  1.8995  1.2696
13852TIP3   OH262970   1.340   5.122  11.283 -0.0429  0.3577 -0.6971
13852TIP3    H162971   1.418   5.177  11.294 -0.2480  0.2311  1.8151
13852TIP3    H262972   1.342   5.095  11.192  2.8750  0.3173 -0.6675
13853TIP3   OH262973   4.524   3.007  13.722  0.3071  0.3639 -0.4119
13853TIP3    H162974   4.582   2.982  13.650 -1.7711 -0.3520 -1.8949
13853TIP3    H262975   4.439   3.020  13.681 -0.5713  1.5349  1.6928
13854TIP3   OH262976   1.531   2.337   1.602 -0.2320 -0.4570  0.1146
13854TIP3    H162977   1.514   2.308   1.692 -1.2853 -0.2106  0.0024
13854TIP3    H262978   1.447   2.373   1.572  0.5375  0.9465 -0.4133
13855TIP3   OH262979   1.345   2.969   5.131  0.0388  1.1163  0.2445
13855TIP3    H162980   1.297   2.915   5.068 -0.5888  0.4707  1.2514
13855TIP3    H262981   1.436   2.964   5.102  0.2134 -1.5813  1.0218
13856TIP3   OH262982   0.826   0.245  15.283 -0.2446 -0.1353 -0.5435
13856TIP3    H162983   0.744   0.269  15.325  0.0743  0.3335 -0.1822
13856TIP3    H262984   0.893   0.290  15.333  0.2104 -0.2598 -1.0297
13857TIP3   OH262985   5.523   0.275   1.600  0.2457 -0.3918  0.3909
13857TIP3    H162986   5.581   0.344   1.631  2.0157 -0.4790 -2.5076
13857TIP3    H262987   5.439   0.318   1.585  1.0479  0.9232 -0.3959
13858TIP3   OH262988   5.817   5.475  13.168  0.0945 -0.0941 -0.1678
13858TIP3    H162989   5.876   5.401  13.179  0.3998  0.4558  2.3212
13858TIP3    H262990   5.857   5.529  13.100  0.4498 -1.6142 -1.1917
13859TIP3   OH262991   2.549   5.549   2.637  0.2724  0.1792 -0.0802
13859TIP3    H162992   2.480   5.483   2.636 -1.7374  2.1946  0.6923
13859TIP3    H262993   2.567   5.565   2.545  0.7558 -1.4106 -0.2751
13860TIP3   OH262994   5.325   3.218   2.854 -0.7527 -0.3087  0.4672
13860TIP3    H162995   5.361   3.228   2.943 -0.5538 -0.7897  0.4426
13860TIP3    H262996   5.373   3.282   2.802 -0.8611 -0.0309  0.7069
13861TIP3   OH262997   3.204   4.872   0.138 -0.1968  0.4274  0.2471
13861TIP3    H162998   3.290   4.839   0.163  0.1055  0.4212 -0.7743
13861TIP3    H262999   3.205   4.964   0.164  0.0336  0.3705  0.4408
13862TIP3   OH263000   0.077   4.407  16.870 -0.5507 -0.2670 -0.4591
13862TIP3    H163001   0.172   4.408  16.869 -0.5005 -0.2791  1.4331
13862TIP3    H263002   0.051   4.422  16.779  1.2162  2.0106 -0.6230
13863TIP3   OH263003   3.395   5.296  12.514  0.6288  0.1783  0.6161
13863TIP3    H163004   3.448   5.356  12.566  0.5794  1.0359 -0.3073
13863TIP3    H263005   3.447   5.279  12.435 -0.5336  1.1825 -0.3885
13864TIP3   OH263006   6.284   2.213   0.192  0.0203 -0.0738  0.2000
13864TIP3    H163007   6.229   2.283   0.227  0.7932  0.5875  0.1269
13864TIP3    H263008   6.373   2.240   0.214  0.2147 -2.0698  2.0081
13865TIP3   OH263009   3.483   5.728  12.551 -0.1766 -1.1221  0.0948
13865TIP3    H163010   3.515   5.638  12.564  2.3673 -0.4483 -1.2475
13865TIP3    H263011   3.504   5.773  12.633  0.5803 -1.1906 -0.0567
13866TIP3   OH263012   1.433   5.865  14.894 -0.1229 -0.3012 -0.2126
13866TIP3    H163013   1.503   5.855  14.958  0.2939 -0.1234 -0.6352
13866TIP3    H263014   1.460   5.809  14.820 -0.2912 -0.0166 -0.4925
13867TIP3   OH263015   5.834   1.121  16.780 -0.7537  0.0312  0.3646
13867TIP3    H163016   5.827   1.034  16.818 -2.0335 -1.1385 -2.4106
13867TIP3    H263017   5.854   1.178  16.854 -2.6567 -2.2034  2.6952
13868TIP3   OH263018   2.194   0.163  10.491  0.0484 -0.6524 -0.1525
13868TIP3    H163019   2.196   0.128  10.402 -0.0922  0.2961 -0.5336
13868TIP3    H263020   2.238   0.097  10.544  1.1411 -0.7016 -1.1093
13869TIP3   OH263021   4.835   0.190   3.296 -0.3709  0.5796 -0.0704
13869TIP3    H163022   4.908   0.155   3.246  1.0724  2.9108  0.3407
13869TIP3    H263023   4.875   0.232   3.372 -2.4396 -1.7245  2.3663
13870TIP3   OH263024   1.696   3.749  12.620 -0.2155  0.5733 -0.3614
13870TIP3    H163025   1.679   3.655  12.611  0.6836  0.2923  0.8466
13870TIP3    H263026   1.717   3.761  12.712 -0.1199  1.9377 -0.5550
13871TIP3   OH263027   3.613   4.753  11.606  0.1024  0.1742  0.3888
13871TIP3    H163028   3.546   4.717  11.664 -0.6107  0.7928 -0.0565
13871TIP3    H263029   3.570   4.762  11.521  0.2237  2.2472  0.5344
13872TIP3   OH263030   1.165   6.392   1.449 -0.0192  0.2765  0.0474
13872TIP3    H163031   1.207   6.404   1.534  1.2191 -1.5582 -0.2882
13872TIP3    H263032   1.146   6.481   1.419 -0.0663  0.9528  2.0268
13873TIP3   OH263033   1.070   3.577  11.575 -0.3472 -0.4994  0.2820
13873TIP3    H163034   1.033   3.598  11.489  0.8525 -1.3809 -0.4648
13873TIP3    H263035   1.022   3.499  11.603  0.3577 -1.1602 -0.3192
13874TIP3   OH263036   2.710   2.163   1.587  0.2560 -0.1809 -0.5357
13874TIP3    H163037   2.740   2.073   1.603 -0.9867 -0.6107 -0.5784
13874TIP3    H263038   2.785   2.217   1.612  1.4577 -1.2756 -1.6920
13875TIP3   OH263039   3.705   4.677   6.118  0.3200  0.3301 -1.0838
13875TIP3    H163040   3.631   4.736   6.135  1.2262  1.7381 -1.8900
13875TIP3    H263041   3.677   4.625   6.043 -1.6055 -2.2735  1.3481
13876TIP3   OH263042   4.739   5.692  14.300 -0.2929  0.2537  0.8850
13876TIP3    H163043   4.729   5.681  14.205  0.4595  1.4376  0.6501
13876TIP3    H263044   4.655   5.726  14.329 -0.3707  0.3330  0.5660
13877TIP3   OH263045   6.675   3.333   2.449 -0.0513  0.1911 -0.2000
13877TIP3    H163046   6.715   3.253   2.415 -0.6725 -0.0349 -0.4010
13877TIP3    H263047   6.748   3.383   2.485  0.4872  0.0358 -1.0763
13878TIP3   OH263048   4.775   6.328   4.978  0.2986 -0.7172  0.4813
13878TIP3    H163049   4.828   6.347   4.900 -0.0222 -1.7355  0.0076
13878TIP3    H263050   4.835   6.283   5.037  0.5869  0.2011  0.8965
13879TIP3   OH263051   5.629   6.045   5.091  0.3508  0.4159  0.1355
13879TIP3    H163052   5.648   6.096   5.012 -0.0952  1.1922  0.5187
13879TIP3    H263053   5.535   6.054   5.104  0.5068  0.7709  1.0755
13880TIP3   OH263054   4.048   0.167  12.033  0.0574 -0.0156  0.2656
13880TIP3    H163055   3.997   0.127  11.962  0.0675 -0.3686  0.4585
13880TIP3    H263056   4.061   0.096  12.097 -0.3762  0.4374  0.8537
13881TIP3   OH263057   4.594   3.666   2.205  0.0595 -0.4244 -0.0026
13881TIP3    H163058   4.576   3.589   2.259 -1.3628  0.9078  1.4392
13881TIP3    H263059   4.677   3.700   2.239  0.2677 -0.8179 -0.1043
13882TIP3   OH263060   0.337   4.146   2.720 -0.2380  0.1502  0.3656
13882TIP3    H163061   0.430   4.132   2.702 -0.3120  0.0060  0.0957
13882TIP3    H263062   0.323   4.108   2.807  0.4466  2.1967  1.4106
13883TIP3   OH263063   3.821   2.036   3.297 -0.3468 -0.2492 -0.2816
13883TIP3    H163064   3.784   2.018   3.384 -1.5041 -0.9551 -0.9131
13883TIP3    H263065   3.910   2.065   3.315 -0.4186 -0.8470  1.1206
13884TIP3   OH263066   1.333   4.837   3.434  0.7218  0.0247  0.2246
13884TIP3    H163067   1.279   4.814   3.358  0.0249  0.3873  0.6180
13884TIP3    H263068   1.402   4.892   3.398 -1.0695  2.3337  0.2599
13885TIP3   OH263069   2.077   0.096   4.418 -0.3085 -0.1474  0.0495
13885TIP3    H163070   2.011   0.043   4.374 -1.0275 -1.6553  2.8494
13885TIP3    H263071   2.043   0.185   4.414 -1.8980 -0.7334  0.3734
13886TIP3   OH263072   1.645   5.245   0.889  0.2105 -0.2248 -0.0125
13886TIP3    H163073   1.684   5.160   0.909  0.3924  0.6306  3.6713
13886TIP3    H263074   1.555   5.225   0.863  0.5416 -1.5916 -0.1336
13887TIP3   OH263075   0.177   6.538   0.901  0.4286 -0.0294 -0.2820
13887TIP3    H163076   0.145   6.558   0.812  3.2964  2.1008 -0.9048
13887TIP3    H263077   0.207   6.448   0.896  0.5760  0.0788 -1.4815
13888TIP3   OH263078   6.111   2.847   0.849  0.2511 -0.1290  0.3084
13888TIP3    H163079   6.129   2.852   0.756  2.7598 -1.2114  0.6981
13888TIP3    H263080   6.079   2.758   0.862  1.4912 -0.5265  0.7154
13889TIP3   OH263081   2.779   2.641   4.860  0.5266  0.3907 -0.2908
13889TIP3    H163082   2.753   2.561   4.905  0.1800  1.2237  1.0177
13889TIP3    H263083   2.771   2.620   4.767  2.7325 -1.8464 -0.0431
13890TIP3   OH263084   2.455   3.908   1.939  0.1179  1.1089 -0.1950
13890TIP3    H163085   2.430   3.991   1.980  1.5654  1.9476 -0.9881
13890TIP3    H263086   2.405   3.905   1.857 -1.3578  0.3050  0.7191
13891TIP3   OH263087   4.811   2.655  15.834 -0.5906 -0.1295  0.9085
13891TIP3    H163088   4.887   2.640  15.889 -1.0367 -0.2507  1.4915
13891TIP3    H263089   4.759   2.575  15.840  1.5372 -1.9765 -3.2320
13892TIP3   OH263090   4.855   1.699   4.558 -0.5970  0.0769 -0.0941
13892TIP3    H163091   4.869   1.793   4.551 -0.6319  0.2646  2.0316
13892TIP3    H263092   4.931   1.667   4.608 -0.7810 -0.9691 -0.4648
13893TIP3   OH263093   2.748   5.910   3.092  0.9928 -0.4803  0.8446
13893TIP3    H163094   2.727   5.821   3.119  2.1349 -0.3670  2.1104
13893TIP3    H263095   2.726   5.911   2.998 -0.3079 -1.6735  1.1023
13894TIP3   OH263096   2.219   1.185  13.754  0.0126 -0.7039 -0.6778
13894TIP3    H163097   2.236   1.096  13.786 -0.5096 -0.7718 -0.5937
13894TIP3    H263098   2.276   1.193  13.677  0.0300 -1.1283 -0.7130
13895TIP3   OH263099   0.143   0.084   1.186 -0.8360  0.1246  0.2890
13895TIP3    H163100   0.198   0.018   1.144  1.7881  2.7037 -0.5570
13895TIP3    H263101   0.155   0.070   1.280  2.7779  1.7212  0.1462
13896TIP3   OH263102   1.067   0.569   3.072 -0.7784 -0.2353 -0.3453
13896TIP3    H163103   1.089   0.556   3.164 -0.7600 -1.7093 -0.5446
13896TIP3    H263104   1.086   0.661   3.055 -0.5608 -0.0134  1.0621
13897TIP3   OH263105   4.317   3.457   1.109  0.0364 -0.2511  0.0962
13897TIP3    H163106   4.259   3.420   1.043  0.4751 -0.1411 -0.3563
13897TIP3    H263107   4.404   3.428   1.083 -0.0845 -2.6620  2.2863
13898TIP3   OH263108   2.428   4.591   6.216 -0.1976 -0.2635 -0.3454
13898TIP3    H163109   2.407   4.664   6.275  0.4378 -0.9725  0.7545
13898TIP3    H263110   2.513   4.560   6.245  0.6899  0.1365 -2.3973
13899TIP3   OH263111   4.683   0.643   3.304 -0.2053 -0.3816  0.2230
13899TIP3    H163112   4.731   0.660   3.386 -0.2510 -0.0851  0.1883
13899TIP3    H263113   4.603   0.600   3.333 -0.5116  0.2947  0.3884
13900TIP3   OH263114   5.465   5.638  10.796  0.6378 -0.2717 -0.2387
13900TIP3    H163115   5.485   5.716  10.743  4.2559 -0.4999  0.6805
13900TIP3    H263116   5.451   5.672  10.884  1.0100 -0.5338 -0.0782
13901TIP3   OH263117   5.257   6.402  15.291 -0.5871  0.0691 -0.2973
13901TIP3    H163118   5.282   6.483  15.247  0.0330 -0.5824 -1.1671
13901TIP3    H263119   5.178   6.425  15.341 -0.7964  1.0353 -1.0591
13902TIP3   OH263120   6.498   1.329  15.078  0.0740 -0.6599 -0.2361
13902TIP3    H163121   6.508   1.330  14.982 -0.6362 -2.1951 -0.3495
13902TIP3    H263122   6.576   1.374  15.110  0.2716 -0.0306 -1.5437
13903TIP3   OH263123   6.277   2.844  12.334 -0.0717 -0.0189 -0.1340
13903TIP3    H163124   6.336   2.879  12.267 -0.1983  0.3561 -0.0538
13903TIP3    H263125   6.191   2.844  12.293 -0.1815  0.3860  0.0855
13904TIP3   OH263126   5.549   4.786   2.531 -0.5020 -0.7726 -0.2725
13904TIP3    H163127   5.634   4.749   2.506 -1.2919 -2.7837 -0.0477
13904TIP3    H263128   5.564   4.824   2.618  0.5615  0.3052 -0.9130
13905TIP3   OH263129   4.524   0.992   0.967 -0.5287 -1.0623  0.3311
13905TIP3    H163130   4.512   1.011   0.874  1.8212 -0.0211  0.2010
13905TIP3    H263131   4.478   0.910   0.981 -0.2727 -1.6208 -1.9213
13906TIP3   OH263132   4.633   0.682  16.837 -0.2425  0.1616 -0.5270
13906TIP3    H163133   4.544   0.715  16.847 -0.8169 -1.5521  0.0901
13906TIP3    H263134   4.676   0.704  16.919 -0.2151  0.6112 -0.6608
13907TIP3   OH263135   0.247   4.690   3.562 -0.3741  0.3286 -0.2102
13907TIP3    H163136   0.323   4.662   3.511 -1.3632  0.9008 -2.0350
13907TIP3    H263137   0.262   4.783   3.578  0.8502 -0.2223  2.2402
13908TIP3   OH263138   1.981   2.665  12.722 -0.4872 -0.4341  0.6551
13908TIP3    H163139   2.007   2.578  12.754  0.1659  0.0860  1.5791
13908TIP3    H263140   2.025   2.726  12.782  0.1396  0.5645 -0.7849
13909TIP3   OH263141   4.013   6.001  15.770 -0.0303  0.0567 -0.1406
13909TIP3    H163142   3.940   6.046  15.814  1.1350  0.9551  0.8952
13909TIP3    H263143   4.013   6.036  15.681 -1.2867 -0.4416 -0.3450
13910TIP3   OH263144   3.234   5.329  12.854  0.0593 -0.3503  0.0067
13910TIP3    H163145   3.324   5.349  12.829 -0.1209 -0.3462 -0.6424
13910TIP3    H263146   3.199   5.411  12.888  0.6658 -0.6414  1.3439
13911TIP3   OH263147   2.676   0.491  16.138  0.0555 -0.5202  0.1128
13911TIP3    H163148   2.589   0.473  16.175  0.5311 -0.7363  1.1527
13911TIP3    H263149   2.718   0.547  16.203  0.0965  1.0059 -1.1872
13912TIP3   OH263150   3.985   6.176   5.405  0.7559  0.3429  0.3399
13912TIP3    H163151   4.013   6.215   5.322 -1.6515  1.7653  0.1386
13912TIP3    H263152   4.012   6.238   5.472  1.4717 -0.1290  0.4837
13913TIP3   OH263153   1.645   0.198   0.809 -0.5118 -0.2593  0.6338
13913TIP3    H163154   1.666   0.254   0.883 -0.2227  1.7310 -0.9332
13913TIP3    H263155   1.719   0.137   0.803 -0.2545 -0.0447  1.5884
13914TIP3   OH263156   1.826   2.133  14.050 -0.0203  0.1078 -0.5872
13914TIP3    H163157   1.913   2.134  14.011 -0.7893 -0.4099 -2.3582
13914TIP3    H263158   1.778   2.069  13.998 -0.7060 -1.5581  2.0306
13915TIP3   OH263159   1.514   1.632   1.042  0.3794  0.3422 -0.2800
13915TIP3    H163160   1.541   1.552   1.088  1.1339  0.4963 -0.4610
13915TIP3    H263161   1.433   1.658   1.086  0.5335 -0.1056  0.2722
13916TIP3   OH263162   2.996   6.308  13.576 -0.2695  0.2947 -0.0103
13916TIP3    H163163   3.052   6.286  13.650 -1.2230 -1.2603  0.2810
13916TIP3    H263164   3.051   6.362  13.519  2.3476 -3.0796 -0.8879
13917TIP3   OH263165   5.988   4.161   0.078  0.4386  0.1110  0.2598
13917TIP3    H163166   6.072   4.207   0.081 -0.5709  2.0332 -0.0736
13917TIP3    H263167   5.924   4.229   0.057 -1.6277 -0.7641  3.3251
13918TIP3   OH263168   2.090   2.252   5.751  0.5024  0.0252  0.0700
13918TIP3    H163169   2.114   2.174   5.801 -1.0761 -1.2814 -1.1803
13918TIP3    H263170   2.168   2.274   5.701  0.4044 -1.8003 -0.9043
13919TIP3   OH263171   6.145   5.866   5.205 -0.8258 -0.1171 -0.8327
13919TIP3    H163172   6.239   5.884   5.194 -0.3096 -1.6809  0.8559
13919TIP3    H263173   6.110   5.947   5.243 -0.2246  0.5671 -1.7036
13920TIP3   OH263174   1.098   6.106   4.753  0.3252  0.0978  0.6646
13920TIP3    H163175   1.070   6.049   4.824 -0.3969 -2.0062 -1.2552
13920TIP3    H263176   1.147   6.176   4.796 -1.5179 -0.2158  3.3715
13921TIP3   OH263177   0.772   4.101  14.559  0.3123 -0.1938  0.3904
13921TIP3    H163178   0.677   4.107  14.568  0.3369 -1.1308  1.2921
13921TIP3    H263179   0.795   4.178  14.506 -1.0809 -0.6692 -0.9648
13922TIP3   OH263180   1.152   6.518  11.980 -0.3559 -0.0180 -0.0819
13922TIP3    H163181   1.160   6.483  11.891  0.5062 -0.9162  0.3382
13922TIP3    H263182   1.062   6.497  12.006 -1.0557  1.4603 -1.2353
13923TIP3   OH263183   2.580   6.575   0.665 -0.1549  0.0225 -0.3651
13923TIP3    H163184   2.584   6.521   0.743 -1.8322 -1.1312 -1.0491
13923TIP3    H263185   2.494   6.558   0.627  0.5847  0.6091 -2.4300
13924TIP3   OH263186   6.475   1.222   0.272  0.1148  0.3515  0.4992
13924TIP3    H163187   6.396   1.179   0.240 -0.4177  2.1835 -0.7036
13924TIP3    H263188   6.547   1.169   0.238 -0.5616 -0.9305  1.0349
13925TIP3   OH263189   5.722   0.728   6.701  0.2809  0.5742 -0.1538
13925TIP3    H163190   5.756   0.638   6.704 -1.4066 -0.0802 -0.0483
13925TIP3    H263191   5.799   0.783   6.715  1.3565 -0.8529 -0.3349
13926TIP3   OH263192   0.487   3.180   3.177 -0.1904 -0.1064  0.0842
13926TIP3    H163193   0.566   3.207   3.224  0.4961  0.3487 -1.3046
13926TIP3    H263194   0.464   3.095   3.214  2.3213 -1.3451 -1.1512
13927TIP3   OH263195   5.689   3.069  11.610  0.6753 -0.8136 -0.4567
13927TIP3    H163196   5.669   2.999  11.549  0.5680 -2.1550  1.0868
13927TIP3    H263197   5.657   3.038  11.694  0.4948  1.1532  0.2312
13928TIP3   OH263198   5.497   2.476   1.811 -0.0383  0.1668  0.0524
13928TIP3    H163199   5.548   2.510   1.885 -0.2742  2.8290 -0.9667
13928TIP3    H263200   5.407   2.478   1.842  0.1485 -2.0508  0.8958
13929TIP3   OH263201   2.902   3.382   3.490  0.0451  0.8640 -0.5402
13929TIP3    H163202   2.974   3.326   3.518 -0.5557 -0.6991 -2.0609
13929TIP3    H263203   2.836   3.372   3.558  0.7346  1.3234  0.2154
13930TIP3   OH263204   3.255   2.766   0.244 -0.4125  0.4767  0.2226
13930TIP3    H163205   3.205   2.729   0.317  0.5185  0.2202  0.7434
13930TIP3    H263206   3.326   2.816   0.286 -0.7458  1.5702 -0.4876
13931TIP3   OH263207   0.608   1.719  15.570 -0.3516 -0.7399  0.4454
13931TIP3    H163208   0.656   1.673  15.501  1.0679  1.5794 -0.1505
13931TIP3    H263209   0.613   1.660  15.646 -0.9249 -2.7757 -1.0590
13932TIP3   OH263210   3.930   4.291   2.345  0.2668 -0.0683 -0.1153
13932TIP3    H163211   3.944   4.351   2.271  1.1578  0.2574  0.3064
13932TIP3    H263212   3.982   4.214   2.324 -0.1091 -0.2968 -0.2024
13933TIP3   OH263213   3.113   3.871  11.797 -0.6508  0.4768 -0.2154
13933TIP3    H163214   3.200   3.835  11.816 -0.6613  0.5506 -0.0215
13933TIP3    H263215   3.112   3.883  11.702 -0.5541  0.2039 -0.2524
13934TIP3   OH263216   1.830   2.430   2.994  0.5986  0.1496  0.3613
13934TIP3    H163217   1.800   2.343   3.022  0.5473 -0.7826 -2.3985
13934TIP3    H263218   1.750   2.481   2.984  0.3702 -0.4588 -1.0295
13935TIP3   OH263219   2.983   3.707  12.707 -0.1899  0.3554  0.0552
13935TIP3    H163220   3.057   3.682  12.762 -2.3739  1.0325  3.4664
13935TIP3    H263221   3.004   3.796  12.678  2.2643 -1.0178 -2.6170
13936TIP3   OH263222   5.100   3.293  12.878  0.2244 -0.0883 -0.5269
13936TIP3    H163223   5.111   3.363  12.813 -0.8449  0.6206  0.0212
13936TIP3    H263224   5.143   3.217  12.840 -2.3081 -0.3275 -3.1017
13937TIP3   OH263225   3.021   5.768  16.683  0.0634  0.0463 -0.1295
13937TIP3    H163226   3.075   5.842  16.656  0.9181 -1.0403 -1.4192
13937TIP3    H263227   3.004   5.784  16.776  1.6071  1.0117  0.0009
13938TIP3   OH263228   1.258   0.580  14.268  0.1155 -0.4136 -0.0831
13938TIP3    H163229   1.289   0.493  14.241  0.1844 -0.3343 -0.2594
13938TIP3    H263230   1.163   0.572  14.270  0.1038 -0.3785 -0.4883
13939TIP3   OH263231   4.253   6.185   5.169  0.1817  0.0072 -0.1158
13939TIP3    H163232   4.264   6.104   5.119  1.0704 -1.0841  1.7663
13939TIP3    H263233   4.167   6.218   5.142  0.2091 -1.0671 -1.5920
13940TIP3   OH263234   1.364   0.995   4.994 -0.4242  0.4572  0.4185
13940TIP3    H163235   1.288   0.940   4.979 -0.4781  0.5621  0.3069
13940TIP3    H263236   1.438   0.944   4.960 -0.5243  0.6192 -0.0352
13941TIP3   OH263237   6.514   3.929  15.797 -0.3019  0.1803  0.7042
13941TIP3    H163238   6.423   3.946  15.770 -0.1751  0.1229  0.2345
13941TIP3    H263239   6.555   3.893  15.719  0.2607  0.6733  0.7689
13942TIP3   OH263240   4.427   1.231  12.982  0.3115 -0.3173 -0.3786
13942TIP3    H163241   4.467   1.302  12.930  0.0886 -0.4721 -0.7611
13942TIP3    H263242   4.421   1.158  12.921  0.6423 -0.7047  0.0496
13943TIP3   OH263243   3.343   4.161   6.038  0.1740 -0.0681  0.5303
13943TIP3    H163244   3.251   4.161   6.065 -0.3359 -0.9421 -1.1531
13943TIP3    H263245   3.386   4.099   6.098 -1.1839 -2.9321 -1.3570
13944TIP3   OH263246   5.464   4.788  14.358 -0.2262  0.1402  0.6473
13944TIP3    H163247   5.470   4.708  14.410  1.7720 -1.5399 -2.0914
13944TIP3    H263248   5.500   4.856  14.416  2.0820 -1.7076  1.4589
13945TIP3   OH263249   2.639   6.405  15.818 -0.3775  0.0125 -0.1798
13945TIP3    H163250   2.644   6.494  15.783 -1.9747 -0.6308 -2.2103
13945TIP3    H263251   2.691   6.352  15.757  1.0205 -0.3842  1.3188
13946TIP3   OH263252   5.102   0.310  11.973 -0.3524 -0.2544  0.4739
13946TIP3    H163253   5.155   0.308  12.053  0.2828 -3.0392  0.0406
13946TIP3    H263254   5.166   0.312  11.902 -0.8474 -0.7694  0.0046
13947TIP3   OH263255   3.283   0.119   4.319 -0.3959 -0.1329  0.2423
13947TIP3    H163256   3.309   0.208   4.342 -1.1364  0.0453  0.4045
13947TIP3    H263257   3.252   0.081   4.401  1.9698 -1.2804  0.6388
13948TIP3   OH263258   4.925   1.137   5.269  0.2708 -0.4570 -0.0110
13948TIP3    H163259   4.887   1.183   5.344  0.8632 -1.8517  1.1757
13948TIP3    H263260   5.018   1.130   5.290  0.6808  0.3188 -1.5138
13949TIP3   OH263261   3.291   1.469   0.780 -0.2756  0.4035  0.7047
13949TIP3    H163262   3.253   1.403   0.722  0.7567  1.0403 -0.7269
13949TIP3    H263263   3.227   1.541   0.781  0.2214  0.8737 -0.5703
13950TIP3   OH263264   5.663   2.648   2.459  0.0627  0.2186  0.0023
13950TIP3    H163265   5.609   2.616   2.387  0.0872 -0.3585  0.2387
13950TIP3    H263266   5.747   2.669   2.418 -0.0014  0.1220 -0.1824
13951TIP3   OH263267   0.602   5.061   1.705  0.0846  0.4214 -0.8544
13951TIP3    H163268   0.616   5.156   1.715 -0.0932  0.5341 -1.6603
13951TIP3    H263269   0.669   5.022   1.761 -0.3666  1.0298  0.1211
13952TIP3   OH263270   1.302   1.153   3.994 -0.4208  0.0189  0.1186
13952TIP3    H163271   1.392   1.122   3.996 -0.1778  0.7136  0.0696
13952TIP3    H263272   1.309   1.248   3.981 -1.1269  0.2333  1.2473
13953TIP3   OH263273   4.766   4.689  13.735  0.3367  0.6367 -0.2260
13953TIP3    H163274   4.729   4.702  13.648 -0.0430  0.1597 -0.1313
13953TIP3    H263275   4.724   4.755  13.790 -0.4202  0.0555 -0.1047
13954TIP3   OH263276   1.214   5.381  14.777  0.6668 -0.3659 -0.2842
13954TIP3    H163277   1.305   5.409  14.787  0.0667  1.3078  0.6569
13954TIP3    H263278   1.201   5.315  14.844  1.0289 -0.2172 -0.0684
13955TIP3   OH263279   2.973   3.379  14.553  0.2159  0.6767  0.3656
13955TIP3    H163280   2.935   3.318  14.490  2.3452 -3.7248  3.0261
13955TIP3    H263281   3.058   3.403  14.516  0.1384  0.5576  0.1113
13956TIP3   OH263282   2.642   4.402  13.775 -0.5096 -0.3321 -0.0555
13956TIP3    H163283   2.718   4.388  13.831  0.4873  1.2950 -0.9509
13956TIP3    H263284   2.598   4.479  13.811 -0.2173  0.3413 -1.1065
13957TIP3   OH263285   5.773   0.576  12.456  0.3903 -0.1036  0.0711
13957TIP3    H163286   5.757   0.664  12.422  1.3147 -0.4717 -1.3460
13957TIP3    H263287   5.772   0.520  12.378 -1.9335 -1.6150  1.1188
13958TIP3   OH263288   4.890   2.101   1.224  0.4393 -0.3823  0.0002
13958TIP3    H163289   4.931   2.031   1.173  0.5452 -0.0322 -0.3943
13958TIP3    H263290   4.819   2.132   1.169 -0.5187 -1.1515  0.7909
13959TIP3   OH263291   3.065   3.637   4.600 -0.1378 -0.1012  0.0662
13959TIP3    H163292   3.059   3.541   4.599 -0.1026 -0.0952 -1.2308
13959TIP3    H263293   3.022   3.664   4.520  2.6956  0.8061 -1.2074
13960TIP3   OH263294   4.763   2.184  13.040  0.1736  0.3199  0.0178
13960TIP3    H163295   4.769   2.147  13.128 -1.8561  1.7073  0.7706
13960TIP3    H263296   4.823   2.259  13.041 -0.2591  0.6626  0.3924
13961TIP3   OH263297   5.455   3.947   3.993 -0.0607  0.7702  0.3657
13961TIP3    H163298   5.460   3.852   4.001  0.1052  0.7269 -0.2284
13961TIP3    H263299   5.368   3.964   3.957  1.5353  0.5427 -3.7938
13962TIP3   OH263300   5.323   1.555  12.708 -0.1091 -0.5772 -0.2899
13962TIP3    H163301   5.269   1.632  12.725  0.4800 -0.2392  0.0576
13962TIP3    H263302   5.364   1.572  12.623  1.5331  0.3673  0.6725
13963TIP3   OH263303   1.914   1.230   1.536 -0.2940  0.0460 -0.3049
13963TIP3    H163304   1.906   1.320   1.568  0.3086  0.5975 -1.7122
13963TIP3    H263305   2.004   1.205   1.557 -1.0214 -0.9467  1.8699
13964TIP3   OH263306   2.901   5.082  15.929 -0.0286  0.3677 -0.1129
13964TIP3    H163307   2.907   5.170  15.967  0.8305  0.1399  0.2787
13964TIP3    H263308   2.967   5.080  15.860  0.2312 -0.1073  0.1466
13965TIP3   OH263309   1.965   2.307  11.698 -0.5988 -0.2363  0.9346
13965TIP3    H163310   1.902   2.281  11.765 -1.1787 -2.2794 -0.3640
13965TIP3    H263311   1.993   2.395  11.724 -3.8309  0.6578  1.6620
13966TIP3   OH263312   1.856   2.641   2.260 -0.1301  0.1402 -0.4582
13966TIP3    H163313   1.921   2.620   2.327 -0.9366 -2.8108 -0.4938
13966TIP3    H263314   1.906   2.678   2.188  1.1611  0.4007  0.5600
13967TIP3   OH263315   0.225   1.524  10.664  0.4849 -0.2339  1.0928
13967TIP3    H163316   0.280   1.515  10.586 -0.0562 -2.3125  0.9251
13967TIP3    H263317   0.257   1.603  10.708  1.7377  0.1352 -0.4747
13968TIP3   OH263318   2.019   6.410   5.886  0.3484 -0.0681 -0.2416
13968TIP3    H163319   2.090   6.447   5.940 -0.9403  0.3648  1.1831
13968TIP3    H263320   1.939   6.429   5.936 -0.7837 -0.4266 -1.9068
13969TIP3   OH263321   3.177   6.279   4.894 -0.0487  0.3809 -0.1165
13969TIP3    H163322   3.255   6.226   4.880  1.3482  2.1885  0.5497
13969TIP3    H263323   3.137   6.288   4.808  0.7698 -0.1407 -0.5523
13970TIP3   OH263324   1.965   1.413  15.606  0.1564  0.3123 -0.2676
13970TIP3    H163325   1.938   1.460  15.685  1.3985  0.5996 -0.0085
13970TIP3    H263326   2.033   1.468  15.568  1.1369 -0.9323 -0.3384
13971TIP3   OH263327   6.211   2.972  13.345  0.5008 -0.2969  0.3241
13971TIP3    H163328   6.192   3.015  13.261  0.3866  2.4787  1.7123
13971TIP3    H263329   6.302   2.943  13.336  0.5631  0.1754 -0.6880
13972TIP3   OH263330   1.125   6.048  15.397  0.1960 -0.3817  0.0999
13972TIP3    H163331   1.040   6.030  15.357 -0.7654  0.5278  1.6504
13972TIP3    H263332   1.103   6.092  15.479  2.2682  2.2893 -0.7272
13973TIP3   OH263333   2.706   4.008  16.305 -0.3364  0.0095  0.0069
13973TIP3    H163334   2.734   3.926  16.265  0.9428  0.1629  0.5589
13973TIP3    H263335   2.775   4.028  16.369 -0.6715  1.4704 -0.0755
13974TIP3   OH263336   1.226   2.006  17.088  0.4079  0.4146  0.2904
13974TIP3    H163337   1.322   2.006  17.095  0.4300  1.1303  0.0493
13974TIP3    H263338   1.207   1.941  17.020  0.6687 -0.3432  0.9332
13975TIP3   OH263339   4.304   6.162   2.397  0.4704 -0.0293 -0.1746
13975TIP3    H163340   4.367   6.093   2.376 -1.6362 -2.4094  1.0390
13975TIP3    H263341   4.240   6.160   2.325 -0.5935 -0.6049  0.7651
13976TIP3   OH263342   4.528   5.373  17.075 -0.2261  0.6372 -0.8610
13976TIP3    H163343   4.577   5.455  17.075 -1.8399  1.6217 -0.2185
13976TIP3    H263344   4.523   5.348  16.983 -0.5296  1.7529 -1.1594
13977TIP3   OH263345   4.705   5.169   4.639  0.0816 -0.3090 -1.0905
13977TIP3    H163346   4.657   5.225   4.578  0.2643  1.4778  0.3646
13977TIP3    H263347   4.723   5.225   4.715  0.0021 -2.4226  0.5507
13978TIP3   OH263348   0.669   2.773  11.408 -0.0783 -0.1330 -0.0134
13978TIP3    H163349   0.728   2.839  11.370 -1.4380  0.7011 -0.7186
13978TIP3    H263350   0.612   2.748  11.335 -0.7749 -0.7188  0.7382
13979TIP3   OH263351   2.723   1.909   3.346  0.3128 -0.1072 -0.8508
13979TIP3    H163352   2.707   1.827   3.392  1.4926  0.0781 -0.0940
13979TIP3    H263353   2.682   1.976   3.401 -0.2924 -0.1388 -1.2583
13980TIP3   OH263354   3.836   4.243   4.786  0.4387  0.5378  0.1379
13980TIP3    H163355   3.880   4.301   4.848 -1.2989 -0.3146  2.2744
13980TIP3    H263356   3.822   4.296   4.708 -1.8198  3.3108  2.3129
13981TIP3   OH263357   2.282   1.159   4.747 -0.2227 -0.5320 -0.2179
13981TIP3    H163358   2.295   1.171   4.841 -2.6775  0.1724  0.0679
13981TIP3    H263359   2.188   1.150   4.737  0.0529 -1.1181 -2.5782
13982TIP3   OH263360   3.656   4.739  11.270 -0.4913 -0.0515 -0.2407
13982TIP3    H163361   3.595   4.667  11.253  0.7066 -1.6240  1.8192
13982TIP3    H263362   3.724   4.700  11.325  1.3075  2.1591 -0.8082
13983TIP3   OH263363   4.712   5.377   3.116 -0.2184  0.3894  0.3670
13983TIP3    H163364   4.630   5.355   3.072 -1.4702  1.4242  2.1169
13983TIP3    H263365   4.759   5.294   3.123 -1.0739 -0.2017 -0.7257
13984TIP3   OH263366   1.301   1.612  15.942 -0.0922 -0.3483  0.2088
13984TIP3    H163367   1.255   1.675  15.886  0.5611 -0.5273 -0.5372
13984TIP3    H263368   1.240   1.596  16.014 -2.2374 -2.4185 -1.9629
13985TIP3   OH263369   2.664   0.472  12.920  0.0927 -0.2034 -0.3394
13985TIP3    H163370   2.592   0.416  12.952 -0.2107  1.1602  1.4077
13985TIP3    H263371   2.734   0.411  12.900 -1.0576 -1.4362 -0.7313
13986TIP3   OH263372   1.948   4.292   4.082  0.1715 -0.0688 -0.0703
13986TIP3    H163373   1.857   4.313   4.104 -0.1658 -0.7723 -0.7581
13986TIP3    H263374   1.999   4.322   4.157 -0.5485  1.0088 -0.0065
13987TIP3   OH263375   4.413   0.084  13.520 -0.8676  0.3772 -0.7152
13987TIP3    H163376   4.409   0.036  13.603 -0.1862 -0.4630 -1.1585
13987TIP3    H263377   4.381   0.172  13.541  1.2107  0.8021  0.8975
13988TIP3   OH263378   1.306   2.304  13.711  0.7033 -0.1747 -0.1540
13988TIP3    H163379   1.306   2.265  13.798  0.2245  1.1300  0.4539
13988TIP3    H263380   1.272   2.393  13.725 -0.2142 -0.2582 -1.8071
13989TIP3   OH263381   5.263   1.412  12.249 -0.2220  0.1592 -0.3677
13989TIP3    H163382   5.347   1.368  12.238 -0.4725 -0.7066  1.0656
13989TIP3    H263383   5.204   1.343  12.281 -0.6812  1.4535  1.6889
13990TIP3   OH263384   0.221   6.574  12.480 -0.3191  0.0720 -0.3753
13990TIP3    H163385   0.127   6.586  12.492 -0.5086  2.5641 -3.4069
13990TIP3    H263386   0.261   6.637  12.540 -0.7252  1.3139 -1.3823
13991TIP3   OH263387   1.784   4.979  16.386 -0.4820 -0.4649 -0.6256
13991TIP3    H163388   1.714   5.044  16.396  0.0311  0.3305 -2.0098
13991TIP3    H263389   1.739   4.895  16.380 -1.1371 -0.2889  1.4885
13992TIP3   OH263390   3.837   4.556  11.371 -0.1816  0.5455  0.1957
13992TIP3    H163391   3.786   4.483  11.335 -0.4112  0.3863  0.8280
13992TIP3    H263392   3.920   4.552  11.325  0.7202 -1.6195  1.9126
13993TIP3   OH263393   1.897   5.562   1.914 -0.0557 -0.2659 -0.1522
13993TIP3    H163394   1.982   5.520   1.898  0.5327  1.4420 -1.7275
13993TIP3    H263395   1.840   5.527   1.846 -0.4011 -0.8267  0.4268
13994TIP3   OH263396   4.101   2.141  13.275  0.3170 -0.3686 -0.6463
13994TIP3    H163397   4.194   2.142  13.251  0.1274 -1.3308 -1.4436
13994TIP3    H263398   4.098   2.183  13.362  1.3182  0.9029 -1.2051
13995TIP3   OH263399   4.222   0.416   4.351  0.0300 -0.4337  0.6930
13995TIP3    H163400   4.271   0.366   4.286 -0.1574  0.4319 -0.1392
13995TIP3    H263401   4.194   0.352   4.416  0.7606 -1.2100  0.2421
13996TIP3   OH263402   6.015   5.473  10.412 -0.2685  0.2813 -0.0181
13996TIP3    H163403   6.060   5.527  10.477 -1.8044  0.4473  0.9577
13996TIP3    H263404   6.070   5.395  10.404  2.0042  1.9900 -1.5018
13997TIP3   OH263405   1.085   6.093   5.382  0.5291  0.1521 -0.3562
13997TIP3    H163406   1.180   6.102   5.383  0.3772  1.7962  0.5921
13997TIP3    H263407   1.054   6.165   5.327 -0.0996 -1.3859 -2.0838
13998TIP3   OH263408   1.951   6.524   3.603 -0.3706  0.2691 -0.2916
13998TIP3    H163409   1.876   6.580   3.582  0.7601  2.2969  0.9096
13998TIP3    H263410   1.912   6.443   3.634 -2.0695  1.0475 -0.3246
13999TIP3   OH263411   0.544   6.332   5.526  0.1446 -0.1543  0.2281
13999TIP3    H163412   0.535   6.251   5.475 -0.3848  0.5445 -0.7893
13999TIP3    H263413   0.628   6.368   5.499  0.5194 -0.5120  0.9053
14000TIP3   OH263414   0.736   4.820   5.087 -0.3698 -0.0189 -0.5406
14000TIP3    H163415   0.829   4.804   5.102 -0.2295  0.2846 -1.0771
14000TIP3    H263416   0.692   4.771   5.157  0.1632 -0.6892 -0.6634
14001TIP3   OH263417   5.402   3.212  16.603  0.4028 -0.3854 -0.4011
14001TIP3    H163418   5.475   3.152  16.593  0.5874 -0.2130 -0.1153
14001TIP3    H263419   5.359   3.214  16.517  1.8751  0.9806 -1.1350
14002TIP3   OH263420   2.122   2.238  11.193 -0.2560 -0.2450  0.0091
14002TIP3    H163421   2.136   2.189  11.112 -0.5340 -1.4128  0.6490
14002TIP3    H263422   2.186   2.201  11.254 -0.7349 -0.0828  0.6132
14003TIP3   OH263423   5.823   1.661   2.327 -0.5337  0.1756 -0.3550
14003TIP3    H163424   5.902   1.715   2.333 -0.3553 -0.2038  0.8552
14003TIP3    H263425   5.843   1.597   2.259  0.6682 -0.6570  0.7545
14004TIP3   OH263426   5.866   1.276  14.577  0.2617  0.4435 -0.0691
14004TIP3    H163427   5.957   1.279  14.547  0.4795 -0.3088  0.5109
14004TIP3    H263428   5.872   1.276  14.673 -0.3839  1.3257 -0.0192
14005TIP3   OH263429   6.570   0.701  10.580  0.3029  0.2994 -0.0449
14005TIP3    H163430   6.518   0.750  10.644 -0.5998 -0.1873 -0.4039
14005TIP3    H263431   6.616   0.636  10.633 -0.5384 -0.1844  0.1117
14006TIP3   OH263432   5.238   4.659   5.658  0.0250 -0.3457 -0.1099
14006TIP3    H163433   5.258   4.666   5.752  0.4540 -1.2781 -0.1314
14006TIP3    H263434   5.271   4.573   5.633  0.4584  0.1550 -1.2572
14007TIP3   OH263435   2.229   3.428   2.731 -0.1689  0.3044  0.5058
14007TIP3    H163436   2.324   3.423   2.729 -0.1063  1.0630  1.2848
14007TIP3    H263437   2.207   3.504   2.678 -0.3853 -0.2489 -0.2121
14008TIP3   OH263438   3.299   0.945  12.285 -0.1647  0.0416  0.0555
14008TIP3    H163439   3.307   0.851  12.302  0.6930  0.1344  0.1565
14008TIP3    H263440   3.320   0.955  12.192 -1.3292  0.0030 -0.2302
14009TIP3   OH263441   2.227   0.128  16.870 -0.4291  0.6722  0.0665
14009TIP3    H163442   2.275   0.113  16.951  0.0806  2.1797  0.0578
14009TIP3    H263443   2.153   0.068  16.875  1.0410 -1.1296  0.4193
14010TIP3   OH263444   1.602   4.504  13.292 -0.9490 -0.1598 -0.0465
14010TIP3    H163445   1.664   4.576  13.293 -1.0872 -0.0166 -0.8473
14010TIP3    H263446   1.525   4.537  13.338 -1.1456  0.3403 -0.7126
14011TIP3   OH263447   2.805   4.640  12.514 -0.6630 -0.7326 -0.3358
14011TIP3    H163448   2.868   4.642  12.586 -1.7194  3.7475  0.6311
14011TIP3    H263449   2.859   4.635  12.435  1.0034  2.4366  0.4891
14012TIP3   OH263450   1.464   6.203  12.935 -0.5587  0.6294 -0.3951
14012TIP3    H163451   1.551   6.236  12.960 -1.3283  2.0554  0.4443
14012TIP3    H263452   1.405   6.275  12.953 -1.9526 -0.3724 -0.8891
14013TIP3   OH263453   1.250   2.127  14.785 -0.1573  0.0378  0.6026
14013TIP3    H163454   1.338   2.089  14.789 -0.4653 -0.6609  0.8608
14013TIP3    H263455   1.257   2.195  14.718  0.9436  0.9625  1.6207
14014TIP3   OH263456   4.511   2.252  16.344  0.7322  0.3813  0.7752
14014TIP3    H163457   4.524   2.193  16.270  1.2160 -0.4497  1.5265
14014TIP3    H263458   4.589   2.308  16.345  1.0676 -0.0937  1.1087
14015TIP3   OH263459   3.086   2.998  13.558  0.4120  0.2487  0.3033
14015TIP3    H163460   3.082   3.040  13.472  1.8540 -1.0429 -0.4310
14015TIP3    H263461   3.179   2.982  13.572  0.1014 -0.3961  1.6931
14016TIP3   OH263462   4.209   4.572   5.807 -0.0693  0.1291 -0.0644
14016TIP3    H163463   4.129   4.615   5.777 -1.5199 -2.8754 -0.7456
14016TIP3    H263464   4.225   4.502   5.743  1.9011 -0.6684  1.2296
14017TIP3   OH263465   5.456   1.355  14.101  0.6591 -0.3094 -0.0912
14017TIP3    H163466   5.400   1.406  14.160  0.2908 -0.1246 -0.5989
14017TIP3    H263467   5.534   1.336  14.154  0.2727 -0.2731  0.5058
14018TIP3   OH263468   2.357   4.191  14.031  0.2786 -0.1279  0.3518
14018TIP3    H163469   2.328   4.275  13.996  1.7756 -0.0000 -0.6427
14018TIP3    H263470   2.428   4.213  14.091  1.3681 -0.7352 -0.6854
14019TIP3   OH263471   1.909   2.764   2.892 -0.0966  0.1075  0.0006
14019TIP3    H163472   1.915   2.761   2.988  0.7008 -1.3350 -0.0849
14019TIP3    H263473   1.929   2.674   2.864 -0.8332  0.3950 -1.4926
14020TIP3   OH263474   2.772   4.198  11.926 -0.1502  0.4509 -0.7478
14020TIP3    H163475   2.692   4.249  11.921 -0.6916 -0.4366 -1.2585
14020TIP3    H263476   2.813   4.223  12.009 -2.2997 -1.0712  0.8257
14021TIP3   OH263477   1.405   0.598   2.158  0.1222  0.3133  0.1262
14021TIP3    H163478   1.456   0.563   2.085 -0.3514  3.4982 -1.8387
14021TIP3    H263479   1.329   0.539   2.165  2.1462 -2.3105  0.6812
14022TIP3   OH263480   1.899   4.824   2.367  0.2446 -0.0753  0.1438
14022TIP3    H163481   1.895   4.740   2.321 -1.2126 -0.3349  0.7215
14022TIP3    H263482   1.948   4.882   2.308  1.5989 -1.4244 -0.0960
14023TIP3   OH263483   3.807   2.945   3.243 -0.1500  0.2514  0.2217
14023TIP3    H163484   3.736   2.994   3.200 -0.4854 -0.2907  0.1512
14023TIP3    H263485   3.804   2.858   3.202  1.0257  0.4475 -0.3066
14024TIP3   OH263486   1.993   1.520   2.164  0.2038 -0.7452 -0.8038
14024TIP3    H163487   1.959   1.543   2.251  1.2341 -0.1347 -0.5485
14024TIP3    H263488   1.917   1.527   2.106 -0.4334 -0.8903  0.0041
14025TIP3   OH263489   4.695   5.146   0.576 -0.3937 -0.1735 -0.2492
14025TIP3    H163490   4.689   5.165   0.482  1.3903 -1.6848 -0.7019
14025TIP3    H263491   4.788   5.157   0.597 -0.5877 -0.9539  1.0897
14026TIP3   OH263492   0.611   1.891   1.604  0.2565  0.1705 -0.0170
14026TIP3    H163493   0.617   1.811   1.552  2.5756  0.7569 -0.6651
14026TIP3    H263494   0.588   1.860   1.692 -0.2211 -1.0887 -0.5704
14027TIP3   OH263495   5.899   2.703   0.667  0.0729  0.0045 -0.7268
14027TIP3    H163496   5.958   2.631   0.648 -1.0395 -0.5601 -2.2026
14027TIP3    H263497   5.927   2.774   0.610 -2.0334 -1.0242 -3.1444
14028TIP3   OH263498   6.339   0.062  12.948 -0.0576 -0.3403  0.1334
14028TIP3    H163499   6.305   0.146  12.916  0.6405 -0.2023 -0.2403
14028TIP3    H263500   6.299   0.051  13.034 -0.5675  0.1227 -0.0433
14029TIP3   OH263501   3.452   3.730  11.010  0.8973  0.7565  0.2467
14029TIP3    H163502   3.464   3.672  10.935 -0.6110 -0.3318  0.8265
14029TIP3    H263503   3.434   3.816  10.971 -1.7441 -0.1582 -0.7121
14030TIP3   OH263504   2.054   1.873  11.720 -0.4129 -0.1770  0.4216
14030TIP3    H163505   2.031   1.914  11.636  1.1597 -0.6652 -0.2694
14030TIP3    H263506   2.127   1.926  11.753 -0.2460 -0.7066  0.9018
14031TIP3   OH263507   6.199   0.270  11.328 -0.3648 -0.2382  0.2209
14031TIP3    H163508   6.162   0.188  11.360 -0.1774 -1.1787 -1.8357
14031TIP3    H263509   6.133   0.304  11.267  0.9654 -0.5540 -1.4260
14032TIP3   OH263510   2.858   6.119   2.328  0.3131  0.4757  0.2836
14032TIP3    H163511   2.918   6.187   2.358 -0.1212  1.2135 -0.5128
14032TIP3    H263512   2.899   6.084   2.249  0.2049  0.2574  0.3225
14033TIP3   OH263513   4.226   5.170   4.666  0.4734 -0.2949  0.2319
14033TIP3    H163514   4.143   5.149   4.622  1.3800 -1.8012 -0.7845
14033TIP3    H263515   4.250   5.090   4.713  1.9784 -0.2808 -0.4861
14034TIP3   OH263516   4.131   3.949  12.836  0.1926 -0.0794 -0.1165
14034TIP3    H163517   4.056   3.899  12.868  1.1991 -1.3487  0.3132
14034TIP3    H263518   4.206   3.908  12.879  0.8984  2.8875  1.5890
14035TIP3   OH263519   5.579   5.873   5.319 -0.1262 -0.1233  0.2170
14035TIP3    H163520   5.596   5.947   5.261  0.0409  1.0826  1.7962
14035TIP3    H263521   5.485   5.876   5.337 -0.0330  0.0018  0.6880
14036TIP3   OH263522   1.279   0.313   5.166  0.1243 -0.3867  0.0031
14036TIP3    H163523   1.326   0.232   5.148  1.4973  0.4502 -0.2705
14036TIP3    H263524   1.285   0.324   5.261  1.5920  0.3426 -0.1490
14037TIP3   OH263525   1.706   4.177  13.745  0.1718  0.2861 -0.4603
14037TIP3    H163526   1.752   4.221  13.817 -0.1814 -0.0048 -0.0565
14037TIP3    H263527   1.618   4.160  13.779  0.6787 -1.8873 -0.1320
14038TIP3   OH263528   1.215   1.391   3.876  0.1305  0.5365  0.5318
14038TIP3    H163529   1.266   1.367   3.799 -2.2493 -3.9986  0.1949
14038TIP3    H263530   1.133   1.425   3.841 -0.2574  0.1559  1.0605
14039TIP3   OH263531   5.439   4.101   3.634  0.2541 -0.0095  0.0881
14039TIP3    H163532   5.440   4.145   3.720  0.8529  0.6045 -0.2253
14039TIP3    H263533   5.367   4.038   3.640  0.5796 -0.2891  1.2019
14040TIP3   OH263534   0.138   6.108   3.121  1.0367 -0.1705  0.2691
14040TIP3    H163535   0.101   6.185   3.078 -0.3372 -0.6092  0.6402
14040TIP3    H263536   0.108   6.034   3.069  2.3917 -0.4597 -0.1154
14041TIP3   OH263537   5.059   3.519  14.289  0.0798  0.5890  0.5458
14041TIP3    H163538   5.154   3.522  14.303  0.0400  0.8510  0.7454
14041TIP3    H263539   5.048   3.459  14.214  0.3524 -0.0080  0.9759
14042TIP3   OH263540   0.639   3.479  14.883  0.0647 -0.4257  0.2742
14042TIP3    H163541   0.543   3.477  14.875  0.2117 -1.5269 -1.4490
14042TIP3    H263542   0.668   3.526  14.805  1.1044 -3.1894 -1.0312
14043TIP3   OH263543   3.269   2.609  16.738 -0.0836 -0.2042  0.4790
14043TIP3    H163544   3.233   2.608  16.827  0.8981 -0.1427  0.8854
14043TIP3    H263545   3.339   2.674  16.742  1.2842 -1.6457  0.1894
14044TIP3   OH263546   1.329   4.472   4.651 -0.6129  0.1629  0.7159
14044TIP3    H163547   1.303   4.502   4.564 -0.5764 -0.2804  0.5511
14044TIP3    H263548   1.247   4.456   4.697 -0.6625  2.4546  1.4934
14045TIP3   OH263549   0.132   4.329  14.737  0.3018 -0.1380  0.4534
14045TIP3    H163550   0.113   4.301  14.647  0.8534  1.3096 -0.1294
14045TIP3    H263551   0.224   4.354  14.735  1.0162 -2.5012  2.0672
14046TIP3   OH263552   2.286   3.048  11.391  0.3888 -0.5471  0.1183
14046TIP3    H163553   2.198   3.012  11.402  1.1228 -2.4188  0.0469
14046TIP3    H263554   2.280   3.103  11.312 -1.0672  0.5518  0.9728
14047TIP3   OH263555   2.141   5.183  15.935  0.4181 -0.3152  0.2228
14047TIP3    H163556   2.174   5.172  15.846  0.7521  0.5661  0.2256
14047TIP3    H263557   2.177   5.109  15.983 -1.4627 -1.9411 -0.8342
14048TIP3   OH263558   0.794   4.950  12.736  0.0023 -0.0805  0.1918
14048TIP3    H163559   0.807   4.965  12.642 -0.6580 -0.9674 -0.0526
14048TIP3    H263560   0.767   4.858  12.742 -0.0343 -0.0079  1.2418
14049TIP3   OH263561   1.446   0.999  12.129 -0.0336 -0.8569 -0.0909
14049TIP3    H163562   1.389   1.043  12.067 -0.1915  0.3488  0.8941
14049TIP3    H263563   1.497   0.937  12.076 -0.2662  0.0536 -1.3862
14050TIP3   OH263564   3.028   6.025   2.115  0.3117 -0.5760  0.2808
14050TIP3    H163565   2.997   6.052   2.029  1.3177 -0.4091 -0.0423
14050TIP3    H263566   3.124   6.033   2.109  0.5082 -2.3361  0.7969
14051TIP3   OH263567   5.222   1.829  12.622 -0.3407 -0.1284 -0.0878
14051TIP3    H163568   5.226   1.796  12.532  1.3213  0.5785 -0.2980
14051TIP3    H263569   5.210   1.924  12.612  1.3917  0.1656  0.3777
14052TIP3   OH263570   4.984   6.220   2.426 -0.0078  0.0365 -0.3364
14052TIP3    H163571   4.986   6.144   2.485  0.6080  1.2983  1.2856
14052TIP3    H263572   4.898   6.216   2.385  0.0246 -1.5619 -0.3126
14053TIP3   OH263573   1.411   5.867  11.216 -0.0066  0.5522 -0.6107
14053TIP3    H163574   1.494   5.881  11.171 -0.2415  0.4437 -1.0804
14053TIP3    H263575   1.347   5.915  11.164 -0.4831 -0.6047 -1.1014
14054TIP3   OH263576   1.595   6.375  12.586  0.3066 -0.1798  0.1597
14054TIP3    H163577   1.551   6.455  12.558  1.0158  0.1922  0.1006
14054TIP3    H263578   1.577   6.312  12.516 -2.5554 -0.9218  1.4890
14055TIP3   OH263579   6.786   6.501   0.303  0.4044 -0.0509  0.1137
14055TIP3    H163580   6.756   6.452   0.227 -0.9603 -1.6084  1.6256
14055TIP3    H263581   6.854   6.447   0.342  0.2130  0.1522  0.7329
14056TIP3   OH263582   5.349   2.987   0.661 -0.3948  0.9430  0.0888
14056TIP3    H163583   5.411   2.919   0.685 -0.5621  0.9086  0.4310
14056TIP3    H263584   5.403   3.062   0.636 -0.2067  0.5871 -0.5807
14057TIP3   OH263585   6.747   4.991   1.682  0.4785  0.3359 -0.5366
14057TIP3    H163586   6.734   5.074   1.727  2.4752  1.4901 -2.0010
14057TIP3    H263587   6.823   5.006   1.626  1.1606 -2.6451 -0.4711
14058TIP3   OH263588   4.451   0.546  16.558 -0.4063  0.3288  0.1226
14058TIP3    H163589   4.361   0.514  16.565 -0.2779  0.0628  0.5590
14058TIP3    H263590   4.497   0.478  16.508 -0.5752  0.7294 -0.5940
14059TIP3   OH263591   3.493   6.762   6.410  0.6492  0.3764 -0.5632
14059TIP3    H163592   3.451   6.818   6.475 -0.5257 -0.0243 -0.9536
14059TIP3    H263593   3.557   6.818   6.367  0.2787  1.1009 -0.1780
14060TIP3   OH263594   6.108   3.257  13.508 -0.1489  0.1063  0.6586
14060TIP3    H163595   6.179   3.303  13.463 -0.9952 -0.0156 -0.8079
14060TIP3    H263596   6.129   3.164  13.497 -0.7337  0.0657 -0.0767
14061TIP3   OH263597   4.245   5.708  11.109 -0.0023 -0.1038 -0.1598
14061TIP3    H163598   4.311   5.640  11.124 -1.3537 -1.0368  1.8846
14061TIP3    H263599   4.237   5.713  11.014  4.3115  1.3592 -0.5800
14062TIP3   OH263600   3.666   6.142  15.091  0.0625  0.0627 -0.0651
14062TIP3    H163601   3.695   6.123  15.002  0.1265  1.3883 -0.3298
14062TIP3    H263602   3.581   6.099  15.098 -0.2478  0.5125 -0.9903
14063TIP3   OH263603   1.308   1.800  14.229 -0.0407  0.2221 -0.4355
14063TIP3    H163604   1.323   1.881  14.181  0.0553 -1.0060 -2.5656
14063TIP3    H263605   1.343   1.816  14.316 -0.6143  2.6781 -0.6141
14064TIP3   OH263606   5.602   0.972  15.307  0.5244  0.3098 -0.4099
14064TIP3    H163607   5.515   0.934  15.320  0.0038  1.8631  0.7361
14064TIP3    H263608   5.636   0.987  15.395  2.5342 -1.5178 -0.8140
14065TIP3   OH263609   3.193   1.338   4.513 -0.4067  0.0829 -0.1465
14065TIP3    H163610   3.210   1.268   4.576 -0.2050  0.9583  0.7844
14065TIP3    H263611   3.280   1.365   4.483 -0.5630 -1.9414 -2.6302
14066TIP3   OH263612   2.878   4.422  11.334 -0.0874 -0.3833  0.5296
14066TIP3    H163613   2.860   4.515  11.323  0.1099 -0.2962  0.9242
14066TIP3    H263614   2.881   4.387  11.245 -0.4751 -0.0737  0.3924
14067TIP3   OH263615   0.025   1.730   2.292  0.3105 -0.0594 -0.1716
14067TIP3    H163616  -0.028   1.751   2.215 -1.1104  0.4474  0.9225
14067TIP3    H263617   0.110   1.705   2.257 -0.2316  0.4707 -1.8897
14068TIP3   OH263618   1.402   1.921  13.321  0.3378  0.1751 -0.1728
14068TIP3    H163619   1.475   1.938  13.263  0.9569 -1.8103 -0.0017
14068TIP3    H263620   1.442   1.909  13.407 -0.6227  3.7955  0.8790
14069TIP3   OH263621   0.398   3.884  13.502 -0.0088 -0.2815 -0.1394
14069TIP3    H163622   0.436   3.971  13.489 -0.6292 -0.0267 -0.2914
14069TIP3    H263623   0.319   3.885  13.448  1.2961 -1.8410 -2.1417
14070TIP3   OH263624   2.918   2.807   1.656 -0.0871 -0.2007 -0.5441
14070TIP3    H163625   2.841   2.829   1.603  0.0072 -1.7971 -1.3439
14070TIP3    H263626   2.925   2.712   1.650  1.5658 -0.1239  0.0817
14071TIP3   OH263627   1.044   4.643  15.654  0.2324  0.1410 -0.3121
14071TIP3    H163628   1.033   4.662  15.561  0.8400 -0.9666 -0.6266
14071TIP3    H263629   1.096   4.562  15.656 -0.4664 -0.2947  0.9778
14072TIP3   OH263630   3.152   3.554   4.897 -0.6179  0.1268  0.5633
14072TIP3    H163631   3.187   3.553   4.986  0.0255  0.1068  0.3074
14072TIP3    H263632   3.178   3.470   4.860 -2.6834 -0.7696  1.0483
14073TIP3   OH263633   5.308   1.509  15.760  0.3042  0.0866 -0.5138
14073TIP3    H163634   5.246   1.553  15.820  1.4086  0.5359  0.3211
14073TIP3    H263635   5.272   1.525  15.673 -1.8261 -1.3392  0.0450
14074TIP3   OH263636   0.944   4.845  12.431  0.9201 -0.1311 -0.1982
14074TIP3    H163637   1.007   4.829  12.501 -0.3161 -1.9581  0.5226
14074TIP3    H263638   0.920   4.758  12.400 -1.7792  0.5060  0.0149
14075TIP3   OH263639   1.021   3.291  15.877 -0.4632  0.2253 -0.0411
14075TIP3    H163640   1.043   3.245  15.796  3.5969  0.8641  0.5523
14075TIP3    H263641   1.006   3.382  15.850 -0.3825  0.1803 -0.2391
14076TIP3   OH263642   1.182   1.538   2.584  0.1601 -0.0217  0.1075
14076TIP3    H163643   1.205   1.485   2.508  0.2456 -0.4314  0.4115
14076TIP3    H263644   1.214   1.486   2.659 -2.1281 -0.8225  0.5598
14077TIP3   OH263645   6.704   0.554   1.630 -0.1762  0.2736  0.7831
14077TIP3    H163646   6.671   0.641   1.607 -0.6513 -0.2331 -0.4904
14077TIP3    H263647   6.794   0.554   1.599 -0.7651 -0.3500 -0.9787
14078TIP3   OH263648   5.330   2.670  13.768  0.3723  0.0621  0.3730
14078TIP3    H163649   5.401   2.733  13.777  1.4195 -1.0446  0.0625
14078TIP3    H263650   5.287   2.693  13.686  1.3058 -0.1484 -0.1958
14079TIP3   OH263651   2.404   1.052  15.881 -0.2588 -0.9233 -0.3968
14079TIP3    H163652   2.491   1.025  15.853 -0.4827 -1.4522 -0.5809
14079TIP3    H263653   2.368   1.099  15.806 -0.2192 -0.9018 -0.4024
14080TIP3   OH263654   3.138   0.696   5.670 -0.5163 -0.2933 -0.2303
14080TIP3    H163655   3.093   0.759   5.727 -1.1772 -1.7007  0.8363
14080TIP3    H263656   3.068   0.656   5.618  0.0227  0.5850 -1.6604
14081TIP3   OH263657   0.036   5.014  14.400  0.4766 -0.3186 -0.1992
14081TIP3    H163658   0.032   4.924  14.365 -1.7888 -0.4898  0.4292
14081TIP3    H263659   0.057   5.067  14.323  1.3109 -1.3291 -0.6919
14082TIP3   OH263660   0.408   5.182   6.251  0.3479 -0.3670 -0.7478
14082TIP3    H163661   0.401   5.158   6.343 -1.8518  0.7092 -0.6231
14082TIP3    H263662   0.341   5.249   6.237  0.2264 -0.9319 -3.2698
14083TIP3   OH263663   4.830   0.551  15.050  0.1495  0.2796 -0.0851
14083TIP3    H163664   4.839   0.469  15.003 -0.2893 -0.5243  1.1982
14083TIP3    H263665   4.747   0.588  15.018  0.5987  0.4901 -1.0343
14084TIP3   OH263666   6.238   5.111  10.973  0.3279 -0.8645 -0.0061
14084TIP3    H163667   6.170   5.079  10.915 -0.0017  0.1426 -0.1799
14084TIP3    H263668   6.198   5.183  11.020  1.5295  0.3068 -0.7350
14085TIP3   OH263669   6.246   3.999  15.771 -0.3691  0.0525 -0.1177
14085TIP3    H163670   6.280   4.080  15.733 -0.1024  0.1345  0.2876
14085TIP3    H263671   6.190   3.962  15.703 -3.0062  2.1452  0.8034
14086TIP3   OH263672   3.448   3.922   0.045  0.0088  0.1947 -0.3626
14086TIP3    H163673   3.353   3.922   0.051 -0.0118 -2.5593 -0.2545
14086TIP3    H263674   3.467   3.908  -0.047  0.3352  1.4315 -0.4963
14087TIP3   OH263675   5.328   2.611  10.772  0.6471 -0.2558 -0.2105
14087TIP3    H163676   5.306   2.525  10.808  1.5950  0.4250  2.1143
14087TIP3    H263677   5.408   2.596  10.722 -0.9090 -1.2975 -2.4784
14088TIP3   OH263678   4.218   3.901   2.743  0.8453 -0.4164  0.1273
14088TIP3    H163679   4.226   3.936   2.654  0.2947  1.1917  0.6903
14088TIP3    H263680   4.154   3.830   2.735 -1.1449  1.3764 -0.3226
14089TIP3   OH263681   3.907   4.053  11.960  0.8571  0.1039  0.2357
14089TIP3    H163682   3.989   4.100  11.945 -0.3027  2.4484  0.9352
14089TIP3    H263683   3.900   4.049  12.055  0.7487 -1.1695  0.1740
14090TIP3   OH263684   2.341   4.829   1.320 -0.5854  0.7238  0.9251
14090TIP3    H163685   2.307   4.809   1.233 -2.0012 -3.0342  2.2461
14090TIP3    H263686   2.409   4.762   1.335  0.4556  2.0492  2.2501
14091TIP3   OH263687   1.984   1.963  12.502  0.1426 -0.2062 -0.9586
14091TIP3    H163688   1.962   1.972  12.595 -1.2618 -2.5142 -1.0153
14091TIP3    H263689   2.076   1.939  12.501 -0.1802 -1.6022 -0.0333
14092TIP3   OH263690   4.955   0.650  16.136  0.4607  0.2519 -0.7140
14092TIP3    H163691   4.955   0.562  16.096 -0.3765 -0.2896  0.4616
14092TIP3    H263692   5.034   0.652  16.189 -0.0801 -0.2074  0.1279
14093TIP3   OH263693   5.522   1.737   1.544 -0.3514 -0.3521 -0.5002
14093TIP3    H163694   5.602   1.737   1.596 -1.0266  2.6508  0.6908
14093TIP3    H263695   5.463   1.677   1.590 -1.1010  2.6088  2.6120
14094TIP3   OH263696   2.746   5.362   3.351  0.2161 -0.1861 -0.1351
14094TIP3    H163697   2.651   5.357   3.339  0.2224  1.9903 -1.4034
14094TIP3    H263698   2.782   5.304   3.284 -0.2253 -2.6265  1.6618
14095TIP3   OH263699   5.900   6.016   6.476 -0.4404 -0.0502  0.1020
14095TIP3    H163700   5.888   5.947   6.542 -0.9722  0.5518  0.6280
14095TIP3    H263701   5.995   6.030   6.474 -0.4453  0.1149  0.9219
14096TIP3   OH263702   2.508   4.012  13.851  0.4054 -0.6489 -0.1795
14096TIP3    H163703   2.458   4.018  13.769  0.6275 -0.7343 -0.3224
14096TIP3    H263704   2.451   4.050  13.917  0.6469  0.4064 -0.5618
14097TIP3   OH263705   2.622   6.345  11.936 -0.0481 -0.7046 -0.5990
14097TIP3    H163706   2.546   6.337  11.878 -1.7526 -0.0168  1.4758
14097TIP3    H263707   2.675   6.268  11.916 -1.1869 -1.0914 -2.2488
14098TIP3   OH263708   0.478   1.268  15.706 -0.0405  0.0330 -0.2197
14098TIP3    H163709   0.458   1.178  15.680 -2.0634 -0.0948  1.6859
14098TIP3    H263710   0.399   1.299  15.751  0.5240  2.8559 -1.0385
14099TIP3   OH263711   4.018   5.858   1.286 -0.0473  0.1020  0.6528
14099TIP3    H163712   4.067   5.810   1.352  1.8882  2.6078  1.1313
14099TIP3    H263713   3.960   5.916   1.335  1.4022  1.9797  0.2544
14100TIP3   OH263714   4.570   5.937  14.835  0.2431  0.0593  0.0987
14100TIP3    H163715   4.646   5.915  14.781  0.4881  1.4070 -0.1312
14100TIP3    H263716   4.608   5.982  14.911 -0.4088  1.9726 -0.6825
14101TIP3   OH263717   3.164   0.119  14.459 -0.4033 -0.1699  0.0379
14101TIP3    H163718   3.069   0.111  14.462 -0.3752 -0.3465  0.6528
14101TIP3    H263719   3.194   0.035  14.424 -0.5571  0.4975 -1.7064
14102TIP3   OH263720   3.613   4.821  15.837 -0.1079  0.1759 -0.4086
14102TIP3    H163721   3.585   4.731  15.854 -0.5976  0.5520  0.8147
14102TIP3    H263722   3.538   4.875  15.862  0.5682  0.9881 -0.1130
14103TIP3   OH263723   2.162   2.039  14.534 -0.1629  0.2012  0.4757
14103TIP3    H163724   2.095   2.029  14.467 -0.8786  0.4243  1.1468
14103TIP3    H263725   2.198   2.127  14.520 -1.1112  0.6936  1.1012
14104TIP3   OH263726   4.909   3.937  14.039  0.2769 -0.2150  0.1051
14104TIP3    H163727   4.931   4.026  14.068  1.9914 -0.1802 -1.2078
14104TIP3    H263728   4.868   3.896  14.115  1.9931  0.8244  1.6254
14105TIP3   OH263729   0.467   2.453   4.699  1.0535  0.3263 -0.2932
14105TIP3    H163730   0.476   2.546   4.680  2.2906 -0.1798 -2.4226
14105TIP3    H263731   0.384   2.428   4.658  0.7360  0.4942  0.2530
14106TIP3   OH263732   0.436   0.542   5.147  0.0331 -1.0168  0.0445
14106TIP3    H163733   0.524   0.573   5.127 -0.3431 -0.9778 -1.5962
14106TIP3    H263734   0.443   0.446   5.144 -0.1131 -1.0095 -0.7528
14107TIP3   OH263735   4.043   2.099  15.598  0.4299  0.5818 -0.1179
14107TIP3    H163736   4.010   2.162  15.662 -1.6070  1.3075 -1.8676
14107TIP3    H263737   4.060   2.150  15.519  0.2970 -0.7922 -1.0479
14108TIP3   OH263738   4.222   4.136  11.955 -0.0604 -0.0744  0.0872
14108TIP3    H163739   4.265   4.066  12.004  1.7425  0.1872 -1.0582
14108TIP3    H263740   4.238   4.114  11.863 -1.0186  0.8903 -0.3193
14109TIP3   OH263741   3.687   3.048   3.782  0.0564 -0.5368 -0.0652
14109TIP3    H163742   3.684   3.138   3.750 -0.4717 -0.5979 -0.1967
14109TIP3    H263743   3.689   2.994   3.703  2.8063 -0.5883  0.0009
14110TIP3   OH263744   6.689   4.214   1.435 -0.3458  0.1026  0.5070
14110TIP3    H163745   6.709   4.308   1.428  1.7487 -0.3586  0.0060
14110TIP3    H263746   6.706   4.179   1.348  2.2734 -1.3417  1.5392
14111TIP3   OH263747   0.942   2.530  17.141  0.2925  0.3781  0.2088
14111TIP3    H163748   0.877   2.464  17.116  0.4693 -0.1573  1.1333
14111TIP3    H263749   0.962   2.509  17.232  1.1098  1.0845  0.1878
14112TIP3   OH263750   2.640   5.139   4.537  0.0553  0.6098 -0.4737
14112TIP3    H163751   2.564   5.086   4.561 -1.4951  1.7137 -2.8072
14112TIP3    H263752   2.608   5.198   4.469  2.7229  1.8999 -0.6741
14113TIP3   OH263753   6.563   3.660   5.187  0.1663  0.4007 -0.0936
14113TIP3    H163754   6.625   3.639   5.257 -1.0310 -0.3396  0.7645
14113TIP3    H263755   6.477   3.635   5.222 -0.4733  0.1457 -1.7739
14114TIP3   OH263756   3.788   5.431   5.416  0.6140 -0.1219  0.5993
14114TIP3    H163757   3.824   5.504   5.364 -0.1514 -0.6964 -0.7674
14114TIP3    H263758   3.701   5.461   5.442  0.8426  0.0055  1.2058
14115TIP3   OH263759   3.546   6.611  10.512  0.3562 -0.0699 -0.5915
14115TIP3    H163760   3.558   6.561  10.432 -0.2237  0.9626 -1.3322
14115TIP3    H263761   3.568   6.550  10.582  0.0172 -1.2409 -1.4953
14116TIP3   OH263762   4.814   1.126   3.196 -0.0155 -0.3984 -0.5942
14116TIP3    H163763   4.759   1.053   3.166  0.8954 -1.4037  0.1609
14116TIP3    H263764   4.752   1.198   3.211 -1.0220 -1.2695 -0.5485
14117TIP3   OH263765   4.994   3.060   3.571  0.1245  0.2830 -0.1835
14117TIP3    H163766   5.052   3.058   3.495  0.1540 -1.7540 -0.1431
14117TIP3    H263767   4.949   3.144   3.565  1.5732  1.0103 -1.3458
14118TIP3   OH263768   0.785   6.308   1.611  0.0083  0.6764 -0.3515
14118TIP3    H163769   0.790   6.269   1.698  0.7171 -0.8548 -1.0652
14118TIP3    H263770   0.746   6.394   1.626 -0.6675  0.0935  1.3685
14119TIP3   OH263771   4.148   5.675  11.388  0.0666 -0.2154  0.0338
14119TIP3    H163772   4.230   5.701  11.429 -0.5284  1.1764  0.3538
14119TIP3    H263773   4.160   5.695  11.295  0.6186 -1.3737 -0.1567
14120TIP3   OH263774   2.821   1.807  15.507  0.0238  0.5129 -0.0482
14120TIP3    H163775   2.754   1.820  15.439 -2.2142  1.3390  2.2545
14120TIP3    H263776   2.902   1.791  15.457 -1.9798 -1.2778 -2.8907
14121TIP3   OH263777   0.882   0.737  13.559  0.0574  0.3330  0.1801
14121TIP3    H163778   0.794   0.722  13.593 -0.3835  1.5684 -0.3958
14121TIP3    H263779   0.873   0.733  13.464  0.4187  1.5066  0.0869
14122TIP3   OH263780   2.836   2.249   4.852  0.1109 -0.0619 -0.3561
14122TIP3    H163781   2.766   2.192   4.821  1.2823 -0.7407 -1.8155
14122TIP3    H263782   2.801   2.290   4.931 -1.6328 -0.9755 -0.6432
14123TIP3   OH263783   2.073   1.358   5.739  0.0525 -0.1504  0.0173
14123TIP3    H163784   2.061   1.308   5.820 -1.5863 -1.1944 -0.8335
14123TIP3    H263785   2.076   1.449   5.767  1.6497 -0.6192  1.4662
14124TIP3   OH263786   4.132   5.491  16.015 -0.2903 -0.4308 -0.4020
14124TIP3    H163787   4.209   5.534  16.051 -0.6063  2.1431 -2.6272
14124TIP3    H263788   4.060   5.517  16.073 -0.0812  0.1558 -0.4010
14125TIP3   OH263789   2.544   1.535   4.339 -0.3487  0.2192  0.0524
14125TIP3    H163790   2.544   1.607   4.275  1.0153  1.3339  1.2733
14125TIP3    H263791   2.636   1.510   4.348 -0.6412 -0.6053  0.8422
14126TIP3   OH263792   1.290   0.982   2.585 -0.5135  0.1852  0.4338
14126TIP3    H163793   1.226   0.929   2.632 -1.0367 -0.5919 -1.1270
14126TIP3    H263794   1.365   0.924   2.572 -0.2379  0.4996  0.5914
14127TIP3   OH263795   4.900   3.820  16.259  0.2544 -0.2932  0.0364
14127TIP3    H163796   4.940   3.794  16.342  1.5175  0.2574 -0.3944
14127TIP3    H263797   4.806   3.814  16.276  0.4675  1.1986  1.9818
14128TIP3   OH263798   6.207   1.033   6.039 -0.2545  0.3338  0.3937
14128TIP3    H163799   6.155   1.001   6.113  0.1403 -1.8226 -0.2088
14128TIP3    H263800   6.286   0.979   6.040 -1.1025 -1.1149 -2.7219
14129TIP3   OH263801   3.223   4.427   0.386  0.4181  0.7711  0.5092
14129TIP3    H163802   3.257   4.338   0.370  1.8576  1.3455  0.2637
14129TIP3    H263803   3.209   4.462   0.298 -1.9099  0.1462  0.6147
14130TIP3   OH263804   2.264   3.094   3.427 -0.0215 -0.1521  0.1365
14130TIP3    H163805   2.357   3.100   3.404 -0.0583 -1.9352 -0.5376
14130TIP3    H263806   2.223   3.051   3.352 -1.4313  0.7147  0.3777
14131TIP3   OH263807   0.540   5.103   5.289 -0.1168 -0.1053 -0.0884
14131TIP3    H163808   0.541   5.010   5.311 -0.9940 -0.3517 -1.0394
14131TIP3    H263809   0.489   5.144   5.359  1.6012 -0.0940  1.1874
14132TIP3   OH263810   0.783   3.539   1.183 -0.8706  0.1010 -0.1377
14132TIP3    H163811   0.849   3.471   1.174 -1.7866 -1.1533  2.1220
14132TIP3    H263812   0.800   3.599   1.110  0.6875 -1.9063 -1.4912
14133TIP3   OH263813   6.140   4.784   4.063 -0.5679 -0.6730  0.6991
14133TIP3    H163814   6.118   4.795   3.970 -2.4122 -1.7356  0.9980
14133TIP3    H263815   6.120   4.869   4.102  0.8647 -0.0016  0.0245
14134TIP3   OH263816   5.991   1.944  16.520  0.4970  0.1879 -0.6227
14134TIP3    H163817   6.043   2.004  16.467  0.9012  0.7855  0.4393
14134TIP3    H263818   5.961   1.997  16.593  0.5522 -0.8145  0.1362
14135TIP3   OH263819   4.138   6.137   1.048 -0.0782  0.1558  0.5799
14135TIP3    H163820   4.212   6.191   1.078  0.1768 -0.5907  1.3208
14135TIP3    H263821   4.179   6.053   1.023 -0.1585  1.0199 -2.6983
14136TIP3   OH263822   5.443   3.766   5.689 -0.7212  0.4144 -0.1228
14136TIP3    H163823   5.368   3.825   5.681 -0.3136  0.8498 -0.7123
14136TIP3    H263824   5.453   3.754   5.784 -0.7101  1.4063  0.0053
14137TIP3   OH263825   1.400   2.172  11.096  0.0975 -0.1448  0.1370
14137TIP3    H163826   1.429   2.180  11.005  1.2502  1.0773  0.5829
14137TIP3    H263827   1.313   2.134  11.090  0.6966 -1.3378 -1.4049
14138TIP3   OH263828   4.745   0.629   4.198  0.2031 -0.0340 -0.2669
14138TIP3    H163829   4.687   0.677   4.139  0.7476  0.2017 -0.6050
14138TIP3    H263830   4.807   0.585   4.141 -0.3696 -1.2562  0.0289
14139TIP3   OH263831   0.350   4.427  16.844  0.4504  0.0878  0.2143
14139TIP3    H163832   0.408   4.433  16.920 -0.1659  0.0146  0.6938
14139TIP3    H263833   0.379   4.348  16.798  2.1400  1.2410 -0.7341
14140TIP3   OH263834   5.537   5.507   3.005 -0.7843  0.1425  0.0249
14140TIP3    H163835   5.567   5.462   3.084 -0.9648 -0.6649 -0.3608
14140TIP3    H263836   5.577   5.594   3.011  1.6774 -0.9181 -0.4777
14141TIP3   OH263837   4.005   3.229  13.359  0.6093  0.2711  0.0870
14141TIP3    H163838   4.016   3.324  13.350  0.8564  0.3944  1.5317
14141TIP3    H263839   3.924   3.219  13.410  0.9919 -0.2627  0.6005
14142TIP3   OH263840   0.572   1.398   4.363 -0.0778  0.0390  0.0797
14142TIP3    H163841   0.600   1.381   4.453  0.2128 -3.0164 -0.5517
14142TIP3    H263842   0.558   1.493   4.361  2.0223  0.4981  2.7324
14143TIP3   OH263843   6.366   4.968  16.917 -0.5820 -1.0783  0.4890
14143TIP3    H163844   6.276   4.937  16.923 -1.0470 -0.0633 -1.0612
14143TIP3    H263845   6.361   5.049  16.866  1.0648 -0.3948  1.3842
14144TIP3   OH263846   4.365   4.062   0.179 -0.1084 -0.0510  0.4146
14144TIP3    H163847   4.400   4.093   0.263 -1.7830  1.0230  0.7211
14144TIP3    H263848   4.271   4.052   0.194 -0.5552  0.9274 -1.5651
14145TIP3   OH263849   5.185   1.250  14.727  0.2859 -0.6298 -0.2644
14145TIP3    H163850   5.245   1.282  14.660 -1.4810  1.9113 -0.7141
14145TIP3    H263851   5.133   1.183  14.683 -0.4508  0.5967 -1.3030
14146TIP3   OH263852   5.437   1.589  11.584  0.2436 -0.7824  0.1991
14146TIP3    H163853   5.498   1.527  11.545  0.3416  0.3137 -1.4390
14146TIP3    H263854   5.352   1.565  11.548 -0.3336 -2.3536  2.5360
14147TIP3   OH263855   2.210   0.211   0.016 -0.2659 -0.4200 -0.3332
14147TIP3    H163856   2.135   0.165  -0.021  0.4184 -2.6958  1.0365
14147TIP3    H263857   2.185   0.227   0.108  0.4001 -0.0360 -0.2189
14148TIP3   OH263858   1.640   4.866  15.278 -0.5594  0.4801 -0.1727
14148TIP3    H163859   1.720   4.856  15.329  0.2191 -3.1380 -1.8782
14148TIP3    H263860   1.671   4.887  15.189 -1.4800 -0.4209 -0.7193
14149TIP3   OH263861   0.010   2.646  15.357 -0.1979  0.7362 -0.2371
14149TIP3    H163862  -0.063   2.624  15.298 -0.4440  1.6558 -0.2895
14149TIP3    H263863  -0.029   2.646  15.444  0.4668 -1.9667  0.0950
14150TIP3   OH263864   1.791   2.138   1.060 -0.3639 -0.0490 -0.1499
14150TIP3    H163865   1.776   2.044   1.053 -0.8018 -0.0038  0.1558
14150TIP3    H263866   1.808   2.153   1.153 -0.3551  0.1805 -0.1878
14151TIP3   OH263867   3.874   1.488  15.420  0.0227 -0.0557  0.0371
14151TIP3    H163868   3.933   1.504  15.494 -0.0667 -0.3350  0.1681
14151TIP3    H263869   3.917   1.419  15.370 -0.7643 -1.0894  0.7659
14152TIP3   OH263870   6.277   0.161  12.559 -0.3020  0.1120  0.0075
14152TIP3    H163871   6.299   0.241  12.511 -2.6934  1.8495  1.7248
14152TIP3    H263872   6.358   0.138  12.605  0.5629  1.1948 -0.9336
14153TIP3   OH263873   2.311   1.414   5.233  0.2259 -0.0926 -0.0047
14153TIP3    H163874   2.357   1.498   5.230 -0.9184  0.5510  0.4551
14153TIP3    H263875   2.237   1.425   5.174  0.7023 -1.1762 -0.8407
14154TIP3   OH263876   3.924   2.226  17.173  0.0800  0.2213 -0.5305
14154TIP3    H163877   4.008   2.214  17.127 -0.1457  2.3506 -1.5315
14154TIP3    H263878   3.922   2.318  17.197 -2.1099  0.2600 -0.7546
14155TIP3   OH263879   5.493   1.082  16.343  0.0873  0.1582  0.0423
14155TIP3    H163880   5.489   1.038  16.428  0.8927 -0.0477 -0.0157
14155TIP3    H263881   5.402   1.102  16.321 -0.1117  0.4060  1.0550
14156TIP3   OH263882   0.541   4.317   4.361 -0.0166  0.4377  0.2253
14156TIP3    H163883   0.579   4.238   4.323  0.2918  1.5357 -1.7770
14156TIP3    H263884   0.592   4.331   4.441  0.2814 -1.0802  0.3200
14157TIP3   OH263885   1.776   0.861  11.099  0.7286  0.1899 -0.0454
14157TIP3    H163886   1.798   0.904  11.182  2.1996  0.7812 -0.7357
14157TIP3    H263887   1.777   0.768  11.120  0.9365  0.3398  0.6390
14158TIP3   OH263888   1.014   1.023  11.188 -1.3077  0.0633  0.3043
14158TIP3    H163889   1.105   0.999  11.202 -1.7761 -0.3083  2.8914
14158TIP3    H263890   1.016   1.080  11.111  1.2843  1.2493  1.1885
14159TIP3   OH263891   5.492   1.460  13.064  0.0017 -0.0986  0.5953
14159TIP3    H163892   5.486   1.381  13.011  0.0893  0.3896 -0.1427
14159TIP3    H263893   5.538   1.524  13.009  1.9829 -0.2347  2.0314
14160TIP3   OH263894   6.758   1.809  10.454 -0.2338  0.4361  0.4931
14160TIP3    H163895   6.716   1.732  10.415  2.2148 -2.1511  2.7832
14160TIP3    H263896   6.715   1.819  10.539  2.3184 -1.0357  2.0052
14161TIP3   OH263897   5.512   4.245   5.285 -0.1523 -0.3321 -0.0452
14161TIP3    H163898   5.556   4.273   5.365 -0.0642 -0.1705 -0.1491
14161TIP3    H263899   5.456   4.318   5.261 -2.0449 -1.3274  1.2092
14162TIP3   OH263900   3.833   0.025   3.236 -0.1639  0.0877  0.2261
14162TIP3    H163901   3.749   0.019   3.190 -0.1034 -0.2501  0.1562
14162TIP3    H263902   3.899   0.018   3.167 -0.0777  0.6407  0.2495
14163TIP3   OH263903   4.153   2.433   4.569  0.3360  0.3571  0.1234
14163TIP3    H163904   4.210   2.397   4.637  2.6608  0.5484 -1.6784
14163TIP3    H263905   4.174   2.384   4.490 -1.3871  1.0301 -0.7970
14164TIP3   OH263906   4.619   1.630   2.249  0.9969  0.4623 -0.6194
14164TIP3    H163907   4.708   1.594   2.246  0.3292 -1.3344 -0.1362
14164TIP3    H263908   4.564   1.554   2.271 -0.2865  2.1581  2.3115
14165TIP3   OH263909   3.858   4.406  15.213  0.1399 -0.3717  0.3995
14165TIP3    H163910   3.813   4.354  15.280  0.6796 -1.0268  0.2487
14165TIP3    H263911   3.868   4.492  15.254 -0.5686 -0.4347  0.7238
14166TIP3   OH263912   2.952   1.035   3.883  0.1718 -0.1639  0.2864
14166TIP3    H163913   2.956   0.973   3.956 -0.0564 -0.9963 -0.4032
14166TIP3    H263914   2.878   1.005   3.830  0.1016  0.6640 -0.0845
14167TIP3   OH263915   4.608   0.563   6.310 -0.1967 -0.0585 -0.1736
14167TIP3    H163916   4.574   0.604   6.390 -1.0824 -0.4579 -0.3435
14167TIP3    H263917   4.587   0.470   6.321 -0.6570 -0.0589 -1.0438
14168TIP3   OH263918   3.352   6.291  12.502 -0.5562 -1.1300  0.3857
14168TIP3    H163919   3.425   6.345  12.533 -0.9477 -0.6880  0.5462
14168TIP3    H263920   3.389   6.239  12.431  0.3328 -2.0888  1.5345
14169TIP3   OH263921   4.938   2.681   3.118  0.0976 -0.6405 -0.2834
14169TIP3    H163922   4.867   2.733   3.081 -0.4110 -0.8756  0.3661
14169TIP3    H263923   4.947   2.607   3.058 -1.4194 -1.5673  0.6133
14170TIP3   OH263924   5.168   5.544   5.478 -0.3861 -0.1223  0.2076
14170TIP3    H163925   5.207   5.461   5.448 -0.7881  0.0815 -0.8903
14170TIP3    H263926   5.097   5.517   5.536  0.7819 -0.5131  1.4568
14171TIP3   OH263927   5.625   5.965  11.657  0.4982 -0.5635  0.2026
14171TIP3    H163928   5.712   5.957  11.695  0.1728 -1.9655  0.6801
14171TIP3    H263929   5.613   6.059  11.643  1.3663 -0.1990  1.8211
14172TIP3   OH263930   3.004   4.516   2.804 -0.2305  0.1119  0.8473
14172TIP3    H163931   3.095   4.545   2.796 -0.0213 -1.0328 -1.3677
14172TIP3    H263932   2.994   4.495   2.897  1.9899 -0.4080  1.0050
14173TIP3   OH263933   5.991   4.747   2.367 -0.1037 -0.6802  0.1907
14173TIP3    H163934   5.974   4.654   2.379 -0.6549 -1.0069 -2.8284
14173TIP3    H263935   5.909   4.784   2.333  0.7257  0.4737 -0.6387
14174TIP3   OH263936   0.879   2.489   5.754  0.3760  0.4780  0.6902
14174TIP3    H163937   0.801   2.446   5.789  0.1283  0.7586  0.4917
14174TIP3    H263938   0.872   2.579   5.787  0.7852  0.4187  0.9397
14175TIP3   OH263939   1.347   2.611   2.245  0.1201  0.3903  0.3062
14175TIP3    H163940   1.282   2.650   2.186  0.0581 -0.4878 -0.2160
14175TIP3    H263941   1.351   2.671   2.319 -2.3983 -0.3247  1.0676
14176TIP3   OH263942   1.937   5.347   2.913  0.4289 -0.1140  0.3975
14176TIP3    H163943   1.881   5.394   2.851  0.8631 -0.3300 -0.1597
14176TIP3    H263944   2.022   5.389   2.904  0.4015  0.1258  1.1501
14177TIP3   OH263945   1.365   3.574   2.609 -0.2350 -0.2601 -0.2604
14177TIP3    H163946   1.303   3.621   2.553  0.3414 -0.8555 -1.4012
14177TIP3    H263947   1.412   3.642   2.656  0.3252  0.3061 -1.6230
14178TIP3   OH263948   3.263   4.758  10.704  0.2921  0.1190  0.1788
14178TIP3    H163949   3.242   4.711  10.784 -2.3267  0.3096 -0.3452
14178TIP3    H263950   3.310   4.695  10.650 -0.5167 -0.9351  0.6967
14179TIP3   OH263951   5.531   2.393  10.417  0.4144  0.2149 -0.6877
14179TIP3    H163952   5.449   2.368  10.459  0.1525  0.8318 -0.8247
14179TIP3    H263953   5.576   2.310  10.400 -0.1375 -0.1182 -0.5269
14180TIP3   OH263954   6.469   2.651   5.287 -0.2980 -0.3796 -0.5353
14180TIP3    H163955   6.451   2.638   5.380  2.1465 -1.3630 -0.1483
14180TIP3    H263956   6.436   2.739   5.268  1.6275  0.9798  1.9819
14181TIP3   OH263957   1.304   6.467  16.163  1.1933  0.3860  0.3887
14181TIP3    H163958   1.330   6.500  16.077 -2.7469  3.1403  0.1080
14181TIP3    H263959   1.241   6.397  16.144 -1.7129  2.7710  0.9347
14182TIP3   OH263960   4.208   4.598  15.267  0.4476 -0.1879  0.5166
14182TIP3    H163961   4.260   4.621  15.190 -0.6009 -1.1330 -0.5114
14182TIP3    H263962   4.119   4.627  15.245  0.5663  1.6362  2.3395
14183TIP3   OH263963   6.051   2.845  12.182 -0.0952  0.4340  0.0232
14183TIP3    H163964   5.988   2.887  12.123  0.6740  0.5115 -0.7616
14183TIP3    H263965   6.000   2.821  12.259 -0.6644  2.3641  0.2885
14184TIP3   OH263966   0.228   5.352  11.929  0.1857  0.4477  0.2909
14184TIP3    H163967   0.296   5.315  11.985  0.9959 -0.7376 -1.4203
14184TIP3    H263968   0.261   5.438  11.904  0.2640  0.5810  0.8545
14185TIP3   OH263969   4.536   0.837   2.392  0.1715  0.3839  0.3522
14185TIP3    H163970   4.621   0.820   2.434 -1.5038 -1.6367  3.0822
14185TIP3    H263971   4.521   0.759   2.338  0.4109  1.1173 -0.7861
14186TIP3   OH263972   2.351   0.680   5.958  0.3025  0.1530  0.1341
14186TIP3    H163973   2.278   0.628   5.992 -0.1626  0.5842 -0.1873
14186TIP3    H263974   2.418   0.675   6.025 -0.4269  0.6239  0.9114
14187TIP3   OH263975   2.755   0.919  11.612  0.2092  0.5791  0.4878
14187TIP3    H163976   2.670   0.963  11.609 -0.0179  0.0585 -1.3921
14187TIP3    H263977   2.819   0.990  11.599  0.0443  0.8912  1.3521
14188TIP3   OH263978   3.414   2.102  16.821 -0.6621  0.5958  0.3256
14188TIP3    H163979   3.485   2.048  16.785  0.1302  1.4223  0.6235
14188TIP3    H263980   3.346   2.100  16.754 -0.1121  0.2775 -0.2250
14189TIP3   OH263981   1.151   3.097   0.427  0.7329 -0.1826  0.4465
14189TIP3    H163982   1.203   3.044   0.488  1.0127  0.0416  0.4060
14189TIP3    H263983   1.216   3.151   0.382  0.4566  0.1426  0.4373
14190TIP3   OH263984   1.605   0.846  15.160  0.2375  0.3299 -0.4443
14190TIP3    H163985   1.565   0.884  15.082 -1.5878 -0.4759  0.0667
14190TIP3    H263986   1.659   0.916  15.196  0.4825  0.9569 -1.9934
14191TIP3   OH263987   1.349   3.540  16.029  0.2105  0.1826 -0.7250
14191TIP3    H163988   1.443   3.534  16.046  0.4097 -0.4504 -1.9952
14191TIP3    H263989   1.336   3.628  15.995  0.5087 -0.0661 -1.4932
14192TIP3   OH263990   0.849   6.711   5.625 -0.0663  0.2649  0.0631
14192TIP3    H163991   0.823   6.799   5.597  1.3239  0.4691 -0.6051
14192TIP3    H263992   0.888   6.671   5.547  0.6974 -0.3973  0.7700
14193TIP3   OH263993   0.385   4.688  16.385  1.1176  0.3484 -0.7564
14193TIP3    H163994   0.405   4.595  16.371 -0.5788 -0.0056 -0.9597
14193TIP3    H263995   0.441   4.714  16.459  0.8203 -1.1278  0.0100
14194TIP3   OH263996   6.582   1.575  14.077 -0.1706  0.1581 -0.0801
14194TIP3    H163997   6.598   1.651  14.132  0.4386  1.2979 -1.7711
14194TIP3    H263998   6.608   1.604  13.989  0.8407 -2.2680 -0.6099
14195TIP3   OH263999   4.020   2.214  14.304 -0.1940  0.1506  0.0204
14195TIP3    H164000   4.033   2.257  14.388 -0.5032 -1.3752  0.8640
14195TIP3    H264001   4.108   2.189  14.275 -0.2554 -1.0525  0.8354
14196TIP3   OH264002   2.301   5.743  14.451 -0.3352  0.3264 -0.1456
14196TIP3    H164003   2.282   5.708  14.363  0.5731 -2.5636  0.7507
14196TIP3    H264004   2.233   5.706  14.506 -0.4906  1.5852  0.5184
14197TIP3   OH264005   1.881   3.559  13.488 -0.2669  0.4578  0.3176
14197TIP3    H164006   1.817   3.601  13.430  0.0393  0.9122  0.3016
14197TIP3    H264007   1.852   3.468  13.495  0.3583  0.1126 -1.4893
14198TIP3   OH264008   4.756   2.978  12.433 -0.4222 -0.1676  0.3899
14198TIP3    H164009   4.826   3.022  12.482  0.8144 -2.2397  0.5590
14198TIP3    H264010   4.696   2.946  12.500  0.1480 -1.1350  0.4535
14199TIP3   OH264011   3.002   0.127   0.747  0.4484  0.1131  0.2238
14199TIP3    H164012   2.956   0.044   0.756 -1.0869  0.5468 -3.0522
14199TIP3    H264013   2.949   0.189   0.798  1.3152 -0.7607  2.2402
14200TIP3   OH264014   6.195   6.067   0.120 -0.4900  0.6358 -0.5449
14200TIP3    H164015   6.118   6.010   0.119 -0.1249  0.1212  0.6926
14200TIP3    H264016   6.247   6.038   0.044 -0.6986 -0.1419 -0.3964
14201TIP3   OH264017   4.574   1.844   4.714  0.4338 -0.0189 -0.1960
14201TIP3    H164018   4.490   1.820   4.752  0.8259 -0.6505  0.2734
14201TIP3    H264019   4.553   1.914   4.652 -0.9156 -2.5592 -2.6719
14202TIP3   OH264020   0.744   6.709   6.185 -0.2914 -0.6630 -0.2318
14202TIP3    H164021   0.795   6.766   6.243 -2.2317 -1.1965  2.1271
14202TIP3    H264022   0.793   6.626   6.183  1.5811  0.4527 -2.1960
14203TIP3   OH264023   4.023   5.488   4.141  0.0585 -0.3470 -0.2160
14203TIP3    H164024   3.995   5.564   4.090 -2.0550 -0.0350  1.3218
14203TIP3    H264025   4.113   5.506   4.166 -0.7480  2.1652  1.0164
14204TIP3   OH264026   4.719   3.237  15.249  0.2336  0.4319  0.2013
14204TIP3    H164027   4.695   3.186  15.326 -1.0709  0.5073 -0.1258
14204TIP3    H264028   4.774   3.307  15.282 -1.3367  1.2042  1.2689
14205TIP3   OH264029   5.222   1.298   3.918 -0.3283 -0.3363 -0.1754
14205TIP3    H164030   5.263   1.275   4.001  0.4315  0.1188 -0.4164
14205TIP3    H264031   5.248   1.228   3.858  3.1971  1.7986 -1.2917
14206TIP3   OH264032   3.729   6.173   1.852  0.6604 -0.5427  0.5997
14206TIP3    H164033   3.650   6.212   1.891 -0.0592 -0.6188 -0.7573
14206TIP3    H264034   3.793   6.245   1.851  0.5208 -0.4015  1.4398
14207TIP3   OH264035   6.340   4.777   4.271 -0.2892  0.4009 -0.6704
14207TIP3    H164036   6.276   4.762   4.341 -1.2036  1.1433 -1.3348
14207TIP3    H264037   6.287   4.804   4.196  0.7893  0.7271 -1.3195
14208TIP3   OH264038   0.785   1.203  11.862  0.5629 -0.1602  0.1328
14208TIP3    H164039   0.801   1.209  11.768  0.0986  0.7843  0.0996
14208TIP3    H264040   0.695   1.235  11.873  0.2851 -1.1494  0.7968
14209TIP3   OH264041   5.678   5.526  15.611  0.0770 -0.3092 -0.1151
14209TIP3    H164042   5.685   5.435  15.638  0.7153  0.4643  2.4482
14209TIP3    H264043   5.628   5.568  15.681 -0.2663  1.2952 -1.2925
14210TIP3   OH264044   5.989   5.164  11.866 -0.0186  0.3826  0.0328
14210TIP3    H164045   5.905   5.166  11.911  0.0548 -2.1686  0.3510
14210TIP3    H264046   6.045   5.110  11.922  1.6527  1.5596 -0.4703
14211TIP3   OH264047   4.263   5.109   5.296 -0.2139  0.2190  0.2172
14211TIP3    H164048   4.242   5.026   5.254 -0.7314 -0.2744  1.4251
14211TIP3    H264049   4.190   5.167   5.274 -0.4521 -0.0175  0.3868
14212TIP3   OH264050   0.500   0.416  16.917  0.0390 -0.2950  0.1365
14212TIP3    H164051   0.578   0.454  16.957  0.1697 -0.5600  0.1380
14212TIP3    H264052   0.443   0.491  16.899  0.4681 -0.0560 -0.2412
14213TIP3   OH264053   5.731   2.444  13.844 -0.2053 -0.3702 -0.0578
14213TIP3    H164054   5.801   2.391  13.883 -0.4810 -1.0510 -0.4921
14213TIP3    H264055   5.748   2.442  13.750  0.2882  1.0364 -0.0014
14214TIP3   OH264056   0.618   2.619   1.667 -0.2897  0.0293 -0.5853
14214TIP3    H164057   0.580   2.535   1.642 -0.6989 -1.3277  4.1230
14214TIP3    H264058   0.705   2.620   1.626  0.6050 -3.7028  1.0488
14215TIP3   OH264059   5.204   5.165  12.256 -0.4533 -0.1298  0.2053
14215TIP3    H164060   5.118   5.199  12.280  0.2534 -0.4121  3.3657
14215TIP3    H264061   5.199   5.071  12.275  0.0292 -0.4596 -1.2156
14216TIP3   OH264062   5.098   4.433   3.899  0.1918  0.2828  0.0703
14216TIP3    H164063   5.138   4.379   3.831  1.4657  1.1190  0.1281
14216TIP3    H264064   5.101   4.522   3.863 -0.0361  0.5847  0.8005
14217TIP3   OH264065   0.613   4.659  12.947  0.9428 -0.4329 -0.3380
14217TIP3    H164066   0.668   4.597  12.994 -0.7191 -1.6585  0.0514
14217TIP3    H264067   0.525   4.620  12.949  0.0640  1.4268 -0.9992
14218TIP3   OH264068   6.062   2.569  15.773 -0.0661 -0.1142  0.8251
14218TIP3    H164069   6.031   2.655  15.799 -0.4740 -0.4758  1.5632
14218TIP3    H264070   6.057   2.569  15.677  0.4287  0.8541  0.8029
14219TIP3   OH264071   0.324   3.814  12.916 -0.1422 -0.1451  0.1103
14219TIP3    H164072   0.258   3.876  12.885 -1.1312 -1.0865  0.3123
14219TIP3    H264073   0.284   3.770  12.990  1.0271 -0.1605  0.7538
14220TIP3   OH264074   3.164   5.718   4.450 -0.3973 -0.1319  0.4233
14220TIP3    H164075   3.243   5.746   4.404 -0.5419 -0.2599  0.0980
14220TIP3    H264076   3.161   5.773   4.528  0.8706 -1.2071  1.2423
14221TIP3   OH264077   2.000   2.603   4.576 -0.5781  0.4568  0.1197
14221TIP3    H164078   2.013   2.508   4.572 -1.1684  0.3189  1.3264
14221TIP3    H264079   1.940   2.616   4.649 -0.3990  1.7746  0.0412
14222TIP3   OH264080   1.900   2.805  16.617 -0.1333  0.0211 -0.0147
14222TIP3    H164081   1.822   2.854  16.642 -2.3624 -3.1763 -0.4982
14222TIP3    H264082   1.950   2.796  16.698 -0.9545  0.8717  0.5869
14223TIP3   OH264083   1.047   0.720  16.226 -0.3486 -0.2406 -0.1299
14223TIP3    H164084   1.097   0.647  16.260  1.4971  1.7773  1.6291
14223TIP3    H264085   0.962   0.714  16.269 -0.5634 -1.8800 -0.7576
14224TIP3   OH264086   3.045   6.308   4.373 -0.3441 -0.1752  0.0534
14224TIP3    H164087   2.994   6.228   4.357 -0.2961 -0.4158  1.0374
14224TIP3    H264088   3.115   6.306   4.308 -0.4214 -0.8807 -0.0100
14225TIP3   OH264089   2.927   4.182   2.675  0.0026 -0.2066  0.7125
14225TIP3    H164090   2.913   4.159   2.768  0.4683 -1.0320  0.5819
14225TIP3    H264091   2.991   4.118   2.644 -0.5410 -0.2605 -0.3181
14226TIP3   OH264092   1.613   3.018   1.445  0.4240 -0.0128  0.2951
14226TIP3    H164093   1.524   3.055   1.444 -0.8987 -3.0412 -0.4916
14226TIP3    H264094   1.653   3.051   1.365  0.4566  2.2926  1.2103
14227TIP3   OH264095   6.019   2.674  15.513 -0.0903 -0.3668 -0.2132
14227TIP3    H164096   6.022   2.726  15.432 -0.9365  0.0525  0.0146
14227TIP3    H264097   5.932   2.691  15.548  0.4742 -0.0873  1.0901
14228TIP3   OH264098   4.723   0.363  14.164  0.2135  0.3617  0.3750
14228TIP3    H164099   4.633   0.343  14.138 -0.0669 -0.8443  2.1398
14228TIP3    H264100   4.745   0.442  14.115 -1.5852  0.3206 -0.5622
14229TIP3   OH264101   5.906   1.413   3.020  0.2595  0.3039 -0.1499
14229TIP3    H164102   5.853   1.486   2.989  0.8162  0.3592 -0.9586
14229TIP3    H264103   5.890   1.343   2.957  0.4068  0.0028  0.1414
14230TIP3   OH264104   0.694   5.362   4.916  0.5441  0.9504 -0.6920
14230TIP3    H164105   0.621   5.322   4.870  0.1846  1.6687 -0.7573
14230TIP3    H264106   0.713   5.302   4.988 -1.8036  2.0191  0.8806
14231TIP3   OH264107   1.462   3.050   4.660  0.3203 -0.7177  0.3248
14231TIP3    H164108   1.426   3.122   4.711  2.5228  0.4206  0.3045
14231TIP3    H264109   1.461   3.081   4.570  1.3904 -0.6673  0.3293
14232TIP3   OH264110   2.218   1.997  14.796  0.5921 -0.0276  0.1709
14232TIP3    H164111   2.139   1.947  14.818  0.2167 -1.3527 -3.8051
14232TIP3    H264112   2.187   2.070  14.743  1.7902  1.1493  1.0326
14233TIP3   OH264113   6.649   1.097  16.317 -0.4985  0.6396 -0.1306
14233TIP3    H164114   6.667   1.166  16.253  0.3734 -0.9069 -1.5745
14233TIP3    H264115   6.730   1.090  16.369 -0.4796  0.4859 -0.1820
14234TIP3   OH264116   1.865   1.110   0.853  0.4018  0.2600 -0.1245
14234TIP3    H164117   1.777   1.126   0.820  0.3676 -0.4790 -0.3874
14234TIP3    H264118   1.917   1.090   0.775  0.6060 -0.1871  0.1280
14235TIP3   OH264119   0.909   4.385   1.006  0.5318 -0.4183  0.3073
14235TIP3    H164120   0.936   4.315   0.947  1.1506 -0.6662  0.8879
14235TIP3    H264121   0.974   4.386   1.076 -2.1282 -2.5539  2.9660
14236TIP3   OH264122   2.224   6.679  12.852  0.8287  0.3319 -0.2333
14236TIP3    H164123   2.166   6.605  12.832  0.3038  0.8763 -0.7221
14236TIP3    H264124   2.300   6.666  12.795  1.0160 -0.1637  0.1209
14237TIP3   OH264125   3.167   0.188   6.522  0.5278 -0.0055 -0.0689
14237TIP3    H164126   3.135   0.116   6.466 -0.7231  0.6795 -0.2575
14237TIP3    H264127   3.262   0.174   6.527  0.2973 -1.6969 -0.0643
14238TIP3   OH264128   1.673   4.401  15.365  0.3008  0.0619  0.3695
14238TIP3    H164129   1.623   4.335  15.317 -0.1107  0.3785  0.3684
14238TIP3    H264130   1.704   4.462  15.298  1.4291 -0.6136  0.2591
14239TIP3   OH264131   4.944   6.616   5.695  0.2876 -0.5018 -0.5979
14239TIP3    H164132   4.996   6.640   5.618  0.6635  1.5143  0.2745
14239TIP3    H264133   5.006   6.570   5.752  0.1786 -1.3967 -1.1973
14240TIP3   OH264134   1.148   1.229   3.287 -0.2744 -0.1734 -0.1226
14240TIP3    H164135   1.091   1.207   3.361  1.0615 -3.7606 -0.0918
14240TIP3    H264136   1.231   1.253   3.328 -1.1295  3.4574 -0.2656
14241TIP3   OH264137   2.904   6.270   3.648  0.2000 -0.1727  0.1572
14241TIP3    H164138   2.950   6.244   3.568  0.0935  0.4025 -0.0896
14241TIP3    H264139   2.891   6.187   3.695  1.2057 -0.3766  0.0902
14242TIP3   OH264140   6.617   4.165  11.239 -0.1469 -0.5240  0.7250
14242TIP3    H164141   6.657   4.201  11.160  1.5696 -2.5567  0.6370
14242TIP3    H264142   6.691   4.134  11.292 -1.2961  0.3593  2.9415
14243TIP3   OH264143   0.487   5.555   3.679  0.0214 -0.1856 -0.8116
14243TIP3    H164144   0.437   5.493   3.732  0.7354 -0.5828 -0.5827
14243TIP3    H264145   0.505   5.507   3.598  0.6659 -0.3274 -0.5921
14244TIP3   OH264146   3.951   2.966  13.650 -0.8976  0.4325 -0.1384
14244TIP3    H164147   3.907   3.035  13.599  0.6750  2.1434  0.7577
14244TIP3    H264148   4.002   2.918  13.585  1.1021  2.6060 -0.2578
14245TIP3   OH264149   4.324   2.497   5.853 -0.0444  0.0282 -1.4261
14245TIP3    H164150   4.253   2.560   5.858  0.9880  1.1923 -1.1440
14245TIP3    H264151   4.395   2.536   5.905 -0.2507 -2.5134  0.9209
14246TIP3   OH264152   4.161   5.150  15.781 -0.0695 -0.3756  0.1779
14246TIP3    H164153   4.168   5.054  15.784 -0.5037 -0.4172 -0.1317
14246TIP3    H264154   4.142   5.170  15.689  1.1400  0.0874  0.0129
14247TIP3   OH264155   2.762   0.457   4.271 -0.3675  0.4046  0.6000
14247TIP3    H164156   2.786   0.466   4.363 -0.1181 -3.5455  0.9929
14247TIP3    H264157   2.674   0.421   4.272 -1.1985  2.2967 -0.7782
14248TIP3   OH264158   5.539   5.803   2.202  0.1276 -0.0291 -0.1324
14248TIP3    H164159   5.537   5.818   2.297 -0.4330  3.8228 -0.7000
14248TIP3    H264160   5.631   5.816   2.178 -0.3837  2.7925 -0.6491
14249TIP3   OH264161   3.236   5.217  13.385  0.6558 -0.1080  0.4008
14249TIP3    H164162   3.293   5.206  13.462  0.0393  0.3476  0.9284
14249TIP3    H264163   3.221   5.128  13.353  2.0189 -0.1977 -0.0010
14250TIP3   OH264164   4.865   0.023  12.901  0.8416 -0.1660  0.3368
14250TIP3    H164165   4.887   0.096  12.959 -1.0602  1.2713 -0.6764
14250TIP3    H264166   4.876   0.058  12.813 -1.7346 -0.5348 -0.1698
14251TIP3   OH264167   4.751   2.318   4.534  0.8277  0.5344  0.0759
14251TIP3    H164168   4.777   2.320   4.442  1.5527 -1.7532  0.1829
14251TIP3    H264169   4.833   2.301   4.582  0.0864 -0.7670  0.9205
14252TIP3   OH264170   2.515   4.629  13.854 -0.7373  0.3638  0.4076
14252TIP3    H164171   2.523   4.625  13.949  0.6406 -1.1696  0.2491
14252TIP3    H264172   2.474   4.714  13.837 -0.9541  0.6766  2.3554
14253TIP3   OH264173   6.692   4.966   3.734  0.5607 -0.4088  0.4029
14253TIP3    H164174   6.661   5.052   3.763 -1.2158 -0.6828 -0.6488
14253TIP3    H264175   6.771   4.985   3.684 -0.3218  0.6989 -0.5766
14254TIP3   OH264176   1.454   0.944   3.734  0.1874  0.2304 -0.3453
14254TIP3    H164177   1.406   1.026   3.728  0.4216  0.5410  1.6819
14254TIP3    H264178   1.537   0.962   3.689 -0.2976  0.6714 -1.0777
14255TIP3   OH264179   5.991   2.949   3.195 -0.1483 -0.1844  0.1343
14255TIP3    H164180   5.986   3.027   3.251  0.6062 -0.4929  0.6424
14255TIP3    H264181   6.083   2.943   3.172 -0.2847 -0.6770 -0.2698
14256TIP3   OH264182   0.380   2.257  13.458 -0.5294  0.0137  0.1536
14256TIP3    H164183   0.331   2.316  13.401  1.5948  0.7608 -0.9627
14256TIP3    H264184   0.355   2.283  13.547 -0.5590  1.7622 -0.3496
14257TIP3   OH264185   1.090   5.417   3.055 -0.1226  0.0809  0.7424
14257TIP3    H164186   1.032   5.372   2.993 -0.6178 -0.7433  1.7912
14257TIP3    H264187   1.074   5.510   3.038 -1.9227 -0.1306  1.1485
14258TIP3   OH264188   1.818   5.966  13.851 -0.7007  0.1484 -0.1152
14258TIP3    H164189   1.840   6.034  13.914 -0.9914  0.3657 -0.2502
14258TIP3    H264190   1.890   5.968  13.788  0.1167 -0.7633  0.7763
14259TIP3   OH264191   0.862   3.126   5.048  0.5737  0.2244 -0.0018
14259TIP3    H164192   0.813   3.130   4.966  0.4963 -1.4936 -0.0434
14259TIP3    H264193   0.898   3.038   5.051  0.7634  0.3420  1.7185
14260TIP3   OH264194   5.249   5.915  16.379  0.0639  0.0810 -0.4294
14260TIP3    H164195   5.309   5.972  16.331 -0.5816 -0.7348 -2.2933
14260TIP3    H264196   5.165   5.924  16.333 -0.8639  0.0676  1.2157
14261TIP3   OH264197   3.153   2.591  13.550  0.0088  0.1705  0.2989
14261TIP3    H164198   3.062   2.582  13.519 -0.5532 -0.5160  2.1391
14261TIP3    H264199   3.156   2.679  13.587 -0.5394 -0.6310  2.2863
14262TIP3   OH264200   0.153   4.387  11.823  0.1646 -0.3641  0.5427
14262TIP3    H164201   0.127   4.325  11.891  1.4137 -1.7347 -0.2201
14262TIP3    H264202   0.247   4.375  11.813  0.0585  0.0520 -1.1966
14263TIP3   OH264203   0.911   2.815  14.465  0.2937  0.1855  0.0197
14263TIP3    H164204   0.871   2.858  14.541 -0.1170 -0.6290  0.2716
14263TIP3    H264205   0.879   2.865  14.390 -0.6771 -0.0390  0.2661
14264TIP3   OH264206   0.900   3.520  13.680  0.1143 -0.1076 -0.0895
14264TIP3    H164207   0.920   3.444  13.735 -2.7263 -1.1554 -0.4269
14264TIP3    H264208   0.929   3.494  13.592 -0.6844 -0.7294 -0.1689
14265TIP3   OH264209   1.484   4.712   6.288 -0.3300 -0.3894  0.3047
14265TIP3    H164210   1.524   4.626   6.307  0.8219  0.0033 -0.2954
14265TIP3    H264211   1.528   4.772   6.348 -0.0336  0.0503 -0.3572
14266TIP3   OH264212   5.761   1.384  14.180  0.1977 -0.3058  0.1479
14266TIP3    H164213   5.782   1.439  14.255  2.5060  1.3591 -1.6403
14266TIP3    H264214   5.833   1.321  14.176  1.3003  1.0437 -1.9598
14267TIP3   OH264215   0.976   0.437  12.271  0.1164 -0.6266 -0.1249
14267TIP3    H164216   0.946   0.481  12.191 -3.0140 -1.5603  0.4845
14267TIP3    H264217   0.992   0.508  12.333 -2.0728 -0.1421 -0.0871
14268TIP3   OH264218   0.311   5.268  10.190  0.2172  0.2795  0.1831
14268TIP3    H164219   0.257   5.195  10.219 -0.3482  0.7202  0.2511
14268TIP3    H264220   0.400   5.244  10.216  0.1979 -0.8743 -0.7519
14269TIP3   OH264221   0.975   0.298   2.573  0.1419  0.6456  0.1178
14269TIP3    H164222   0.907   0.283   2.508  1.4658 -1.7284 -0.7762
14269TIP3    H264223   1.057   0.279   2.528  1.2944  1.9484  1.6087
14270TIP3   OH264224   3.305   2.752  17.110 -0.4633  0.5559  0.1822
14270TIP3    H164225   3.395   2.742  17.079 -0.4303 -1.1444  0.8075
14270TIP3    H264226   3.262   2.669  17.088 -1.6089  0.9804  0.7787
14271TIP3   OH264227   1.812   2.592  12.129  0.2257 -0.2831 -0.4446
14271TIP3    H164228   1.737   2.617  12.075 -0.3801  0.4280  0.7154
14271TIP3    H264229   1.888   2.624  12.080 -0.1201 -1.8550 -2.1120
14272TIP3   OH264230   1.520   6.756  16.208  0.2280  0.2913 -0.1033
14272TIP3    H164231   1.459   6.784  16.141  2.8059  2.0547 -1.7922
14272TIP3    H264232   1.537   6.834  16.260  1.5290  0.0107 -0.0714
14273TIP3   OH264233   0.277   4.176   6.180 -0.1485 -0.0195 -0.5963
14273TIP3    H164234   0.262   4.248   6.119 -0.1632 -0.5704 -1.2512
14273TIP3    H264235   0.329   4.112   6.130 -1.5987 -1.2280 -0.5954
14274TIP3   OH264236   0.821   5.251   0.218 -0.5037  0.1884  0.2133
14274TIP3    H164237   0.877   5.263   0.295 -0.3144 -3.3447  0.6978
14274TIP3    H264238   0.870   5.191   0.162 -1.9119  0.4883 -1.3694
14275TIP3   OH264239   4.905   1.740   0.149 -0.4451  0.3210  0.5079
14275TIP3    H164240   4.904   1.736   0.245  2.1991  1.0773  0.5926
14275TIP3    H264241   4.919   1.833   0.129  3.7091 -0.4497 -0.5156
14276TIP3   OH264242   3.761   6.207   0.583  0.0276  0.0486 -0.1715
14276TIP3    H164243   3.793   6.259   0.656  2.1314 -2.7362  0.9637
14276TIP3    H264244   3.668   6.230   0.576  0.4822  2.5247  1.4508
14277TIP3   OH264245   6.648   4.986   5.276 -0.1217 -0.5942 -0.3588
14277TIP3    H164246   6.555   5.006   5.266  0.2565  1.4153  0.0516
14277TIP3    H264247   6.666   4.998   5.369  0.4022 -1.7351 -0.2964
14278TIP3   OH264248   1.610   2.842   5.976  0.3898  0.6559  0.2490
14278TIP3    H164249   1.549   2.893   5.923  0.9015 -0.1714 -1.1612
14278TIP3    H264250   1.684   2.825   5.918  0.8319 -0.5215  1.1291
14279TIP3   OH264251   0.288   0.085  16.843 -0.0421  0.3551 -0.0902
14279TIP3    H164252   0.248   0.001  16.823  0.6719  0.2112 -0.9133
14279TIP3    H264253   0.319   0.076  16.934  2.1847 -1.1062 -0.9625
14280TIP3   OH264254   3.942   2.945  16.981  0.1535  0.1513  0.5885
14280TIP3    H164255   3.853   2.926  17.013  0.0303 -1.0021 -0.3920
14280TIP3    H264256   3.991   2.967  17.060 -0.8963  0.3406  1.1973
14281TIP3   OH264257   0.566   2.046  13.454 -0.0915 -0.2606 -0.6172
14281TIP3    H164258   0.544   1.977  13.517 -0.0442  0.5070  0.2405
14281TIP3    H264259   0.496   2.110  13.463 -0.9486 -0.9026 -2.4935
14282TIP3   OH264260   6.494   2.126   4.989  0.3479 -0.0987 -0.2207
14282TIP3    H164261   6.428   2.118   4.921 -1.0529  1.0294  0.9743
14282TIP3    H264262   6.527   2.215   4.981 -1.9651  1.0787  2.4244
14283TIP3   OH264263   1.810   0.382  15.320 -0.3081 -0.0467 -0.1901
14283TIP3    H164264   1.900   0.367  15.349  0.0755  1.7732 -0.3653
14283TIP3    H264265   1.792   0.473  15.345 -1.5271  0.1252 -1.6395
14284TIP3   OH264266   2.396   1.636  12.156  0.5626 -0.4306  0.3111
14284TIP3    H164267   2.482   1.601  12.133  0.7092  0.6963 -0.9084
14284TIP3    H264268   2.411   1.729  12.173 -0.3949 -0.2483  0.2252
14285TIP3   OH264269   3.167   6.503  12.710  0.3967 -0.0811  0.3502
14285TIP3    H164270   3.218   6.472  12.785  0.7743 -0.4853 -0.0744
14285TIP3    H264271   3.123   6.425  12.676  0.4958  0.0358 -0.0547
14286TIP3   OH264272   3.072   5.831  12.342  0.0250  0.6553 -0.2493
14286TIP3    H164273   3.096   5.738  12.343 -0.8443  0.3711 -3.0081
14286TIP3    H264274   3.009   5.840  12.413  2.9842 -0.0360  2.5820
14287TIP3   OH264275   0.315   0.423   6.180  0.8985  0.2005 -0.1543
14287TIP3    H164276   0.241   0.471   6.219  0.8723 -0.7872  1.0700
14287TIP3    H264277   0.384   0.488   6.172  1.6210  0.0247  3.5771
14288TIP3   OH264278   3.471   6.262   0.971  0.3101 -0.0364  0.3315
14288TIP3    H164279   3.497   6.311   0.893  1.3978 -0.9669  0.0989
14288TIP3    H264280   3.523   6.301   1.042 -0.1255  0.3056  0.4703
14289TIP3   OH264281   0.744   3.533  14.249 -0.0522 -0.1360 -0.3576
14289TIP3    H164282   0.771   3.449  14.285 -0.6898 -0.8066 -1.4144
14289TIP3    H264283   0.667   3.513  14.196  0.8480  0.8224 -2.0852
14290TIP3   OH264284   5.145   6.495   0.111  0.1610  0.0178  0.5435
14290TIP3    H164285   5.138   6.438   0.187 -0.8188 -0.8148 -0.1693
14290TIP3    H264286   5.158   6.436   0.037 -0.9547  0.6913 -0.2120
14291TIP3   OH264287   5.079   6.621   5.466  0.2935 -0.1538  0.3413
14291TIP3    H164288   5.060   6.689   5.401 -1.0023 -0.9869 -0.1887
14291TIP3    H264289   5.152   6.572   5.428  1.9092  1.5325  1.1986
14292TIP3   OH264290   5.555   5.373  12.315 -0.0073  0.1806  0.0086
14292TIP3    H164291   5.478   5.419  12.346 -0.6636 -0.5132 -0.5632
14292TIP3    H264292   5.591   5.330  12.393 -0.8010 -0.3563  0.0798
14293TIP3   OH264293   2.496   5.248  11.679 -0.0543 -0.2028  0.1488
14293TIP3    H164294   2.546   5.304  11.620  0.8371 -0.5912  0.5309
14293TIP3    H264295   2.497   5.162  11.637 -1.7597  0.1553 -0.6393
14294TIP3   OH264296   4.568   3.288   2.862  0.2245  0.0712 -0.2649
14294TIP3    H164297   4.473   3.281   2.852  0.3536 -1.3857 -0.5458
14294TIP3    H264298   4.583   3.379   2.887 -1.4244 -0.1546  1.6972
14295TIP3   OH264299   2.219   2.021  11.871  0.3426 -0.8868 -0.1495
14295TIP3    H164300   2.183   2.036  11.959  1.4187  0.4190  0.0765
14295TIP3    H264301   2.281   2.092  11.858  0.7253 -1.4907 -1.6944
14296TIP3   OH264302   2.413   2.134   5.170  0.8817 -0.0609  0.2524
14296TIP3    H164303   2.500   2.118   5.133  1.2990  0.4016  1.0034
14296TIP3    H264304   2.391   2.053   5.216  0.4004 -0.6033 -0.9124
14297TIP3   OH264305   2.809   0.447  13.773 -0.7503 -0.0177 -0.1670
14297TIP3    H164306   2.859   0.480  13.698 -1.1804  1.9221  0.3632
14297TIP3    H264307   2.874   0.442  13.844 -0.8392  0.4289 -0.0515
14298TIP3   OH264308   1.918   4.928  13.511  0.2411  0.4215 -0.2800
14298TIP3    H164309   1.834   4.970  13.529  0.8659  1.3080  0.5654
14298TIP3    H264310   1.930   4.868  13.585  1.0587  1.3865  0.3772
14299TIP3   OH264311   3.372   4.134  11.499 -0.7164 -0.6651 -0.1925
14299TIP3    H164312   3.457   4.100  11.529 -0.2082 -1.3882 -2.3835
14299TIP3    H264313   3.390   4.222  11.468 -0.7237 -0.8785 -0.8132
14300TIP3   OH264314   0.874   5.123   4.663 -0.1763 -0.5353 -0.0021
14300TIP3    H164315   0.937   5.068   4.710 -0.2048  0.8983  1.7373
14300TIP3    H264316   0.877   5.207   4.708 -3.2699 -0.3920  0.0527
14301TIP3   OH264317   4.577   6.076   1.189  0.2780 -0.2696  0.0024
14301TIP3    H164318   4.641   6.056   1.257  1.6221  2.9166 -0.2335
14301TIP3    H264319   4.624   6.063   1.107 -0.1209 -0.2622 -0.2283
14302TIP3   OH264320   4.647   6.103  11.349 -0.3240  0.4672  0.0223
14302TIP3    H164321   4.596   6.045  11.292 -2.8249  1.1428  1.5345
14302TIP3    H264322   4.731   6.112  11.304 -0.7587 -2.3627 -1.4626
14303TIP3   OH264323   3.248   1.857  14.368  0.6557  0.5609 -0.2011
14303TIP3    H164324   3.330   1.908  14.373  1.3177 -0.3558 -1.5322
14303TIP3    H264325   3.212   1.880  14.282 -0.3460  0.7340  0.2678
14304TIP3   OH264326   3.545   2.875   0.107  0.3554 -0.0152 -0.3061
14304TIP3    H164327   3.463   2.859   0.060  1.3332 -0.2521 -1.9624
14304TIP3    H264328   3.567   2.790   0.146  1.3202 -0.7417 -2.3329
14305TIP3   OH264329   3.180   3.416   5.825  0.1399  0.5009  0.1327
14305TIP3    H164330   3.193   3.465   5.906 -0.0018  1.2913 -0.3107
14305TIP3    H264331   3.105   3.360   5.842 -0.7986  1.7265  0.0642
14306TIP3   OH264332   6.444   4.839  13.036 -0.3421  0.0727 -0.3607
14306TIP3    H164333   6.463   4.793  12.955  0.3230 -0.4102  0.0704
14306TIP3    H264334   6.365   4.796  13.070 -0.4782  0.1135 -0.6255
14307TIP3   OH264335   0.042   3.823   4.544  0.1032  0.3543  0.0479
14307TIP3    H164336   0.075   3.883   4.477  0.5248  0.3933  0.2926
14307TIP3    H264337  -0.043   3.795   4.510  0.0584  0.8193 -0.2345
14308TIP3   OH264338   1.649   1.711   2.271  0.0991 -0.2100 -0.6295
14308TIP3    H164339   1.684   1.799   2.278 -0.1636 -0.2489  1.3979
14308TIP3    H264340   1.676   1.681   2.184  0.2548  1.8187 -1.3036
14309TIP3   OH264341   4.719   2.919   5.602  0.3170 -0.0946  0.7779
14309TIP3    H164342   4.688   2.851   5.542 -0.0953  1.2569 -0.5591
14309TIP3    H264343   4.811   2.931   5.579  0.7872 -1.2156  2.0031
14310TIP3   OH264344   3.203   0.721  13.867 -0.6568 -0.1859 -0.6738
14310TIP3    H164345   3.220   0.796  13.925  0.0132 -0.0519 -1.0445
14310TIP3    H264346   3.189   0.760  13.781  0.3212 -0.5269 -0.9912
14311TIP3   OH264347   5.153   5.588  14.927 -0.2358 -0.1892 -0.2548
14311TIP3    H164348   5.183   5.654  14.989 -2.2702  0.6296 -0.0987
14311TIP3    H264349   5.224   5.579  14.864  0.7720  0.8623  0.7325
14312TIP3   OH264350   0.672   4.411  11.283 -0.1864  0.4949  0.3708
14312TIP3    H164351   0.686   4.506  11.285  0.5002  0.4172 -0.4180
14312TIP3    H264352   0.732   4.377  11.349  0.0412  0.5665  0.2068
14313TIP3   OH264353   4.599   6.663   4.803 -0.0514  0.6053  0.2064
14313TIP3    H164354   4.585   6.740   4.859  0.8876  0.2011  1.0187
14313TIP3    H264355   4.686   6.677   4.766 -0.5676  0.7463 -0.9790
14314TIP3   OH264356   4.313   4.256  14.877 -0.2947 -0.4880  0.0537
14314TIP3    H164357   4.224   4.222  14.882  0.4552 -2.8740 -1.8837
14314TIP3    H264358   4.353   4.232  14.961 -1.1397 -0.3840  0.4860
14315TIP3   OH264359   3.878   0.680  15.232  0.0348  0.4588  0.2316
14315TIP3    H164360   3.875   0.724  15.317  2.8161  1.7496 -0.2974
14315TIP3    H264361   3.852   0.590  15.251 -0.1098  0.9098  2.3037
14316TIP3   OH264362   5.601   3.470   3.496  0.4780  0.0187  0.1204
14316TIP3    H164363   5.693   3.497   3.487  0.3540  1.0036  1.5903
14316TIP3    H264364   5.604   3.375   3.494  1.5516  0.0453  0.1841
14317TIP3   OH264365   6.559   5.807   4.621 -0.0709 -0.2601  0.0968
14317TIP3    H164366   6.502   5.731   4.628  0.1377 -0.4167  0.0821
14317TIP3    H264367   6.527   5.867   4.689  1.8457 -1.7140  2.3514
14318TIP3   OH264368   4.258   4.970  16.505 -0.4622 -0.0744 -0.1872
14318TIP3    H164369   4.238   4.913  16.579 -1.5922  0.8613  0.2260
14318TIP3    H264370   4.253   4.912  16.429 -1.9454 -0.4718  0.1931
14319TIP3   OH264371   2.224   3.068   2.492  0.2751 -0.1511 -0.1269
14319TIP3    H164372   2.175   3.151   2.496  2.5648  1.1872  1.7124
14319TIP3    H264373   2.166   3.004   2.533 -0.7657  0.9598  0.1726
14320TIP3   OH264374   6.548   1.090  10.714  0.4432  0.3769  0.2651
14320TIP3    H164375   6.504   1.008  10.739  0.0473  0.4478 -0.2098
14320TIP3    H264376   6.481   1.140  10.667  0.6038  1.0935  0.7958
14321TIP3   OH264377   4.583   6.025   3.128 -0.1760 -0.4415  0.0194
14321TIP3    H164378   4.522   6.099   3.119  0.2214 -0.3099 -1.5686
14321TIP3    H264379   4.529   5.955   3.164 -0.8837  0.1731  0.1818
14322TIP3   OH264380   1.055   0.452   5.544 -0.4906  0.5661 -0.1702
14322TIP3    H164381   1.100   0.536   5.553 -0.3717  0.5059 -0.2047
14322TIP3    H264382   1.122   0.387   5.563 -0.5412  0.4742 -0.3036
14323TIP3   OH264383   0.627   4.737  12.644 -0.2644 -0.2322  0.1189
14323TIP3    H164384   0.652   4.664  12.700  0.3652 -0.5308 -0.5532
14323TIP3    H264385   0.666   4.718  12.560 -0.0597  0.9077 -0.0530
14324TIP3   OH264386   6.444   2.006  16.071 -0.0936 -0.2271 -0.0365
14324TIP3    H164387   6.399   1.961  15.999  0.0262  0.4516 -0.5381
14324TIP3    H264388   6.447   1.941  16.141 -0.6908 -0.7154 -0.4561
14325TIP3   OH264389   2.900   6.663   2.980  0.7657  0.2426  0.1164
14325TIP3    H164390   2.908   6.579   2.935 -1.0934  0.0993  0.0360
14325TIP3    H264391   2.967   6.718   2.939 -1.1159  0.2287 -3.1024
14326TIP3   OH264392   1.194   6.291  12.446 -0.3880 -0.4489  0.3155
14326TIP3    H164393   1.135   6.254  12.380  0.9439 -1.9285 -0.0866
14326TIP3    H264394   1.155   6.265  12.530 -1.1246 -0.1040  0.0845
14327TIP3   OH264395   3.066   6.734  13.310  0.0649 -0.0385 -0.0541
14327TIP3    H164396   3.052   6.828  13.322  1.0759  0.7227 -4.1365
14327TIP3    H264397   2.985   6.702  13.270 -0.0931 -0.8495  0.8851
14328TIP3   OH264398   5.923   1.809   3.163  0.5138 -0.2432 -0.0233
14328TIP3    H164399   5.988   1.879   3.153 -1.2669  1.4665  0.0279
14328TIP3    H264400   5.872   1.835   3.240 -0.0912 -1.6786  0.0723
14329TIP3   OH264401   5.831   4.315   4.627  0.4140 -0.0059  0.7215
14329TIP3    H164402   5.834   4.275   4.714 -0.0728 -1.7307 -0.0391
14329TIP3    H264403   5.755   4.372   4.630 -0.0802 -0.6796  1.1680
14330TIP3   OH264404   5.971   5.178  14.491 -0.2211  0.1339 -0.0418
14330TIP3    H164405   5.924   5.198  14.572 -1.2369 -0.1217 -0.5688
14330TIP3    H264406   5.947   5.248  14.431 -0.6862 -0.5075 -0.6142
14331TIP3   OH264407   4.635   4.298  13.393  0.9554 -0.4685  0.0863
14331TIP3    H164408   4.639   4.359  13.319 -1.5344 -1.3287 -0.8108
14331TIP3    H264409   4.721   4.255  13.392  2.1894  1.9089 -0.1945
14332TIP3   OH264410   2.556   5.378  10.956  0.0302  0.7552 -0.4035
14332TIP3    H164411   2.631   5.392  10.898 -0.0774 -0.0284 -0.7373
14332TIP3    H264412   2.481   5.413  10.907  0.3791  2.9018  0.5469
14333TIP3   OH264413   4.203   6.406  13.201  0.6386 -0.9847  0.0596
14333TIP3    H164414   4.128   6.355  13.233  0.7329 -1.0382  0.1975
14333TIP3    H264415   4.177   6.434  13.114 -0.1814  0.3073  0.6995
14334TIP3   OH264416   5.970   5.756   5.018  0.7268 -0.1654  0.6839
14334TIP3    H164417   5.881   5.756   5.053 -0.0704  0.4583 -1.2524
14334TIP3    H264418   6.021   5.808   5.080 -0.5385  0.5316  1.1460
14335TIP3   OH264419   5.938   2.134   5.352 -0.3131  0.5524 -0.2783
14335TIP3    H164420   5.847   2.113   5.331 -0.5492  1.2112  0.0710
14335TIP3    H264421   5.956   2.214   5.304  0.1350  0.3401 -0.4690
14336TIP3   OH264422   5.276   5.582  14.477 -0.0886 -0.6292  0.3901
14336TIP3    H164423   5.306   5.515  14.415 -2.2759  1.5373 -3.2293
14336TIP3    H264424   5.189   5.553  14.503 -1.2818  0.9501 -1.6322
14337TIP3   OH264425   5.469   2.932  13.765  0.2052  0.4676 -0.2169
14337TIP3    H164426   5.515   2.988  13.827  1.0371 -0.6784  0.2111
14337TIP3    H264427   5.394   2.985  13.735  0.1143  1.2214  1.3267
14338TIP3   OH264428   3.043   0.038  17.088  0.0331  0.5910 -0.3234
14338TIP3    H164429   3.051   0.129  17.059 -0.1442  0.6324 -0.2496
14338TIP3    H264430   2.987  -0.003  17.022 -2.0555  1.1875  1.0025
14339TIP3   OH264431   5.890   2.229   0.181 -0.1824  0.0625  0.1459
14339TIP3    H164432   5.935   2.190   0.256 -1.0208  1.5797  1.4806
14339TIP3    H264433   5.887   2.159   0.116 -0.5756 -1.7035  1.9991
14340TIP3   OH264434   6.459   4.807   0.654 -0.2345  0.5138 -0.5797
14340TIP3    H164435   6.494   4.894   0.675 -1.0397  0.7494 -0.1823
14340TIP3    H264436   6.505   4.748   0.714  0.3509  0.6487 -0.8834
14341TIP3   OH264437   1.704   5.527   0.906  0.0652  0.3342  0.6883
14341TIP3    H164438   1.689   5.433   0.898 -1.6755  0.6370  0.2604
14341TIP3    H264439   1.630   5.559   0.958  0.4032  1.5399  0.4445
14342TIP3   OH264440   0.057   6.638   2.021  0.1104 -0.0093 -0.1180
14342TIP3    H164441   0.076   6.560   1.970 -0.8854 -0.8427  0.7709
14342TIP3    H264442   0.005   6.607   2.094  1.8195  1.1184  1.6241
14343TIP3   OH264443   1.441   6.514   3.662  0.4860 -0.1779 -0.3794
14343TIP3    H164444   1.469   6.578   3.728  1.0977  0.1856 -0.9869
14343TIP3    H264445   1.441   6.563   3.580 -0.2183 -0.6471 -0.6603
14344TIP3   OH264446   2.536   4.431   4.053 -0.1311  0.0632 -0.0483
14344TIP3    H164447   2.557   4.338   4.047 -2.0305 -0.3927  0.2474
14344TIP3    H264448   2.618   4.472   4.082  0.8527 -1.4383 -0.6815
14345TIP3   OH264449   6.579   0.381  12.087 -0.4357  0.3636 -0.3138
14345TIP3    H164450   6.580   0.374  11.991  0.2449  1.6085 -0.3974
14345TIP3    H264451   6.505   0.439  12.106  0.4574  1.4650 -0.1783
14346TIP3   OH264452   3.835   1.438  16.319 -0.4980  0.2824 -0.5439
14346TIP3    H164453   3.785   1.514  16.291  0.9894  1.2962 -0.5023
14346TIP3    H264454   3.893   1.419  16.245  0.3904  0.2998  0.1360
14347TIP3   OH264455   5.598   6.512  13.144  0.7497 -0.2347  0.4322
14347TIP3    H164456   5.643   6.464  13.074  2.0772 -0.1702  1.2330
14347TIP3    H264457   5.656   6.505  13.219  0.4008  1.6274  0.8936
14348TIP3   OH264458   0.917   4.019   3.130 -0.9017  0.0649 -0.1726
14348TIP3    H164459   1.006   4.019   3.094 -0.2000  1.1979  1.4653
14348TIP3    H264460   0.860   4.002   3.055  0.6246  0.6730 -1.4933
14349TIP3   OH264461   1.119   3.995  12.464  0.9685  0.6585  0.0061
14349TIP3    H164462   1.204   3.976  12.424  1.2678 -0.5055  1.1383
14349TIP3    H264463   1.058   3.935  12.420  1.0042  0.4948  0.1775
14350TIP3   OH264464   0.610   3.490  14.489  0.5305 -0.1652  0.3778
14350TIP3    H164465   0.630   3.569  14.540 -1.0889  1.1784 -0.9892
14350TIP3    H264466   0.579   3.524  14.404 -4.8739 -2.0744  1.4042
14351TIP3   OH264467   0.944   3.098  16.148  0.4669 -0.0312 -0.3075
14351TIP3    H164468   0.860   3.053  16.144  0.5263 -0.1437 -0.2769
14351TIP3    H264469   0.922   3.190  16.133  0.2859 -0.0021  0.1301
14352TIP3   OH264470   1.058   4.390   1.629 -0.0162 -0.2815 -0.7396
14352TIP3    H164471   1.099   4.476   1.639 -1.3035  0.2240  0.3549
14352TIP3    H264472   1.005   4.399   1.549  0.3199 -0.2457 -0.9589
14353TIP3   OH264473   3.859   5.940  13.158  0.5557 -0.2551  0.1787
14353TIP3    H164474   3.943   5.945  13.204  1.1793  1.5529 -1.1117
14353TIP3    H264475   3.815   5.866  13.198  0.7211  1.7358  4.3335
14354TIP3   OH264476   3.113   6.270   3.431  0.3214  0.1486  0.0133
14354TIP3    H164477   3.204   6.250   3.408  0.4844  0.8694  0.0217
14354TIP3    H264478   3.068   6.278   3.347  0.6217  1.4121 -0.0385
14355TIP3   OH264479   1.924   4.604  15.611 -0.1945 -0.1588 -0.1580
14355TIP3    H164480   1.987   4.662  15.653  0.4679 -1.8058  1.1856
14355TIP3    H264481   1.843   4.617  15.660  0.1030 -0.7468  0.5056
14356TIP3   OH264482   4.553   5.770   5.194  0.3147  0.3088  0.9107
14356TIP3    H164483   4.469   5.745   5.155 -0.0102  0.5407  1.4570
14356TIP3    H264484   4.607   5.691   5.188  0.2835  0.3581 -0.0554
14357TIP3   OH264485   4.210   2.567  16.155 -0.3139 -0.0534 -0.4750
14357TIP3    H164486   4.237   2.657  16.174 -1.4135  0.2251 -0.2229
14357TIP3    H264487   4.193   2.566  16.061  0.6056 -0.2406 -0.6433
14358TIP3   OH264488   6.161   5.779   3.288  0.2033  0.0325 -0.6758
14358TIP3    H164489   6.138   5.794   3.197  1.1918 -1.5688 -1.1962
14358TIP3    H264490   6.253   5.805   3.295 -0.3464  1.8518  0.2990
14359TIP3   OH264491   1.879   6.558   5.682 -0.2930  0.2371  0.3059
14359TIP3    H164492   1.948   6.606   5.636  0.3355 -0.8309  0.1392
14359TIP3    H264493   1.919   6.532   5.765  0.3061 -2.4872 -0.8025
14360TIP3   OH264494   3.981   6.201  17.026  0.0493  0.6055 -0.3528
14360TIP3    H164495   4.058   6.200  17.083  1.6106 -1.0375 -2.4108
14360TIP3    H264496   3.974   6.112  16.994 -1.1029  1.3779 -2.3160
14361TIP3   OH264497   3.993   2.352  14.078 -0.2194 -0.2708 -0.2961
14361TIP3    H164498   3.976   2.309  14.162 -0.0273 -0.5873 -0.4176
14361TIP3    H264499   3.918   2.329  14.024  0.5227 -1.5984 -0.8033
14362TIP3   OH264500   0.272   2.875   1.043 -0.0789  0.2092  0.0704
14362TIP3    H164501   0.241   2.889   0.954  0.8899  1.5917 -0.0616
14362TIP3    H264502   0.337   2.944   1.057 -0.5332  0.2746  1.9973
14363TIP3   OH264503   4.631   3.405  14.761  0.1106 -0.1104 -0.1384
14363TIP3    H164504   4.612   3.496  14.783 -0.2706 -0.7498  2.3774
14363TIP3    H264505   4.580   3.388  14.682  0.1031  1.8192 -0.5736
14364TIP3   OH264506   6.684   0.391  16.439 -0.1656  0.0534 -0.6538
14364TIP3    H164507   6.608   0.426  16.486  1.3109 -1.0230  2.6746
14364TIP3    H264508   6.751   0.459  16.449  0.6998 -0.9277  0.3564
14365TIP3   OH264509   6.019   4.407   1.521  0.6218 -0.2004 -0.5631
14365TIP3    H164510   5.974   4.469   1.464 -1.1197 -0.8475  0.0693
14365TIP3    H264511   6.049   4.461   1.595  0.0455  0.0791 -0.5284
14366TIP3   OH264512   0.720   0.282   3.980  0.2710 -0.1298 -0.7015
14366TIP3    H164513   0.682   0.220   4.041  2.2281 -0.8405 -0.1791
14366TIP3    H264514   0.711   0.241   3.894 -1.7406  0.5104 -0.8136
14367TIP3   OH264515   4.789   2.197  12.290  0.2359  0.5284  1.4938
14367TIP3    H164516   4.694   2.198  12.297  0.1109  2.5959 -0.1936
14367TIP3    H264517   4.807   2.141  12.215  0.2463  1.8697  0.4910
14368TIP3   OH264518   5.035   3.680  16.801  0.7636  0.3508  0.4629
14368TIP3    H164519   4.966   3.626  16.838  0.3603 -0.3302 -1.2229
14368TIP3    H264520   5.110   3.621  16.792 -0.0392 -0.3051 -2.4899
14369TIP3   OH264521   0.064   2.821   4.950 -0.5224 -0.3382 -0.0917
14369TIP3    H164522   0.063   2.906   4.993  1.0248 -0.5997  0.4758
14369TIP3    H264523  -0.009   2.825   4.888 -0.8145  1.1841  0.3330
14370TIP3   OH264524   1.864   6.744  13.318 -1.0305 -0.1286 -0.4635
14370TIP3    H164525   1.866   6.747  13.222  2.5593  1.2002 -0.4175
14370TIP3    H264526   1.884   6.653  13.339  1.2726  0.2232 -0.9955
14371TIP3   OH264527   6.463   2.839  13.446  0.4287  0.3469  0.1168
14371TIP3    H164528   6.456   2.744  13.433 -0.4229  0.5144 -0.7481
14371TIP3    H264529   6.555   2.859  13.426 -0.0250  0.0779 -2.4982
14372TIP3   OH264530   1.654   4.288   3.668 -0.7162  0.4993  0.3421
14372TIP3    H164531   1.669   4.350   3.596  1.1110  1.2641  1.3464
14372TIP3    H264532   1.732   4.232   3.667 -0.8037  0.3574  1.5693
14373TIP3   OH264533   0.422   1.504  15.238 -0.1747  0.3544  0.0552
14373TIP3    H164534   0.411   1.599  15.242 -1.1985  0.3309 -1.7308
14373TIP3    H264535   0.364   1.470  15.306  0.3843  1.0249  0.8654
14374TIP3   OH264536   6.621   5.516  12.765  0.8652 -0.0701  0.3030
14374TIP3    H164537   6.526   5.514  12.773  0.8995 -3.0962  0.4800
14374TIP3    H264538   6.648   5.593  12.816 -1.5835  2.0302 -1.4629
14375TIP3   OH264539   5.809   1.725  12.220 -0.4820 -0.4236  0.2774
14375TIP3    H164540   5.728   1.744  12.172 -0.1581  0.6646  0.1529
14375TIP3    H264541   5.855   1.808  12.222  0.3296 -0.8898  0.9384
14376TIP3   OH264542   6.046   6.787   6.695  0.6371 -0.3416  0.2222
14376TIP3    H164543   5.986   6.804   6.623  1.5947  2.7721  0.1105
14376TIP3    H264544   6.127   6.830   6.670  1.3974 -0.3120  2.5884
14377TIP3   OH264545   4.910   4.315   4.053 -0.0301 -0.4408  0.7693
14377TIP3    H164546   4.979   4.374   4.024 -0.0297 -0.2911  1.0718
14377TIP3    H264547   4.830   4.353   4.019 -0.0738 -0.0345  1.3249
14378TIP3   OH264548   1.647   2.495  16.801 -0.0779  0.4448  0.0936
14378TIP3    H164549   1.587   2.420  16.803  0.9327 -0.3829  0.3690
14378TIP3    H264550   1.603   2.560  16.747 -0.3690 -0.9129 -1.3514
14379TIP3   OH264551   6.247   5.463  16.260  0.1385 -0.0615 -0.6682
14379TIP3    H164552   6.255   5.500  16.348  1.9013 -0.7256 -0.5330
14379TIP3    H264553   6.257   5.369  16.273  0.6231 -0.1433 -1.6060
14380TIP3   OH264554   5.818   2.431  12.237 -0.5770  0.3147 -0.0474
14380TIP3    H164555   5.902   2.393  12.262 -1.7267 -0.2040  3.1700
14380TIP3    H264556   5.840   2.498  12.172  2.3178  0.3443  0.9381
14381TIP3   OH264557   5.507   1.088   2.583  0.0141 -0.6391  0.1784
14381TIP3    H164558   5.515   1.169   2.634 -0.0518 -0.7535  0.3720
14381TIP3    H264559   5.522   1.018   2.647 -4.1483 -0.9494  1.0113
14382TIP3   OH264560   6.078   5.537   3.788  0.3829  0.3085 -0.2563
14382TIP3    H164561   5.987   5.547   3.816  0.2441 -0.6866 -0.3426
14382TIP3    H264562   6.124   5.504   3.866  0.0321 -2.2950 -1.1065
14383TIP3   OH264563   0.516   1.762   0.285  0.3159  0.5628 -0.3666
14383TIP3    H164564   0.444   1.819   0.260  0.2039 -0.0235 -1.4055
14383TIP3    H264565   0.594   1.819   0.281  0.2536  0.5703 -1.7258
14384TIP3   OH264566   2.335   6.622   2.329  0.4928 -0.2749 -0.7656
14384TIP3    H164567   2.430   6.624   2.311  0.8391 -0.0912  1.0443
14384TIP3    H264568   2.317   6.530   2.349  0.7993  0.1425  1.5094
14385TIP3   OH264569   5.484   3.987  17.021 -0.5555  0.1244 -0.2233
14385TIP3    H164570   5.443   4.068  17.050  1.6298  1.4905 -0.8047
14385TIP3    H264571   5.537   3.959  17.096 -0.2733 -0.0415 -0.4829
14386TIP3   OH264572   5.681   1.528  15.590 -0.0581  0.1243 -0.0379
14386TIP3    H164573   5.627   1.536  15.512  0.9009 -1.0698 -0.8426
14386TIP3    H264574   5.627   1.478  15.652 -1.2353  1.9749  0.4964
14387TIP3   OH264575   1.600   3.404  16.093  0.3419 -0.3972 -0.0811
14387TIP3    H164576   1.689   3.431  16.117 -0.3539  1.4482  0.5130
14387TIP3    H264577   1.547   3.427  16.170 -0.7467 -0.9463 -0.6650
14388TIP3   OH264578   2.828   2.879   5.741  1.1117 -0.2434 -0.2342
14388TIP3    H164579   2.919   2.851   5.732  1.2719 -0.6010  2.0921
14388TIP3    H264580   2.825   2.922   5.826 -0.3837  1.8870 -1.3282
14389TIP3   OH264581   1.870   5.390  12.896 -0.2357 -0.7008  0.4755
14389TIP3    H164582   1.940   5.445  12.932 -1.3076  0.4219  0.8852
14389TIP3    H264583   1.848   5.431  12.813  0.9909 -2.2474 -0.6374
14390TIP3   OH264584   1.024   3.900  10.926  0.2870 -0.5059 -0.3028
14390TIP3    H164585   1.090   3.911  10.858  0.1450  1.0601 -0.2093
14390TIP3    H264586   0.941   3.892  10.879  0.6133 -3.5666 -0.4732
14391TIP3   OH264587   5.627   3.916  17.229 -0.2305  0.0537 -0.1911
14391TIP3    H164588   5.622   3.822  17.249  1.4399  0.0728  0.3520
14391TIP3    H264589   5.643   3.958  17.313  2.6178  0.4975 -0.9240
14392TIP3   OH264590   2.351   0.489  14.106  0.1874 -0.3374 -0.2778
14392TIP3    H164591   2.303   0.529  14.179 -0.0865 -0.0367 -0.6246
14392TIP3    H264592   2.399   0.417  14.147 -2.9091 -2.5653 -0.4000
14393TIP3   OH264593   2.418   0.740   4.328 -0.0130  0.3307  0.0405
14393TIP3    H164594   2.389   0.754   4.238  0.4924  0.6025 -0.0798
14393TIP3    H264595   2.343   0.767   4.381 -0.6079 -0.5869 -0.3187
14394TIP3   OH264596   3.455   0.963  16.209  0.4200  0.2368  0.1796
14394TIP3    H164597   3.481   0.881  16.166  1.8615  1.1545 -0.7548
14394TIP3    H264598   3.538   1.003  16.236 -0.2489  1.5315  0.3688
14395TIP3   OH264599   6.510   6.451  13.941 -0.2626  0.4503  0.0109
14395TIP3    H164600   6.470   6.398  13.872  0.5905  1.1825 -1.0577
14395TIP3    H264601   6.597   6.472  13.908 -0.7677  2.9659  0.1854
14396TIP3   OH264602   2.890   6.049  14.833 -0.3502  0.2363 -0.0784
14396TIP3    H164603   2.883   5.972  14.776  0.0631 -0.3264  0.6163
14396TIP3    H264604   2.835   6.115  14.792 -0.8854 -0.5117 -0.5646
14397TIP3   OH264605   0.045   1.531   3.979  0.1515 -0.5133  0.1255
14397TIP3    H164606   0.066   1.589   3.906 -0.5420 -1.4063 -0.8046
14397TIP3    H264607   0.127   1.486   3.998  0.7415  0.9222  0.9937
14398TIP3   OH264608   3.589   4.613   3.170  0.2332 -0.2327 -0.1860
14398TIP3    H164609   3.564   4.546   3.107 -0.6390 -1.5550  1.5137
14398TIP3    H264610   3.563   4.696   3.129  3.2207 -0.6992 -3.2271
14399TIP3   OH264611   3.770   2.763  15.893 -0.0297  0.6093 -0.5697
14399TIP3    H164612   3.674   2.762  15.894 -0.0303 -0.2646 -1.1213
14399TIP3    H264613   3.794   2.706  15.819  0.9260  0.0734  0.1456
14400TIP3   OH264614   4.428   3.316   3.985 -0.0621  0.0279 -0.1918
14400TIP3    H164615   4.373   3.241   3.965 -0.2040  0.1990 -0.4493
14400TIP3    H264616   4.428   3.368   3.904 -0.4798  0.6230  0.1882
14401TIP3   OH264617   4.676   3.806   4.134 -0.3600  0.0877 -0.8360
14401TIP3    H164618   4.599   3.756   4.107 -1.9541  2.2370 -0.4339
14401TIP3    H264619   4.647   3.854   4.211  1.5255  0.6580 -0.4536
14402TIP3   OH264620   5.800   0.913  11.452  0.2081 -0.4104 -0.7429
14402TIP3    H164621   5.855   0.976  11.499 -1.1802  1.0533 -1.0091
14402TIP3    H264622   5.842   0.903  11.367 -0.3148  1.3125 -1.2417
14403TIP3   OH264623   4.738   2.551  14.783 -0.5461  0.5636 -0.0031
14403TIP3    H164624   4.749   2.459  14.807 -0.2774  0.0497 -1.9575
14403TIP3    H264625   4.801   2.597  14.837  1.1818 -0.7307 -0.8475
14404TIP3   OH264626   2.213   0.852   2.269  0.0016 -0.2012 -0.0617
14404TIP3    H164627   2.175   0.875   2.353 -2.0337  0.2721 -1.1006
14404TIP3    H264628   2.250   0.934   2.236  1.5889 -0.5721  0.7539
14405TIP3   OH264629   5.037   6.479   5.166 -0.3236  0.1448 -0.5105
14405TIP3    H164630   4.995   6.538   5.102 -2.5964 -0.5988  0.2370
14405TIP3    H264631   5.004   6.509   5.251  0.9018 -0.3003  0.1247
14406TIP3   OH264632   3.278   2.761   5.473 -0.1066 -0.1465 -0.1332
14406TIP3    H164633   3.358   2.812   5.461 -0.3510  0.0840 -0.8312
14406TIP3    H264634   3.220   2.820   5.523 -0.1406  0.0086 -0.3510
14407TIP3   OH264635   4.899   3.164   2.610  0.1860 -0.0698 -0.0697
14407TIP3    H164636   4.902   3.139   2.702  0.3251  1.1141  0.2467
14407TIP3    H264637   4.991   3.169   2.583  0.1831  0.8552  0.0762
14408TIP3   OH264638   6.197   5.945   2.275 -0.5177  0.0490 -0.2641
14408TIP3    H164639   6.120   5.952   2.219 -0.6105 -0.9500 -0.2710
14408TIP3    H264640   6.268   5.982   2.223 -0.9081  0.6038 -0.4101
14409TIP3   OH264641   2.180   5.814   2.038 -0.3619  0.0095 -0.1602
14409TIP3    H164642   2.119   5.833   1.966  0.0451 -1.2334 -0.8440
14409TIP3    H264643   2.128   5.829   2.117 -1.0413  0.6473 -0.7130
14410TIP3   OH264644   5.431   1.986  14.171 -0.1046 -0.0979 -0.0954
14410TIP3    H164645   5.432   1.897  14.205 -0.9553 -0.3339 -0.6577
14410TIP3    H264646   5.349   2.024  14.204 -0.5873 -0.0967 -1.2405
14411TIP3   OH264647   4.676   4.419   0.945 -0.0108  0.2988  0.2345
14411TIP3    H164648   4.704   4.330   0.964  0.4998  0.2762 -0.6227
14411TIP3    H264649   4.705   4.435   0.855 -1.4430  0.7880 -0.1601
14412TIP3   OH264650   1.711   0.381   1.022 -0.8823  0.4232 -0.4522
14412TIP3    H164651   1.663   0.434   1.086  0.1465 -0.2291  0.8831
14412TIP3    H264652   1.772   0.442   0.981 -0.2553  0.4580  0.5186
14413TIP3   OH264653   3.920   1.075  11.045  0.1560 -0.0482  0.0151
14413TIP3    H164654   3.947   0.985  11.025 -0.6039 -0.3570  0.3463
14413TIP3    H264655   3.864   1.066  11.122 -0.4256  0.6355 -0.3223
14414TIP3   OH264656   6.179   0.261  15.055  0.1501 -0.1075 -0.0673
14414TIP3    H164657   6.268   0.264  15.019  0.2952 -1.3506  0.1646
14414TIP3    H264658   6.144   0.177  15.025 -0.7937  0.1787  0.2192
14415TIP3   OH264659   5.072   2.959   4.941  0.0396 -0.2080  0.4389
14415TIP3    H164660   5.100   2.872   4.913  2.2148  0.0268  1.7985
14415TIP3    H264661   5.113   3.018   4.879 -0.9717 -0.1066 -0.1399
14416TIP3   OH264662   5.763   3.713  11.725 -0.2917 -0.1792 -0.4729
14416TIP3    H164663   5.670   3.698  11.707 -0.3482  0.2908 -0.5807
14416TIP3    H264664   5.805   3.709  11.639 -0.1089 -1.0968 -0.3470
14417TIP3   OH264665   5.111   2.816  16.773  0.2023 -0.5754 -0.5395
14417TIP3    H164666   5.094   2.898  16.727  0.1409 -0.3005 -0.0247
14417TIP3    H264667   5.032   2.764  16.758  0.6637 -0.9542 -1.7446
14418TIP3   OH264668   0.568   3.828   1.987 -0.6683  0.4249  0.4000
14418TIP3    H164669   0.473   3.818   1.980 -0.6964 -0.5010  1.8255
14418TIP3    H264670   0.579   3.906   2.041 -0.6427  0.1220  0.8402
14419TIP3   OH264671   6.295   4.907  15.611 -0.0492 -0.1694 -0.1474
14419TIP3    H164672   6.370   4.850  15.594  0.4236  0.1081  0.9614
14419TIP3    H264673   6.225   4.847  15.635 -0.3417 -0.4694 -1.6686
14420TIP3   OH264674   0.155   1.464   6.102 -0.4735  0.1841  0.3871
14420TIP3    H164675   0.157   1.549   6.145 -0.6749  0.3138  0.1494
14420TIP3    H264676   0.213   1.473   6.027  0.4970 -0.2919  1.0751
14421TIP3   OH264677   4.087   5.388   1.961 -0.1250  0.3238 -0.2268
14421TIP3    H164678   3.992   5.396   1.967 -0.3528 -0.8419 -2.0371
14421TIP3    H264679   4.107   5.405   1.869  1.5150  1.3971  0.3042
14422TIP3   OH264680   6.154   3.034   0.618  0.3174  0.1334 -0.5663
14422TIP3    H164681   6.077   3.086   0.643  0.2879 -0.3066  0.2763
14422TIP3    H264682   6.215   3.045   0.691  0.2191 -1.2101 -0.2690
14423TIP3   OH264683   3.942   0.272  14.560 -0.3538 -0.5991  0.3969
14423TIP3    H164684   3.903   0.353  14.590 -1.5483 -0.8463 -0.4525
14423TIP3    H264685   4.036   0.290  14.556 -0.4461  0.2316  1.7205
14424TIP3   OH264686   1.229   0.781  14.898  0.6434  0.2485 -0.3909
14424TIP3    H164687   1.319   0.777  14.865  0.7361 -1.8248  0.0959
14424TIP3    H264688   1.238   0.804  14.990  0.8469 -2.8969  0.4045
14425TIP3   OH264689   6.396   5.240   5.322 -0.4164  0.5530  0.2573
14425TIP3    H164690   6.330   5.308   5.335 -2.3600 -1.4621  1.4648
14425TIP3    H264691   6.424   5.217   5.411 -0.2484 -0.6391 -0.0976
14426TIP3   OH264692   3.621   4.333  16.171  0.3877 -0.3087 -0.4513
14426TIP3    H164693   3.530   4.334  16.141  0.7086  0.3382 -1.4386
14426TIP3    H264694   3.653   4.245  16.149  0.4211 -0.0625 -1.4203
14427TIP3   OH264695   0.123   3.539  13.401  0.3496  0.3170 -0.5464
14427TIP3    H164696   0.213   3.553  13.432  0.1354 -0.7860  0.6450
14427TIP3    H264697   0.131   3.467  13.338  0.1852 -0.4312  0.2735
14428TIP3   OH264698   0.071   2.809   3.575  0.0251  0.4083 -0.0012
14428TIP3    H164699   0.061   2.860   3.494 -0.1787  0.6104  0.1498
14428TIP3    H264700   0.129   2.861   3.629  0.1082  0.3046  0.0077
14429TIP3   OH264701   5.696   4.035   3.892  0.3204 -0.2082  0.4586
14429TIP3    H164702   5.686   4.028   3.797  1.7198 -1.4526  0.3777
14429TIP3    H264703   5.609   4.020   3.927  0.0873 -1.3293 -0.5646
14430TIP3   OH264704   3.479   6.015   0.806 -0.4190  0.0760  0.1342
14430TIP3    H164705   3.473   5.946   0.873 -1.7141  0.0753  0.0297
14430TIP3    H264706   3.561   6.060   0.825 -0.8442  0.1505  1.7886
14431TIP3   OH264707   5.636   2.178  11.636  0.2291 -0.5852  0.5111
14431TIP3    H164708   5.608   2.103  11.583 -0.2699 -1.3936  1.9055
14431TIP3    H264709   5.723   2.199  11.603  1.0403 -2.7943  1.1691
14432TIP3   OH264710   2.497   0.830   2.585  0.1790 -0.2977 -0.6146
14432TIP3    H164711   2.588   0.806   2.601  0.2597 -0.4959 -1.3554
14432TIP3    H264712   2.466   0.766   2.521 -0.2823  0.1907 -0.8798
14433TIP3   OH264713   3.747   0.674  17.088 -0.1196  0.0032  0.7440
14433TIP3    H164714   3.720   0.746  17.031  0.2454 -2.1185 -2.2354
14433TIP3    H264715   3.697   0.599  17.056  1.2283 -1.5811  2.2665
14434TIP3   OH264716   5.585   2.669   3.680 -0.2333 -0.1822 -0.2023
14434TIP3    H164717   5.527   2.684   3.754  0.2721  1.0896 -0.0405
14434TIP3    H264718   5.587   2.574   3.669 -2.1675 -0.2496 -0.0826
14435TIP3   OH264719   0.524   1.119   0.456 -0.4149 -0.0399 -0.1011
14435TIP3    H164720   0.496   1.188   0.517 -0.4143  1.2713 -1.5660
14435TIP3    H264721   0.568   1.055   0.512 -2.1899  0.1379  1.5840
14436TIP3   OH264722   3.551   3.104   2.527 -0.3039 -0.4169  0.4725
14436TIP3    H164723   3.525   3.041   2.459  1.7420 -1.2405  0.4289
14436TIP3    H264724   3.589   3.177   2.478 -0.3240 -0.2854  0.6545
14437TIP3   OH264725   3.506   4.132  16.823  0.1491 -0.6467 -0.7611
14437TIP3    H164726   3.478   4.218  16.854 -0.9312 -0.8216 -1.2347
14437TIP3    H264727   3.523   4.082  16.903  1.7855  0.3168 -0.4838
14438TIP3   OH264728   2.233   4.181   3.816  0.0295  0.4882 -0.0414
14438TIP3    H164729   2.266   4.221   3.897 -0.1595  0.2742  0.1420
14438TIP3    H264730   2.183   4.251   3.774 -1.6152 -0.0169  1.0508
14439TIP3   OH264731   1.085   3.890  15.232  0.1763 -0.4558  0.0307
14439TIP3    H164732   1.054   3.882  15.141  0.0586  1.9960 -0.1727
14439TIP3    H264733   1.177   3.915  15.223 -0.0268  0.4880  0.5776
14440TIP3   OH264734   2.494   4.182  15.973  0.3474  1.3417  0.0229
14440TIP3    H164735   2.528   4.103  15.931 -0.1125  0.5853  1.0494
14440TIP3    H264736   2.403   4.187  15.945  0.2310  1.2178  0.3752
14441TIP3   OH264737   5.277   5.232  17.183 -0.0955 -0.2060  0.4890
14441TIP3    H164738   5.369   5.254  17.167  0.0113  0.8376  2.3436
14441TIP3    H264739   5.280   5.174  17.260 -0.9233 -0.9460 -0.0298
14442TIP3   OH264740   0.381   4.432  16.260 -0.0811  0.4198 -0.5636
14442TIP3    H164741   0.297   4.475  16.245 -1.9477 -2.8290 -0.1075
14442TIP3    H264742   0.400   4.387  16.177  1.6941  1.8832 -0.9696
14443TIP3   OH264743   3.674   3.474  12.629 -0.2331  0.3921  0.3072
14443TIP3    H164744   3.650   3.444  12.542 -0.5315  1.5378 -0.0100
14443TIP3    H264745   3.627   3.416  12.689  0.2974 -0.6640 -0.2759
14444TIP3   OH264746   0.500   3.878  12.691 -0.6526  0.1092 -0.0414
14444TIP3    H164747   0.479   3.881  12.784 -1.1899  0.2754 -0.1648
14444TIP3    H264748   0.586   3.836  12.687 -1.9461 -2.6569  0.3142
14445TIP3   OH264749   1.146   1.906   1.047 -0.2775  0.1610 -0.0723
14445TIP3    H164750   1.126   1.967   0.975 -0.7163  0.2039  0.0823
14445TIP3    H264751   1.072   1.915   1.106  0.2346  0.3506  0.5424
14446TIP3   OH264752   1.827   4.999  14.422  0.5423  0.2111 -0.0757
14446TIP3    H164753   1.908   4.958  14.453  0.2228 -0.3956 -0.0198
14446TIP3    H264754   1.855   5.078  14.377  0.9259  2.1352  3.3706
14447TIP3   OH264755   1.720   5.246   1.308 -0.1414  1.1524 -0.7234
14447TIP3    H164756   1.734   5.336   1.278  2.5993  1.0934  0.2020
14447TIP3    H264757   1.772   5.240   1.388 -2.1140 -0.6026  0.4444
14448TIP3   OH264758   0.372   4.285   2.131  0.1555 -0.0288 -0.4232
14448TIP3    H164759   0.451   4.292   2.078  0.2850  2.0905  0.0058
14448TIP3    H264760   0.402   4.302   2.221 -0.6005 -0.3882 -0.0925
14449TIP3   OH264761   4.660   6.260   5.370  0.0065  0.5824  0.2685
14449TIP3    H164762   4.734   6.203   5.390 -0.9276 -0.5536  0.5935
14449TIP3    H264763   4.694   6.349   5.379  1.4262  0.0701 -0.0120
14450TIP3   OH264764   3.472   3.694  15.944 -0.0841 -0.5437 -0.0503
14450TIP3    H164765   3.457   3.788  15.932 -0.6003 -0.9011 -2.3959
14450TIP3    H264766   3.568   3.686  15.948  0.0208 -0.0870 -1.4694
14451TIP3   OH264767   6.063   4.414  12.973  0.0371 -0.2133 -0.4326
14451TIP3    H164768   6.128   4.463  12.922 -0.3509  2.6734  1.7594
14451TIP3    H264769   5.982   4.462  12.961 -0.3211 -0.1840  1.8808
14452TIP3   OH264770   1.560   3.097  12.970  0.1282  0.2303 -0.1476
14452TIP3    H164771   1.506   3.076  12.894  1.1642 -0.6981 -0.6367
14452TIP3    H264772   1.499   3.138  13.031 -1.4006 -1.8440 -0.2192
14453TIP3   OH264773   3.010   5.905   1.029 -0.3374  0.3152  0.4973
14453TIP3    H164774   3.031   5.946   0.945 -0.3320  1.4642  1.0479
14453TIP3    H264775   2.927   5.946   1.055 -1.2803 -1.3547  0.1895
14454TIP3   OH264776   5.505   3.633  11.648 -0.2057 -0.4699 -0.4095
14454TIP3    H164777   5.469   3.644  11.560  0.3202 -3.8645 -1.1219
14454TIP3    H264778   5.526   3.540  11.653  0.9813 -0.0654  2.8655
14455TIP3   OH264779   5.561   4.613   4.156  0.2581  0.7137 -0.3716
14455TIP3    H164780   5.655   4.596   4.156  0.3387  0.7482  2.6852
14455TIP3    H264781   5.553   4.707   4.140  0.5812  0.2988 -3.1067
14456TIP3   OH264782   1.690   4.054  15.095 -0.1477  0.3660  0.0317
14456TIP3    H164783   1.782   4.040  15.118 -0.1547  0.6599  0.2447
14456TIP3    H264784   1.662   3.971  15.056  0.3616  0.4599 -0.5393
14457TIP3   OH264785   5.407   2.118   1.747  0.3276  0.0499  0.4737
14457TIP3    H164786   5.322   2.155   1.722  0.0162 -1.5428 -0.9142
14457TIP3    H264787   5.396   2.090   1.838 -0.6693 -0.2164  0.2772
14458TIP3   OH264788   0.876   5.043  10.534  0.2544  0.3826 -0.2000
14458TIP3    H164789   0.862   5.097  10.456  1.0230 -1.7255 -1.8388
14458TIP3    H264790   0.954   5.079  10.575  0.0544  1.2736 -0.6046
14459TIP3   OH264791   2.766   1.335  11.082 -0.1395 -0.2318 -0.1170
14459TIP3    H164792   2.771   1.416  11.133 -0.0504 -1.2997  1.6175
14459TIP3    H264793   2.682   1.340  11.036 -0.9158  0.0892  1.3046
14460TIP3   OH264794   1.317   1.087   1.028  0.2683  0.4314  0.3071
14460TIP3    H164795   1.232   1.045   1.042  0.9226 -0.9940  0.0700
14460TIP3    H264796   1.361   1.080   1.113  1.2266 -1.3335 -0.3148
14461TIP3   OH264797   4.370   3.990  11.631  0.0356 -0.6436 -0.7963
14461TIP3    H164798   4.372   3.895  11.632  1.8801 -0.6229  0.2931
14461TIP3    H264799   4.420   4.014  11.554  0.2825 -0.5477 -0.6064
14462TIP3   OH264800   1.921   1.497  14.769  0.2704  0.3209 -0.2568
14462TIP3    H164801   1.908   1.415  14.721  4.0717 -0.2740 -0.4690
14462TIP3    H264802   1.834   1.521  14.800 -0.7559 -4.5052  1.0035
14463TIP3   OH264803   6.771   0.607   4.122 -0.4198  0.0847  0.1873
14463TIP3    H164804   6.837   0.577   4.060 -0.8926 -0.6344  0.0359
14463TIP3    H264805   6.743   0.692   4.087  0.4374  0.4059  0.2642
14464TIP3   OH264806   5.729   0.502   0.256 -0.4257 -0.3882 -0.9162
14464TIP3    H164807   5.790   0.446   0.209  0.2918 -0.1951 -0.2210
14464TIP3    H264808   5.651   0.447   0.269  0.4429 -1.3918  0.1522
14465TIP3   OH264809   5.532   2.944  14.332 -0.4233  0.0283 -0.1573
14465TIP3    H164810   5.586   2.909  14.403 -0.9455  3.3439  1.9736
14465TIP3    H264811   5.594   2.991  14.276 -0.5097  0.5200  0.1518
14466TIP3   OH264812   3.453   6.649  14.661  0.3746 -0.3074 -0.0152
14466TIP3    H164813   3.436   6.661  14.754 -0.0327  1.1990 -0.2792
14466TIP3    H264814   3.462   6.554  14.650 -0.2598 -0.5348  1.4287
14467TIP3   OH264815   2.767   0.254   5.594 -0.0569 -0.3887  0.0926
14467TIP3    H164816   2.802   0.168   5.572 -0.1809  0.0051 -1.6896
14467TIP3    H264817   2.724   0.284   5.515  1.0108  1.8368  0.2934
14468TIP3   OH264818   2.452   2.995  11.599  0.1294 -0.0432  0.3278
14468TIP3    H164819   2.374   2.967  11.551  0.5426  0.1368 -0.4578
14468TIP3    H264820   2.496   2.914  11.625 -0.3397 -0.1456  0.8113
14469TIP3   OH264821   4.272   5.322  12.031 -0.2031 -0.0735  0.2183
14469TIP3    H164822   4.343   5.291  12.087 -0.0438  1.3884  0.8340
14469TIP3    H264823   4.260   5.414  12.054 -0.8848  0.2637 -1.3631
14470TIP3   OH264824   1.125   5.407  15.064  0.1637 -0.0598  0.0869
14470TIP3    H164825   1.168   5.387  15.148  0.7678 -0.1177 -0.2337
14470TIP3    H264826   1.184   5.468  15.021  0.0632 -0.3687 -0.4881
14471TIP3   OH264827   0.232   1.441   4.199 -0.4975  0.0113  0.1623
14471TIP3    H164828   0.261   1.422   4.288 -0.2873 -0.0937  0.0727
14471TIP3    H264829   0.196   1.530   4.204  0.4875  0.4226  0.1319
14472TIP3   OH264830   2.132   0.395  16.558  0.4543  0.2441 -0.2802
14472TIP3    H164831   2.093   0.348  16.632  1.5719  0.8894  0.7491
14472TIP3    H264832   2.086   0.479  16.556 -0.3176 -0.1875 -1.0056
14473TIP3   OH264833   0.969   1.475   3.285  0.0152  0.2805 -0.0914
14473TIP3    H164834   1.043   1.415   3.287 -0.0372  0.2101 -0.2758
14473TIP3    H264835   0.916   1.450   3.361  0.0346  0.1469 -0.1224
14474TIP3   OH264836   2.501   1.526  16.185 -0.0390 -0.4244  0.8172
14474TIP3    H164837   2.594   1.547  16.177 -0.2796 -0.1256 -1.2860
14474TIP3    H264838   2.491   1.441  16.141 -0.9108 -0.0334  0.2353
14475TIP3   OH264839   5.068   0.230   0.901 -0.1363  0.2641 -0.4978
14475TIP3    H164840   5.143   0.185   0.940  0.1012  0.9134 -0.2075
14475TIP3    H264841   5.070   0.317   0.940  0.1504  0.9430 -2.0244
14476TIP3   OH264842   4.743   3.965  14.656 -0.0459 -0.0210  0.9945
14476TIP3    H164843   4.827   3.959  14.609 -0.2774  0.8725  0.4488
14476TIP3    H264844   4.684   3.908  14.606 -0.2453  0.7912  0.2873
14477TIP3   OH264845   1.564   5.746  14.672  0.2611 -0.2267  0.0842
14477TIP3    H164846   1.542   5.666  14.624  0.1172 -0.6592  0.8612
14477TIP3    H264847   1.660   5.745  14.676  0.2264 -0.8041  0.8359
14478TIP3   OH264848   2.809   4.743   6.256  0.0491 -0.7602 -0.4845
14478TIP3    H164849   2.791   4.683   6.328  0.8072 -1.1135 -0.5882
14478TIP3    H264850   2.775   4.828   6.285 -2.9393 -1.6644 -1.1581
14479TIP3   OH264851   4.705   0.536   1.455 -0.1269 -0.8490 -0.1909
14479TIP3    H164852   4.762   0.476   1.501 -0.4111 -0.8659  0.1460
14479TIP3    H264853   4.619   0.494   1.457  0.1592 -1.5506 -2.0481
14480TIP3   OH264854   1.109   2.700  16.163 -0.0208 -0.1115 -0.1388
14480TIP3    H164855   1.079   2.676  16.251  5.0470  1.1130  2.1179
14480TIP3    H264856   1.105   2.619  16.113 -1.6786 -1.1527  1.6243
14481TIP3   OH264857   4.093   5.877  16.023  0.5582  0.0266 -0.2091
14481TIP3    H164858   4.174   5.836  15.993  0.1263  0.7324 -2.4192
14481TIP3    H264859   4.055   5.916  15.944 -1.6077  0.2626  0.9166
14482TIP3   OH264860   5.447   5.281  16.013  0.3782 -0.0925  0.2153
14482TIP3    H164861   5.524   5.333  16.036  0.6990  0.2758 -1.5926
14482TIP3    H264862   5.472   5.235  15.933 -0.2757 -2.2406  1.2171
14483TIP3   OH264863   0.592   1.541   5.732  0.0628 -0.2578 -0.6644
14483TIP3    H164864   0.674   1.539   5.782 -0.7515 -0.1815  0.6938
14483TIP3    H264865   0.620   1.549   5.641  1.5380  1.0950 -0.1108
14484TIP3   OH264866   4.185   0.993  15.642 -0.0757 -0.6273  0.0119
14484TIP3    H164867   4.114   1.000  15.577  0.1885  1.5726 -0.0835
14484TIP3    H264868   4.263   0.973  15.590 -0.2609 -1.0330 -0.1107
14485TIP3   OH264869   3.245   0.462   4.898  0.4379  0.1201  0.5871
14485TIP3    H164870   3.302   0.496   4.966 -1.5288 -1.4966  3.1415
14485TIP3    H264871   3.187   0.535   4.877  2.6004  1.3929 -1.1857
14486TIP3   OH264872   2.650   6.103  15.193  0.0924  0.3526  0.2576
14486TIP3    H164873   2.562   6.112  15.157 -0.7437 -0.7562  1.9902
14486TIP3    H264874   2.659   6.175  15.255  0.7881  1.0379 -0.6100
14487TIP3   OH264875   0.905   3.271  12.262  0.0193  0.0333 -0.2460
14487TIP3    H164876   0.817   3.238  12.247 -0.0715 -0.1959  0.7809
14487TIP3    H264877   0.962   3.194  12.251 -0.0384 -0.1139  0.4929
14488TIP3   OH264878   2.900   5.797   0.368  0.0139  0.6024 -0.5147
14488TIP3    H164879   2.984   5.811   0.411 -0.6131  2.3516  0.1973
14488TIP3    H264880   2.875   5.708   0.391  1.5104  0.1884 -0.4578
14489TIP3   OH264881   0.505   2.824  12.745 -0.7188  0.2751  0.0548
14489TIP3    H164882   0.485   2.901  12.798  0.6814  1.0010 -0.4523
14489TIP3    H264883   0.600   2.827  12.733 -0.7331 -1.1746 -0.5167
14490TIP3   OH264884   6.558   2.745  14.486  0.3783  0.1993 -0.2642
14490TIP3    H164885   6.536   2.820  14.432 -0.6333  1.0054  1.2293
14490TIP3    H264886   6.475   2.721  14.528  0.8769 -1.2030 -0.0564
14491TIP3   OH264887   0.199   1.961   2.038 -0.0107 -0.1324 -0.5349
14491TIP3    H164888   0.192   2.037   1.981  1.5141 -0.8503 -1.7157
14491TIP3    H264889   0.292   1.959   2.063 -0.2199 -1.0934  0.1846
14492TIP3   OH264890   2.604   6.420  13.383  0.3021 -0.0426  0.3385
14492TIP3    H164891   2.623   6.368  13.460 -1.6540 -0.1089  0.8063
14492TIP3    H264892   2.644   6.372  13.310  1.4814 -0.3739  1.1872
14493TIP3   OH264893   3.393   5.167  12.045  0.1877 -0.4825  0.1188
14493TIP3    H164894   3.319   5.204  11.996 -0.2584 -1.4075  0.0862
14493TIP3    H264895   3.373   5.186  12.137 -0.9170 -2.1648  0.2459
14494TIP3   OH264896   3.181   1.079   1.221 -0.1162  0.1131 -0.7152
14494TIP3    H164897   3.118   1.048   1.285  0.1305 -2.6933 -1.7736
14494TIP3    H264898   3.201   1.169   1.248 -1.8122 -0.2064  1.7019
14495TIP3   OH264899   6.463   0.994   3.877 -0.3140  0.3460 -0.3498
14495TIP3    H164900   6.474   1.033   3.791  1.6078  0.0361 -0.2831
14495TIP3    H264901   6.503   1.058   3.937 -0.5351 -0.0031  0.1711
14496TIP3   OH264902   3.582   0.541  11.247  0.0031 -0.4313 -0.0547
14496TIP3    H164903   3.527   0.618  11.231  1.6361  0.4014 -1.8001
14496TIP3    H264904   3.638   0.567  11.320  0.1493 -0.1759 -0.2570
14497TIP3   OH264905   5.511   6.724   5.403 -0.2563  0.5031  0.0007
14497TIP3    H164906   5.424   6.754   5.428 -0.4841  1.7432 -2.1753
14497TIP3    H264907   5.571   6.774   5.458 -0.8598  0.8255  0.3686
14498TIP3   OH264908   3.596   5.150   0.594  0.8488  0.2826 -0.0634
14498TIP3    H164909   3.679   5.104   0.595 -0.2408 -1.7539  0.6271
14498TIP3    H264910   3.545   5.109   0.665  0.0542  2.9725  0.9895
14499TIP3   OH264911   6.555   1.683  12.638  0.0909 -0.0445 -0.1617
14499TIP3    H164912   6.602   1.606  12.670  1.8793  0.3996 -1.6898
14499TIP3    H264913   6.467   1.650  12.619  0.5768 -1.5070  0.0587
14500TIP3   OH264914   1.417   4.367   3.804 -0.0818  0.6003  0.4962
14500TIP3    H164915   1.350   4.419   3.761  1.0771  3.0819  1.5956
14500TIP3    H264916   1.486   4.357   3.739 -0.5169  0.0057  0.1232
14501TIP3   OH264917   0.267   2.232   0.288  0.1786  0.0557  0.7384
14501TIP3    H164918   0.222   2.161   0.335 -0.9224 -0.5855 -1.2649
14501TIP3    H264919   0.344   2.190   0.250  1.4659  0.7334  2.5020
14502TIP3   OH264920   5.216   4.219  11.287  0.0202 -0.3047 -0.7378
14502TIP3    H164921   5.160   4.241  11.362  0.8914  1.4523 -0.5806
14502TIP3    H264922   5.254   4.135  11.310  1.7373  1.0581  1.6734
14503TIP3   OH264923   3.266   6.169  16.452 -0.5293 -0.5287 -0.1702
14503TIP3    H164924   3.200   6.238  16.452 -1.4012 -1.3344 -2.4728
14503TIP3    H264925   3.346   6.213  16.423 -0.6281 -0.0818  0.2238
14504TIP3   OH264926   2.355   1.735   3.017  1.3064  0.1204 -0.2304
14504TIP3    H164927   2.270   1.736   2.972  1.5629 -0.2630 -0.7254
14504TIP3    H264928   2.335   1.698   3.104  1.0128 -0.2446 -0.4480
14505TIP3   OH264929   0.689   6.617   4.511 -0.4292  0.1206 -0.3325
14505TIP3    H164930   0.699   6.592   4.603 -0.1437  0.6753 -0.2122
14505TIP3    H264931   0.650   6.540   4.469  1.9426 -1.1341 -0.2973
14506TIP3   OH264932   6.651   1.979   0.392  0.1477  0.2500 -0.2267
14506TIP3    H164933   6.645   1.910   0.326  2.9002  0.4737 -0.7649
14506TIP3    H264934   6.569   1.971   0.442 -0.3124 -2.3343 -1.2967
14507TIP3   OH264935   3.338   1.630   3.874  0.4820 -0.0640  0.1430
14507TIP3    H164936   3.337   1.723   3.893 -2.3934 -0.5722  3.0422
14507TIP3    H264937   3.376   1.589   3.952  0.7546 -1.3674 -0.6535
14508TIP3   OH264938   2.273   5.713  15.418  0.2944 -0.5704  0.0234
14508TIP3    H164939   2.317   5.629  15.407 -0.4589 -0.6320 -2.9567
14508TIP3    H264940   2.314   5.771  15.354 -1.1959  0.4759 -0.0328
14509TIP3   OH264941   6.235   4.239   0.658 -0.5119  0.3665 -1.0583
14509TIP3    H164942   6.324   4.222   0.628 -0.5206 -1.1986 -0.2231
14509TIP3    H264943   6.242   4.315   0.715  0.6941 -1.2726  1.0130
14510TIP3   OH264944   3.398   0.264   0.901  0.1669  0.1018 -0.2987
14510TIP3    H164945   3.411   0.333   0.965 -1.6230 -1.8292  2.2423
14510TIP3    H264946   3.308   0.276   0.870  0.1256 -0.5843 -0.4693
14511TIP3   OH264947   1.608   5.491  14.561  0.4471  0.1995 -0.1880
14511TIP3    H164948   1.682   5.522  14.509  0.9127 -0.9390 -0.2169
14511TIP3    H264949   1.555   5.440  14.499  0.0858  0.2937  0.0419
14512TIP3   OH264950   5.023   5.826  13.107 -0.5698 -0.3506  0.0546
14512TIP3    H164951   5.028   5.796  13.198 -0.3464 -0.1113  0.1205
14512TIP3    H264952   4.989   5.750  13.059 -2.0021 -0.0395  0.5565
14513TIP3   OH264953   4.459   1.995   1.007  0.2772  0.0301 -0.4969
14513TIP3    H164954   4.394   1.939   1.050 -0.0040  1.3225  0.7984
14513TIP3    H264955   4.541   1.945   1.013  0.0476 -0.2335  0.6851
14514TIP3   OH264956   0.410   3.939  11.509 -0.0846 -0.2103 -0.3244
14514TIP3    H164957   0.400   3.855  11.464 -2.3098  0.6169 -1.4822
14514TIP3    H264958   0.342   3.994  11.471 -0.1813  1.4112  2.0800
14515TIP3   OH264959   3.257   2.647   1.391 -0.2462 -0.1540 -0.0792
14515TIP3    H164960   3.223   2.565   1.354  2.3778 -1.6945  0.7735
14515TIP3    H264961   3.319   2.678   1.326  0.1125  0.1886  0.4263
14516TIP3   OH264962   5.149   2.839  13.928 -0.3318 -0.2758 -0.2352
14516TIP3    H164963   5.203   2.774  13.883 -0.0020  0.0172 -0.2630
14516TIP3    H264964   5.082   2.787  13.973 -1.1652 -0.5295 -1.7132
14517TIP3   OH264965   1.087   3.433   1.210 -0.2235 -0.0007 -0.3199
14517TIP3    H164966   1.077   3.477   1.294  0.3001 -0.4163 -0.0406
14517TIP3    H264967   1.138   3.494   1.157 -2.0865  1.0529 -0.9415
14518TIP3   OH264968   0.155   4.973  11.432  0.3659  0.0619 -0.3285
14518TIP3    H164969   0.198   5.029  11.367  0.8549 -2.4242 -2.1911
14518TIP3    H264970   0.216   4.972  11.506  1.2214  0.5047 -1.0131
14519TIP3   OH264971   4.362   4.966  13.092 -0.1054 -0.6351  0.0710
14519TIP3    H164972   4.333   5.021  13.165 -0.7522  0.5220 -1.0462
14519TIP3    H264973   4.300   4.985  13.022 -0.0443 -2.4395 -0.4811
14520TIP3   OH264974   3.026   0.476   0.296  0.0142 -0.5146  0.1071
14520TIP3    H164975   3.097   0.538   0.311  0.0994 -0.7023  0.4864
14520TIP3    H264976   3.040   0.408   0.361  0.7267 -1.6482 -1.1979
14521TIP3   OH264977   3.872   0.722   0.695  0.4020  0.5288  0.0559
14521TIP3    H164978   3.948   0.665   0.684  0.6607  0.5494  1.6606
14521TIP3    H264979   3.804   0.680   0.643  1.0687 -0.3378 -0.1384
14522TIP3   OH264980   0.968   1.500  10.888  0.7669 -0.5362 -0.3739
14522TIP3    H164981   0.898   1.442  10.859  0.3798 -0.1642 -0.1893
14522TIP3    H264982   1.017   1.522  10.808  0.4709 -0.5236 -0.5495
14523TIP3   OH264983   4.004   6.257   4.180  0.1349 -0.0013  0.5133
14523TIP3    H164984   4.054   6.338   4.189  0.6283 -0.3619  1.0774
14523TIP3    H264985   4.002   6.220   4.268 -0.4197 -0.4063  0.3304
14524TIP3   OH264986   5.320   6.065   5.456 -0.1619  0.5064 -0.0956
14524TIP3    H164987   5.285   6.136   5.510 -1.5150  0.2219 -0.5790
14524TIP3    H264988   5.257   6.055   5.385 -0.8360 -2.2000  0.7923
14525TIP3   OH264989   1.594   6.632   4.317 -0.6292 -0.0391 -0.4273
14525TIP3    H164990   1.595   6.541   4.287  0.4958  0.5303 -2.1847
14525TIP3    H264991   1.511   6.640   4.365 -1.2945 -1.6690 -1.2496
14526TIP3   OH264992   6.016   5.489   4.139 -0.7103 -0.1703 -0.3314
14526TIP3    H164993   6.109   5.480   4.118 -0.7974 -0.7172 -0.4893
14526TIP3    H264994   5.980   5.541   4.067 -0.2421  1.2998  0.4862
14527TIP3   OH264995   2.568   2.141   0.083  0.5448  0.7348  0.6159
14527TIP3    H164996   2.520   2.180   0.157  0.4216  0.5631  0.6254
14527TIP3    H264997   2.633   2.207   0.060 -0.8213  1.7072 -0.5261
14528TIP3   OH264998   0.662   4.312  15.002  0.1575 -0.1932 -0.1166
14528TIP3    H164999   0.630   4.251  15.069  2.1257 -0.0057  1.0285
14528TIP3    H265000   0.627   4.397  15.028 -0.8249 -0.4698 -0.5197
14529TIP3   OH265001   2.998   5.419   5.536  0.5035 -0.1484  0.1143
14529TIP3    H165002   3.087   5.432   5.570  0.3288  0.6267  0.2887
14529TIP3    H265003   3.002   5.452   5.446  0.2919  0.2860  0.2595
14530TIP3   OH265004   2.374   1.458   0.578  0.5367 -0.3568  0.0642
14530TIP3    H165005   2.365   1.550   0.600  1.5559  0.0001 -0.9649
14530TIP3    H265006   2.301   1.441   0.518  0.6596 -0.0864 -0.1617
14531TIP3   OH265007   0.166   1.316  16.620  0.3940 -0.1949 -0.5029
14531TIP3    H165008   0.191   1.379  16.551 -1.0786  0.3535 -0.5542
14531TIP3    H265009   0.154   1.233  16.573  0.9038 -0.1798 -0.6628
14532TIP3   OH265010   3.083   6.059   1.624 -0.5391  0.1097 -0.2040
14532TIP3    H165011   3.005   6.113   1.611 -0.5882  0.0078 -0.3336
14532TIP3    H265012   3.147   6.118   1.662 -0.4085  0.3957 -0.8700
14533TIP3   OH265013   2.628   1.055  12.209  0.4215  0.5206  0.5344
14533TIP3    H165014   2.626   1.004  12.129  0.1879  1.2519  0.0645
14533TIP3    H265015   2.554   1.116  12.201  1.1218  1.4224  0.7326
14534TIP3   OH265016   5.506   1.137   5.777  0.4263 -0.4479 -0.1923
14534TIP3    H165017   5.600   1.142   5.760  0.8135 -1.6674  1.4403
14534TIP3    H265018   5.498   1.154   5.871 -0.9902 -0.2878 -0.3356
14535TIP3   OH265019   4.754   5.677   3.081 -0.0715 -0.2257  0.2148
14535TIP3    H165020   4.783   5.610   3.143  2.8759  0.8214  0.0753
14535TIP3    H265021   4.659   5.670   3.080 -0.0664 -1.5508  3.4024
14536TIP3   OH265022   1.447   6.604  14.655  0.0348 -0.1724  0.2507
14536TIP3    H165023   1.426   6.653  14.735  0.2857 -0.5339  0.5423
14536TIP3    H265024   1.523   6.650  14.619  0.0798 -0.1626  0.3583
14537TIP3   OH265025   6.525   1.599   6.456  0.4332 -0.2162 -0.4744
14537TIP3    H165026   6.557   1.688   6.472  1.8845 -0.2715 -2.8418
14537TIP3    H265027   6.441   1.596   6.502  1.7950  1.3143  2.3077
14538TIP3   OH265028   6.660   0.407   5.421 -0.2655  0.1401 -0.3131
14538TIP3    H165029   6.753   0.424   5.411 -0.5392  1.2511 -1.2200
14538TIP3    H265030   6.622   0.494   5.437 -1.1324 -0.3052  0.0469
14539TIP3   OH265031   3.783   3.736   0.268 -0.2394  0.0373 -0.3302
14539TIP3    H165032   3.700   3.756   0.313  0.4319 -1.3340  1.5843
14539TIP3    H265033   3.759   3.728   0.176 -1.9961  1.0226  0.0116
14540TIP3   OH265034   5.859   1.685   4.410  0.1861  0.1936 -0.0211
14540TIP3    H165035   5.885   1.602   4.370 -1.1752 -0.1538 -0.1966
14540TIP3    H265036   5.942   1.725   4.437  0.8507 -1.2018  0.0419
14541TIP3   OH265037   3.028   1.970  12.924 -0.6939  0.1575 -0.2976
14541TIP3    H165038   3.040   2.044  12.984 -1.3696 -0.7174  0.9295
14541TIP3    H265039   3.085   1.991  12.850 -1.2433  2.1531 -0.2088
14542TIP3   OH265040   1.761   6.740   3.580 -0.1733  0.2022  0.1049
14542TIP3    H165041   1.814   6.819   3.573 -1.5048  1.0036 -1.1317
14542TIP3    H265042   1.692   6.751   3.515 -0.8085 -1.6481  0.4291
14543TIP3   OH265043   3.158   6.512  13.427  0.0409 -0.2091  0.1818
14543TIP3    H165044   3.142   6.599  13.390 -0.3756 -0.4742 -0.2722
14543TIP3    H265045   3.252   6.509  13.445  0.3016 -0.2089 -1.1946
14544TIP3   OH265046   4.033   1.460   2.834  0.2356  0.1770  0.2638
14544TIP3    H165047   4.077   1.383   2.799  0.8023  0.2394  0.8206
14544TIP3    H265048   3.968   1.483   2.767 -0.8061 -1.5122  0.6596
14545TIP3   OH265049   2.762   1.985  12.608 -0.4449 -0.2778 -0.2946
14545TIP3    H165050   2.739   1.891  12.609 -0.2770 -0.3137  0.3200
14545TIP3    H265051   2.743   2.013  12.518 -0.7733 -0.8336 -0.4030
14546TIP3   OH265052   4.529   0.835  12.266 -0.4447  0.3288 -0.1114
14546TIP3    H165053   4.534   0.872  12.178 -0.6134  2.1514  0.6030
14546TIP3    H265054   4.606   0.779  12.273 -0.4073  0.1999 -1.3984
14547TIP3   OH265055   4.341   5.618   1.736  0.1565  1.3526 -0.1488
14547TIP3    H165056   4.406   5.685   1.757 -0.2864  1.4429  1.0011
14547TIP3    H265057   4.306   5.592   1.822  0.3374 -0.3563 -0.5838
14548TIP3   OH265058   1.410   4.219   1.965 -0.3564 -0.0467 -0.0202
14548TIP3    H165059   1.481   4.175   2.012 -0.0935 -0.6281 -0.9460
14548TIP3    H265060   1.344   4.151   1.951  0.0024 -0.1381 -1.3525
14549TIP3   OH265061   4.382   2.042   2.255 -0.4067 -0.3177 -0.4901
14549TIP3    H165062   4.443   2.039   2.329  0.2390 -1.0346 -1.0496
14549TIP3    H265063   4.296   2.050   2.296 -0.0541 -0.7566  0.3401
14550TIP3   OH265064   6.735   2.048   3.767 -0.1380 -0.0054  0.4592
14550TIP3    H165065   6.737   1.961   3.807  0.6304 -0.8182 -1.2799
14550TIP3    H265066   6.794   2.040   3.691 -0.6928  1.8010 -0.1702
14551TIP3   OH265067   4.665   0.141  11.931 -0.1032 -0.4308 -0.0302
14551TIP3    H165068   4.641   0.222  11.976 -0.4440  0.6912 -2.1898
14551TIP3    H265069   4.588   0.120  11.877  1.9549  0.6873 -3.5016
14552TIP3   OH265070   3.219   4.572  13.715 -0.1343 -0.0812 -0.2699
14552TIP3    H165071   3.156   4.541  13.650 -0.3464 -0.1503 -0.0329
14552TIP3    H265072   3.282   4.501  13.724  0.3778  0.2795 -1.0345
14553TIP3   OH265073   6.332   5.467  17.233  0.1640  0.0422 -0.5447
14553TIP3    H165074   6.277   5.492  17.307  0.2936 -0.9798 -0.1013
14553TIP3    H265075   6.355   5.550  17.191 -1.4431  0.5135 -0.5472
14554TIP3   OH265076   1.382   0.109   0.774  0.5737 -0.1445  0.1618
14554TIP3    H165077   1.476   0.094   0.770  0.1236 -3.1216 -0.1065
14554TIP3    H265078   1.355   0.119   0.683  0.2555 -2.0144  0.0277
14555TIP3   OH265079   3.313   5.930  17.141  0.1979  0.5596  0.5732
14555TIP3    H165080   3.250   5.968  17.201 -4.2386 -2.9657 -1.5435
14555TIP3    H265081   3.326   5.840  17.172  0.5385 -0.2178 -1.6782
14556TIP3   OH265082   6.632   1.129  15.725 -0.4369 -0.3813 -0.0190
14556TIP3    H165083   6.540   1.134  15.698 -0.5943 -1.3196  0.3180
14556TIP3    H265084   6.644   1.038  15.753  1.0651 -0.7544 -1.7563
14557TIP3   OH265085   6.165   2.654  14.358  0.4297 -0.7494  0.0672
14557TIP3    H165086   6.186   2.727  14.299 -1.7873 -1.0451 -1.1149
14557TIP3    H265087   6.242   2.647  14.415  1.9333  0.5971 -1.7300
14558TIP3   OH265088   1.374   2.823   3.563  0.1288 -0.4303  0.3459
14558TIP3    H165089   1.440   2.755   3.574  0.3306 -0.0585  1.4946
14558TIP3    H265090   1.368   2.865   3.649 -0.4034  0.6331 -0.1993
14559TIP3   OH265091   0.161   6.070   0.674 -0.3458 -0.1004  0.0452
14559TIP3    H165092   0.075   6.112   0.663  0.4387  1.4040 -0.4005
14559TIP3    H265093   0.196   6.065   0.585  0.1174 -0.5299  0.2557
14560TIP3   OH265094   2.398   4.038  15.066 -0.1180 -0.0770 -0.0262
14560TIP3    H165095   2.401   4.085  15.149 -0.5745  0.6031 -0.3885
14560TIP3    H265096   2.486   4.002  15.056  0.1754  0.5136  0.3614
14561TIP3   OH265097   4.687   0.800  15.532  0.0418 -0.0921  0.0486
14561TIP3    H165098   4.602   0.836  15.508 -0.0052 -0.3841 -0.2195
14561TIP3    H265099   4.748   0.841  15.469  0.3376  1.3454  1.2358
14562TIP3   OH265100   5.616   0.962  11.803  0.4201  0.2182 -0.1381
14562TIP3    H165101   5.616   0.976  11.898  0.6552 -0.0521 -0.0995
14562TIP3    H265102   5.544   1.017  11.771 -1.1665 -1.4481  0.4581
14563TIP3   OH265103   0.131   6.501  17.083 -0.3250 -0.5063  0.9408
14563TIP3    H165104   0.174   6.517  16.999 -1.4296 -0.3833  0.4003
14563TIP3    H265105   0.060   6.441  17.064  1.1515 -2.7525  2.2766
14564TIP3   OH265106   1.998   5.682  14.945 -0.4061  0.0678  0.2099
14564TIP3    H165107   1.945   5.747  14.898 -1.1342 -0.4031  0.3752
14564TIP3    H265108   2.063   5.734  14.992 -1.1458  0.6919  0.5494
14565TIP3   OH265109   4.997   2.070   4.104  0.2850  0.1547 -0.2950
14565TIP3    H165110   5.014   2.090   4.196 -1.2983  0.0173  0.0412
14565TIP3    H265111   5.051   1.993   4.086  1.5492  0.9157  0.1634
14566TIP3   OH265112   3.895   1.527   4.449  0.0728  0.0082 -0.1319
14566TIP3    H165113   3.932   1.610   4.479  2.2735 -0.1998 -2.0622
14566TIP3    H265114   3.949   1.460   4.491 -0.8237 -0.4188  0.3516
14567TIP3   OH265115   4.015   6.161  14.090 -0.6540  0.1006 -0.2742
14567TIP3    H165116   4.002   6.134  13.999 -0.7091 -0.4964 -0.0908
14567TIP3    H265117   3.963   6.241  14.099 -0.0951  0.5583 -0.9604
14568TIP3   OH265118   5.521   5.456  13.534  0.4004  0.4626 -0.0854
14568TIP3    H165119   5.558   5.368  13.526 -0.0378  0.3237 -0.6376
14568TIP3    H265120   5.595   5.515  13.526  0.4375  0.2090 -1.7175
14569TIP3   OH265121   2.368   5.669  16.447 -0.6643 -0.3433 -0.4406
14569TIP3    H165122   2.347   5.690  16.538  0.1125 -1.2780 -0.0471
14569TIP3    H265123   2.313   5.593  16.426  0.0599 -0.8851 -0.3704
14570TIP3   OH265124   4.501   1.680   3.596 -0.2240 -0.1251 -0.2465
14570TIP3    H165125   4.432   1.615   3.609  0.7723 -0.9873  0.8610
14570TIP3    H265126   4.522   1.711   3.684  1.3718 -0.4963 -0.4795
14571TIP3   OH265127   0.953   2.466  13.446 -0.1018  0.1485  0.8709
14571TIP3    H165128   0.997   2.444  13.364  0.8585  2.8905  0.5956
14571TIP3    H265129   0.959   2.387  13.499  0.6112 -1.1621 -1.1290
14572TIP3   OH265130   6.378   3.715   1.907  0.3772  0.6024  0.1763
14572TIP3    H165131   6.396   3.722   1.813 -0.3100  2.2850  0.1504
14572TIP3    H265132   6.305   3.774   1.921  1.0138  0.9827  1.9369
14573TIP3   OH265133   3.327   6.303   2.997  0.1060 -0.2998 -0.9273
14573TIP3    H165134   3.233   6.298   3.011 -0.1329  0.8473 -2.0027
14573TIP3    H265135   3.357   6.369   3.060  0.3325 -1.2848  0.0103
14574TIP3   OH265136   6.164   6.698   2.835  0.1213  0.0700  0.0717
14574TIP3    H165137   6.162   6.733   2.746  1.3129  1.2188  0.4780
14574TIP3    H265138   6.242   6.738   2.875  0.3427 -1.4350  1.2178
14575TIP3   OH265139   5.680   2.334   6.630 -0.0652  0.5740  0.7474
14575TIP3    H165140   5.597   2.346   6.584  0.5201  2.0434  0.0050
14575TIP3    H265141   5.696   2.419   6.672  1.7595  0.8016 -0.3482
14576TIP3   OH265142   2.078   2.182   0.019  0.4338 -0.3306  0.3533
14576TIP3    H165143   2.008   2.247   0.027  1.0719  0.2866  1.0421
14576TIP3    H265144   2.063   2.123   0.093  1.4142  0.5743  1.3000
14577TIP3   OH265145   4.532   3.740  12.686  0.5611 -0.2347  0.3823
14577TIP3    H165146   4.568   3.686  12.616  3.1845 -0.0858  1.5737
14577TIP3    H265147   4.472   3.681  12.733  2.9186 -1.9656  1.3003
14578TIP3   OH265148   0.876   6.481  11.601 -0.1916  0.2128  0.3573
14578TIP3    H165149   0.806   6.466  11.537 -0.6494  2.7858  0.2114
14578TIP3    H265150   0.939   6.536  11.554  1.2624 -0.9119  0.9584
14579TIP3   OH265151   0.396   5.026  12.399 -0.0886 -0.3888 -0.0747
14579TIP3    H165152   0.460   4.984  12.343  1.3142  0.5293  0.8090
14579TIP3    H265153   0.398   4.975  12.480 -1.3880 -1.1065 -0.4773
14580TIP3   OH265154   0.707   2.035  15.703  0.4944 -0.2413 -0.0470
14580TIP3    H165155   0.759   1.955  15.696  0.6237 -0.1437 -0.2229
14580TIP3    H265156   0.621   2.010  15.670  0.2200 -0.5928  0.9315
14581TIP3   OH265157   0.433   5.201  16.083  0.2805 -0.0207 -0.0363
14581TIP3    H165158   0.412   5.136  16.151  0.4446  1.4130  1.4102
14581TIP3    H265159   0.430   5.151  16.002  0.1249 -1.7938  1.0168
14582TIP3   OH265160   0.305   0.510   1.107  0.0097 -0.4941 -0.2287
14582TIP3    H165161   0.356   0.480   1.182  0.4359  0.1172 -0.2668
14582TIP3    H265162   0.369   0.553   1.050 -0.2873 -1.0918 -1.0147
14583TIP3   OH265163   1.861   6.529  15.312 -0.3942 -0.7554 -0.4324
14583TIP3    H165164   1.805   6.476  15.256 -0.5564 -0.2223 -0.7861
14583TIP3    H265165   1.949   6.519  15.276 -0.9272  2.0782 -2.7924
14584TIP3   OH265166   2.255   1.200  15.681 -0.0204  0.1126  0.2000
14584TIP3    H165167   2.289   1.231  15.597 -1.4936 -1.2992 -0.9402
14584TIP3    H265168   2.160   1.201  15.670 -0.2107 -0.7176  1.6433
14585TIP3   OH265169   6.691   1.391   5.973  0.2804 -0.6350  0.1095
14585TIP3    H165170   6.605   1.398   6.015  0.1436 -0.6149 -0.1708
14585TIP3    H265171   6.752   1.424   6.038  0.4029 -3.3613  1.4473
14586TIP3   OH265172   4.022   0.969   2.973 -0.1429 -0.3221 -0.1221
14586TIP3    H165173   3.971   0.920   3.038  1.6322 -1.4211  0.4864
14586TIP3    H265174   4.079   1.025   3.025  1.0908 -0.9963 -0.7409
14587TIP3   OH265175   2.111   5.872   4.018  0.4733 -0.0892  0.2054
14587TIP3    H165176   2.123   5.925   4.096 -2.0305  1.3415 -0.3166
14587TIP3    H265177   2.132   5.783   4.046  1.7310  0.7184  1.9096
14588TIP3   OH265178   4.310   3.839   4.860 -0.4102 -0.3560  0.0333
14588TIP3    H165179   4.318   3.786   4.781  0.0407  0.1857 -0.2959
14588TIP3    H265180   4.272   3.781   4.925  1.8229 -1.6621  0.2333
14589TIP3   OH265181   0.200   3.687   1.692 -0.0510 -0.2595 -0.0749
14589TIP3    H165182   0.126   3.697   1.632 -0.3407 -0.4678  0.2454
14589TIP3    H265183   0.256   3.763   1.674 -0.1133 -0.3396 -0.6323
14590TIP3   OH265184   1.015   4.105   0.174  0.1464  0.1556 -0.2511
14590TIP3    H165185   1.033   4.190   0.135  1.8844 -0.1461 -0.1513
14590TIP3    H265186   1.065   4.043   0.121  0.9887 -0.4884  1.2553
14591TIP3   OH265187   2.282   5.305   4.695 -0.2450  0.1062 -0.3638
14591TIP3    H165188   2.197   5.305   4.652  0.5450  0.3037 -1.9509
14591TIP3    H265189   2.329   5.379   4.656  0.7790 -0.2089  0.2440
14592TIP3   OH265190   1.038   4.714   4.505  0.3548  0.1417 -0.1450
14592TIP3    H165191   0.969   4.730   4.570 -0.4505 -0.2287 -0.9016
14592TIP3    H265192   1.001   4.649   4.446  1.3756 -0.0993 -0.5384
14593TIP3   OH265193   0.356   1.716  10.299  0.3396 -0.1425  0.0646
14593TIP3    H165194   0.410   1.794  10.290  1.8603 -1.3957 -2.0965
14593TIP3    H265195   0.266   1.749  10.302  1.0735  1.8200  1.6812
14594TIP3   OH265196   6.537   0.847  14.832  0.1077 -0.3433  0.6726
14594TIP3    H165197   6.558   0.754  14.834  1.9503  0.0652  1.1605
14594TIP3    H265198   6.522   0.869  14.924 -0.7117 -0.2381  0.5163
14595TIP3   OH265199   3.234   1.857   1.059  0.7302 -0.3244  0.1547
14595TIP3    H165200   3.293   1.929   1.081  0.7313 -0.8873  2.0169
14595TIP3    H265201   3.286   1.801   1.002  1.0288  0.6598 -0.5699
14596TIP3   OH265202   3.717   6.372  15.714  0.3982  0.9405  0.5701
14596TIP3    H165203   3.691   6.457  15.751  0.5581  2.1719 -2.0064
14596TIP3    H265204   3.637   6.320  15.714 -0.5436  2.3289 -0.9990
14597TIP3   OH265205   0.985   0.409   3.648 -0.0037 -0.2144 -0.3691
14597TIP3    H165206   1.078   0.392   3.635  0.1075 -0.5265  0.7923
14597TIP3    H265207   0.975   0.503   3.636  0.0218 -0.4969 -3.0323
14598TIP3   OH265208   0.077   5.093   6.546 -0.4182  0.0109 -0.4835
14598TIP3    H165209  -0.010   5.088   6.506  0.0995 -1.1406 -1.4976
14598TIP3    H265210   0.135   5.050   6.483  0.8667  0.6530  0.2464
14599TIP3   OH265211   0.360   1.411  13.394  0.5541  0.2056  0.3065
14599TIP3    H165212   0.359   1.339  13.456 -2.8909 -0.4367 -0.3478
14599TIP3    H265213   0.380   1.370  13.310  0.7411  0.3483  0.2824
14600TIP3   OH265214   6.032   5.245  16.951 -0.0345 -0.2134 -0.2100
14600TIP3    H165215   6.115   5.211  16.985  0.2806  0.4536 -0.3124
14600TIP3    H265216   6.026   5.334  16.986 -0.2128  0.1013 -1.0332
14601TIP3   OH265217   3.458   0.672   3.954 -0.1572 -0.3085 -0.2126
14601TIP3    H165218   3.376   0.704   3.917 -0.1530 -0.4596 -0.3568
14601TIP3    H265219   3.450   0.576   3.949  0.5413 -0.3173 -1.3792
14602TIP3   OH265220   1.102   6.685   3.277  0.4332 -0.0297  0.1691
14602TIP3    H165221   1.079   6.670   3.185 -1.5753 -0.0611  0.6379
14602TIP3    H265222   1.025   6.729   3.314  1.4969  0.6142  1.6722
14603TIP3   OH265223   2.574   3.163  16.657 -0.0866 -0.4029  0.1419
14603TIP3    H165224   2.560   3.252  16.625  0.1727 -0.6765 -0.7677
14603TIP3    H265225   2.665   3.163  16.687  0.0662 -0.4841 -0.3083
14604TIP3   OH265226   0.451   2.012   2.104  0.1458 -0.0148  0.0756
14604TIP3    H165227   0.498   2.084   2.146  1.2768 -0.1380 -0.9437
14604TIP3    H265228   0.467   1.937   2.161 -1.2990  0.5900  1.3107
14605TIP3   OH265229   3.770   3.902   1.302 -0.5673 -0.2140  0.3988
14605TIP3    H165230   3.741   3.989   1.329 -0.6730  0.0381 -0.4939
14605TIP3    H265231   3.815   3.866   1.378 -2.3561 -0.2173  1.4852
14606TIP3   OH265232   4.888   5.611  16.010 -0.6349 -0.0812 -0.2561
14606TIP3    H165233   4.936   5.540  16.053 -0.2020 -0.8567 -1.9642
14606TIP3    H265234   4.955   5.663  15.967 -1.1842 -0.2864 -1.3776
14607TIP3   OH265235   4.153   2.003  14.485 -0.5235  0.0452 -0.3723
14607TIP3    H165236   4.221   2.071  14.489 -0.0174 -0.4889  0.1659
14607TIP3    H265237   4.096   2.030  14.413 -0.6133  1.3177  0.1533
14608TIP3   OH265238   3.443   6.405  13.865 -0.3744  0.3555 -0.4312
14608TIP3    H165239   3.454   6.339  13.797 -0.7982  0.5360 -0.6763
14608TIP3    H265240   3.518   6.392  13.924 -1.8683 -2.0580  0.9884
14609TIP3   OH265241   5.502   3.666  13.805  0.2056 -1.0259  0.1920
14609TIP3    H165242   5.439   3.736  13.821  0.0423 -0.9739 -0.6575
14609TIP3    H265243   5.474   3.594  13.862  1.4747  0.2295  2.5047
14610TIP3   OH265244   5.974   1.509   4.215 -0.0680  0.1220 -0.0268
14610TIP3    H165245   5.972   1.605   4.219  0.3931  0.1585 -0.7006
14610TIP3    H265246   5.899   1.486   4.160  0.9944  0.1886 -1.5145
14611TIP3   OH265247   5.985   1.768   1.983 -0.2758  0.0260  0.2400
14611TIP3    H165248   6.040   1.750   2.059  0.3347  0.1654 -0.1610
14611TIP3    H265249   6.047   1.795   1.915 -0.8896  0.7040 -0.0559
14612TIP3   OH265250   2.553   1.467  15.690  0.6093 -0.0367  0.3348
14612TIP3    H165251   2.534   1.374  15.699  0.3458 -0.0380 -0.2344
14612TIP3    H265252   2.578   1.478  15.599 -0.9173  0.7345  0.0028
14613TIP3   OH265253   3.631   3.855  15.301 -0.0261  0.4699 -0.8076
14613TIP3    H165254   3.675   3.799  15.365 -1.5140 -0.9879 -1.0059
14613TIP3    H265255   3.567   3.904  15.353  1.0726  1.7742 -0.6807
14614TIP3   OH265256   6.370   3.112  16.666  0.6670 -0.5255  0.1930
14614TIP3    H165257   6.376   3.019  16.686 -2.2123 -0.8024 -0.0374
14614TIP3    H265258   6.346   3.116  16.574  0.4338  0.4407  0.2899
14615TIP3   OH265259   6.675   3.746  13.955  0.2491  0.0062 -0.6441
14615TIP3    H165260   6.691   3.802  13.879 -0.8595  0.5942 -0.4514
14615TIP3    H265261   6.701   3.659  13.927  1.2425  0.4797 -1.2129
14616TIP3   OH265262   3.272   5.221  15.510  0.2304 -0.4428  0.1111
14616TIP3    H165263   3.252   5.274  15.588 -1.0376 -1.0575  0.2292
14616TIP3    H265264   3.188   5.180  15.487  0.6427 -0.4492 -1.4482
14617TIP3   OH265265   6.693   0.944  13.389 -0.1665 -0.5390  0.0417
14617TIP3    H165266   6.632   0.870  13.384 -0.3883 -0.4870  1.8074
14617TIP3    H265267   6.759   0.917  13.453 -0.6176  1.0463  1.2112
14618TIP3   OH265268   4.725   5.367   5.486  0.0444 -0.4372 -0.4419
14618TIP3    H165269   4.749   5.343   5.397  1.0926 -2.1025  0.2640
14618TIP3    H265270   4.706   5.283   5.529  2.0476  0.1079  1.5964
14619TIP3   OH265271   5.807   1.913   3.804 -0.2574  0.3346 -0.3043
14619TIP3    H165272   5.799   1.969   3.727 -0.6003 -0.9628 -1.2281
14619TIP3    H265273   5.861   1.839   3.775  1.4606  0.9223  1.3223
14620TIP3   OH265274   0.047   6.267  10.806  0.0805  0.6433 -0.1556
14620TIP3    H165275   0.107   6.342  10.808 -0.9817  1.5233 -0.7680
14620TIP3    H265276   0.075   6.213  10.880  0.3965  2.0163  0.7527
14621TIP3   OH265277   5.196   3.042  11.148 -0.5261 -0.2363 -0.2520
14621TIP3    H165278   5.170   3.088  11.068  0.0046  0.2315 -0.1568
14621TIP3    H265279   5.198   2.949  11.124 -1.3990 -0.1955 -0.5000
14622TIP3   OH265280   4.802   3.615  10.886  0.6892  0.0821  0.0280
14622TIP3    H165281   4.891   3.631  10.857  0.0847  0.5967 -1.5789
14622TIP3    H265282   4.792   3.520  10.884  0.5307  0.1233 -1.8789
14623TIP3   OH265283   6.184   1.569   3.548  0.3919  0.1563 -0.1949
14623TIP3    H165284   6.269   1.546   3.510  1.2118 -0.1974  1.7874
14623TIP3    H265285   6.124   1.503   3.513  1.1306 -0.2090 -0.8019
14624TIP3   OH265286   0.517   2.023   3.051 -0.3811  0.8965 -0.0452
14624TIP3    H165287   0.517   2.079   3.129 -0.1979  1.2933 -0.3327
14624TIP3    H265288   0.597   1.970   3.060 -0.3953  0.8944  0.0694
14625TIP3   OH265289   1.088   0.664  12.843 -0.0676  0.1389  0.2594
14625TIP3    H165290   1.105   0.743  12.791  2.0325 -0.3532  0.1545
14625TIP3    H265291   1.067   0.697  12.930 -0.4124  0.8596 -0.0908
14626TIP3   OH265292   5.412   2.658   5.328  0.2131  0.2533  0.2358
14626TIP3    H165293   5.402   2.738   5.276  2.2106 -1.2457 -2.6136
14626TIP3    H265294   5.358   2.593   5.282 -0.1157 -0.4520  1.5992
14627TIP3   OH265295   2.016   4.650  16.258  0.0189  0.1710  0.2760
14627TIP3    H165296   2.028   4.646  16.163 -0.1896  1.4705  0.1875
14627TIP3    H265297   2.020   4.559  16.286 -0.4598 -0.2734 -1.0499
14628TIP3   OH265298   0.790   2.921  12.385  0.3544  0.7228 -0.2586
14628TIP3    H165299   0.883   2.902  12.398  0.2950  1.7816  2.0507
14628TIP3    H265300   0.759   2.852  12.327  1.8793 -1.5704  1.5373
14629TIP3   OH265301   6.455   3.996   0.721 -0.1379  0.4370  0.2943
14629TIP3    H165302   6.465   4.030   0.810  0.7729  1.6341 -0.2445
14629TIP3    H265303   6.452   4.075   0.667  1.0052 -0.3245 -0.8957
14630TIP3   OH265304   4.392   0.149   1.939 -0.6970  0.5707  0.5787
14630TIP3    H165305   4.362   0.060   1.919  1.0092 -0.0839  0.8061
14630TIP3    H265306   4.486   0.140   1.951 -0.6244  2.2687  1.4672
14631TIP3   OH265307   3.374   3.870   3.037 -1.5198  0.3053 -0.0406
14631TIP3    H165308   3.464   3.900   3.022 -1.3421  0.1914  0.7595
14631TIP3    H265309   3.379   3.774   3.030 -1.5534  0.2905  0.1493
14632TIP3   OH265310   3.456   4.336   1.713 -0.1312 -0.5644 -0.5450
14632TIP3    H165311   3.532   4.332   1.655  1.8169  0.8497  1.8324
14632TIP3    H265312   3.402   4.406   1.676  0.6734 -0.2501 -1.1361
14633TIP3   OH265313   0.375   6.524  14.530  0.2171  0.1217 -0.2396
14633TIP3    H165314   0.448   6.530  14.592  0.4366 -0.0306 -0.4867
14633TIP3    H265315   0.297   6.521  14.586  0.3224  1.4200  0.0104
14634TIP3   OH265316   0.202   3.434   4.207 -0.2598 -0.0724  0.0771
14634TIP3    H165317   0.109   3.450   4.220 -0.2817 -0.4146  0.3389
14634TIP3    H265318   0.230   3.385   4.285 -0.2956 -1.7454 -0.9513
14635TIP3   OH265319   5.680   1.414   1.859  0.5006  0.0457 -0.0836
14635TIP3    H165320   5.621   1.353   1.814  0.1493  0.8096 -0.6706
14635TIP3    H265321   5.631   1.496   1.865  1.1912  0.4497  0.1719
14636TIP3   OH265322   4.023   1.343   3.446  0.5278 -0.4302 -0.2341
14636TIP3    H165323   3.994   1.368   3.534 -2.9985 -0.1233 -1.4027
14636TIP3    H265324   3.998   1.418   3.391  1.6228 -1.1238 -1.7061
14637TIP3   OH265325   4.246   5.349   1.156 -0.2168  0.5043  0.0840
14637TIP3    H165326   4.255   5.357   1.061 -0.9761  1.0131  0.0535
14637TIP3    H265327   4.308   5.280   1.180 -1.5016 -1.0639 -1.0312
14638TIP3   OH265328   6.291   5.664  16.075  0.3716 -0.2025 -0.7013
14638TIP3    H165329   6.244   5.747  16.083  0.8306  0.2178 -2.2348
14638TIP3    H265330   6.271   5.618  16.157 -1.3714  0.6390 -0.6227
14639TIP3   OH265331   5.976   2.528   0.462  0.3737 -0.1230  0.1150
14639TIP3    H165332   6.004   2.620   0.459 -1.8522  0.5441 -0.4314
14639TIP3    H265333   6.058   2.479   0.461  1.6245  1.8637  1.0217
14640TIP3   OH265334   4.386   4.360  16.505  0.3340  0.0580  0.3009
14640TIP3    H165335   4.419   4.443  16.538  0.5885  0.0358  0.1023
14640TIP3    H265336   4.323   4.384  16.437 -1.7900  0.1520  2.2718
14641TIP3   OH265337   2.006   5.743   2.260 -0.1962  0.1037  0.5404
14641TIP3    H165338   2.016   5.831   2.296  2.0536 -0.4681  1.4113
14641TIP3    H265339   1.912   5.724   2.266 -0.6737  2.3929  0.4358
14642TIP3   OH265340   5.669   3.627   5.914  0.9802  0.4542 -0.1486
14642TIP3    H165341   5.581   3.663   5.924  1.2266  1.7167 -2.3530
14642TIP3    H265342   5.671   3.553   5.976 -1.1387  1.2401  0.9215
14643TIP3   OH265343   0.096   5.079  16.127 -0.4146  0.1250  0.0538
14643TIP3    H165344   0.029   5.060  16.061  0.8796 -0.5204 -1.1077
14643TIP3    H265345   0.051   5.130  16.193 -2.0062 -0.1213 -0.8172
14644TIP3   OH265346   2.575   1.719  13.735  0.4532  0.3050  0.2893
14644TIP3    H165347   2.533   1.694  13.653  0.7458 -2.3492  0.9136
14644TIP3    H265348   2.542   1.807  13.753 -2.9249 -0.7261 -0.4792
14645TIP3   OH265349   1.510   4.004   5.299  0.1212  0.3482  0.2853
14645TIP3    H165350   1.541   4.094   5.290 -1.1832  0.7659 -0.0586
14645TIP3    H265351   1.565   3.954   5.238  0.6191  0.9545  0.2317
14646TIP3   OH265352   3.807   5.609  16.346 -0.2553  0.2346  0.3130
14646TIP3    H165353   3.740   5.671  16.316 -0.0068  0.1064 -0.5275
14646TIP3    H265354   3.879   5.621  16.285 -0.6947 -1.7819 -0.6468
14647TIP3   OH265355   2.230   2.001  13.478 -0.4075  0.2762 -0.3265
14647TIP3    H165356   2.146   2.019  13.520 -0.7824  1.3203 -1.5084
14647TIP3    H265357   2.260   1.919  13.518 -1.7542  0.1570  0.4482
14648TIP3   OH265358   1.979   6.741  15.008  0.1844 -0.4588  0.2019
14648TIP3    H165359   1.966   6.833  14.988  1.3076 -0.8113 -2.3027
14648TIP3    H265360   1.892   6.702  14.999 -0.0334  0.1114 -0.1653
14649TIP3   OH265361   6.120   1.341   1.478  0.4207 -0.2436 -0.1170
14649TIP3    H165362   6.053   1.390   1.430 -1.1529 -0.4850  1.7992
14649TIP3    H265363   6.169   1.295   1.410  1.0300  2.8490 -1.8608
14650TIP3   OH265364   4.685   3.062  16.241  0.7328 -0.1603  0.1216
14650TIP3    H165365   4.633   3.130  16.199 -1.6223 -0.8926  1.7767
14650TIP3    H265366   4.676   2.986  16.182  1.0360  0.1104 -0.2783
14651TIP3   OH265367   1.040   2.974  15.466  0.0053 -0.3505 -0.2118
14651TIP3    H165368   1.108   2.917  15.503  1.2208  0.5979 -0.9143
14651TIP3    H265369   1.079   3.008  15.386 -1.5946 -0.3413 -0.9989
14652TIP3   OH265370   2.668   2.093  11.549 -0.4444  0.2636  0.3223
14652TIP3    H165371   2.684   1.999  11.551  3.2895  0.7134 -2.5199
14652TIP3    H265372   2.732   2.130  11.610 -1.8446  1.0047  1.3740
14653TIP3   OH265373   1.130   3.014  13.407  0.2546 -0.5997 -0.7530
14653TIP3    H165374   1.040   3.045  13.415  0.4975 -0.1082  0.1967
14653TIP3    H265375   1.137   2.983  13.317 -0.5050  0.4772 -1.1936
14654TIP3   OH265376   1.489   0.987   4.460  0.2788 -0.4712  0.0583
14654TIP3    H165377   1.427   1.051   4.493 -0.3382 -1.3530  0.6332
14654TIP3    H265378   1.434   0.919   4.419  0.8902 -0.9095 -0.0442
14655TIP3   OH265379   2.519   4.748   2.826 -0.0041 -0.2089 -0.1200
14655TIP3    H165380   2.464   4.673   2.801  0.3697 -0.2440 -0.8399
14655TIP3    H265381   2.599   4.737   2.776 -0.6726  1.6982 -1.7014
14656TIP3   OH265382   2.023   1.476  12.113 -0.2367  0.0665 -0.4277
14656TIP3    H165383   1.941   1.468  12.163  0.5878 -0.1344  0.9425
14656TIP3    H265384   2.061   1.558  12.144  0.7222 -0.5131 -0.0615
14657TIP3   OH265385   4.752   6.687  14.112 -0.2791  0.2212 -0.0861
14657TIP3    H165386   4.666   6.646  14.122 -0.3749  0.6894  1.0432
14657TIP3    H265387   4.736   6.765  14.060 -0.0787 -1.2047 -2.3762
14658TIP3   OH265388   1.839   2.143   1.332 -0.0932 -0.0588  1.1625
14658TIP3    H165389   1.862   2.060   1.375  1.0315 -0.2138  0.2847
14658TIP3    H265390   1.899   2.207   1.372 -1.3820  0.4679  2.2930
14659TIP3   OH265391   1.256   2.427   5.430  0.3803 -0.2581 -0.4181
14659TIP3    H165392   1.345   2.411   5.461 -0.3984 -0.1560  2.0132
14659TIP3    H265393   1.234   2.514   5.463 -0.7446 -0.4331 -0.6749
14660TIP3   OH265394   3.507   1.868   2.140  0.1203  0.3618 -0.5459
14660TIP3    H165395   3.535   1.776   2.135  1.7141  0.7963  0.0762
14660TIP3    H265396   3.587   1.916   2.158 -0.7580  1.8596 -0.5829
14661TIP3   OH265397   6.446   0.169   2.341 -0.0416 -0.5935 -0.2438
14661TIP3    H165398   6.493   0.212   2.412 -0.4297 -0.5182 -0.0302
14661TIP3    H265399   6.504   0.099   2.312 -0.3728 -1.3704  0.9176
14662TIP3   OH265400   2.762   3.020  11.723 -0.7490 -0.5905 -0.4506
14662TIP3    H165401   2.823   2.970  11.777  0.1431  0.8972 -0.0393
14662TIP3    H265402   2.783   2.996  11.633 -1.3009 -2.0251 -0.2185
14663TIP3   OH265403   1.600   3.433  14.662  0.1050 -0.8223 -0.5267
14663TIP3    H165404   1.682   3.385  14.656  0.6857  0.3008 -1.8900
14663TIP3    H265405   1.626   3.525  14.664 -1.0591 -0.5067  0.5126
14664TIP3   OH265406   3.685   3.361   2.124 -0.3061 -0.3334  0.5168
14664TIP3    H165407   3.728   3.411   2.055 -0.0435 -0.7361  0.3903
14664TIP3    H265408   3.651   3.283   2.080 -0.4602 -0.4129  0.7717
14665TIP3   OH265409   1.941   4.886   4.945  0.2556  0.0447 -0.3843
14665TIP3    H165410   1.917   4.815   5.003  0.1106  0.8652  0.5749
14665TIP3    H265411   1.909   4.860   4.859  0.7842 -1.3369 -0.1699
14666TIP3   OH265412   2.112   6.545  16.551  0.7341 -0.7820  0.0569
14666TIP3    H165413   2.132   6.552  16.644  2.3715 -1.3486 -0.2414
14666TIP3    H265414   2.171   6.606  16.508  0.0139 -0.5524 -0.6202
14667TIP3   OH265415   5.384   6.158  14.564  0.4599 -0.2499  0.1288
14667TIP3    H165416   5.364   6.064  14.568  1.5165 -0.5465 -1.2193
14667TIP3    H265417   5.455   6.170  14.627 -0.9129  0.0087  1.6796
14668TIP3   OH265418   5.243   2.674  16.098 -1.0009  0.2401 -0.4472
14668TIP3    H165419   5.295   2.634  16.169 -0.7340 -0.1982 -0.8873
14668TIP3    H265420   5.269   2.766  16.099 -1.7695  0.4611  0.7099
14669TIP3   OH265421   5.699   1.651  13.369 -0.1351  0.1680 -0.0516
14669TIP3    H165422   5.709   1.737  13.411 -0.6605  0.9005 -1.3601
14669TIP3    H265423   5.612   1.622  13.395 -0.3476  0.4894 -0.3923
14670TIP3   OH265424   0.124   3.256  16.974  0.8173  0.1246 -0.1807
14670TIP3    H165425   0.089   3.208  17.049  2.3169  1.1021  1.1716
14670TIP3    H265426   0.109   3.348  16.995  3.4263  0.5253  0.0693
14671TIP3   OH265427   2.241   1.457  11.860  0.6178 -0.3643  0.7183
14671TIP3    H165428   2.188   1.497  11.929  1.6858 -0.5943  1.6907
14671TIP3    H265429   2.326   1.500  11.866  0.8266 -0.6217 -0.2386
14672TIP3   OH265430   4.240   6.646   4.272  0.3070 -0.3328  0.3149
14672TIP3    H165431   4.218   6.648   4.179  0.4771 -2.4744  0.1864
14672TIP3    H265432   4.161   6.612   4.314 -0.0748  1.4565  1.0722
14673TIP3   OH265433   0.280   0.564   3.633 -0.8278  0.4068 -0.0824
14673TIP3    H165434   0.196   0.594   3.668 -0.3576  1.6380 -0.0147
14673TIP3    H265435   0.256   0.509   3.558 -1.7995 -1.3696  1.4636
14674TIP3   OH265436   0.779   4.631   1.053 -0.6059 -0.1621 -0.6738
14674TIP3    H165437   0.807   4.722   1.039 -0.1937 -0.2755 -0.5928
14674TIP3    H265438   0.861   4.583   1.066 -0.7954 -0.6255 -1.1920
14675TIP3   OH265439   2.349   0.219  14.628  0.4984 -0.6755 -0.0780
14675TIP3    H165440   2.288   0.206  14.701 -0.4673 -1.4999 -1.0187
14675TIP3    H265441   2.421   0.269  14.666  0.6219 -2.1905  1.7692
14676TIP3   OH265442   5.616   1.924  11.530  0.2228  0.1002  0.2618
14676TIP3    H165443   5.686   1.872  11.571  0.6804 -0.4493 -1.2008
14676TIP3    H265444   5.616   1.897  11.439  1.3960  3.7122 -0.8798
14677TIP3   OH265445   2.611   6.251   4.315  0.1183  0.5407 -0.1106
14677TIP3    H165446   2.641   6.340   4.295 -0.5964  0.8144  0.0083
14677TIP3    H265447   2.536   6.238   4.257  0.2302  0.0143 -0.1314
14678TIP3   OH265448   3.423   6.370  14.642  0.4050 -0.0500  0.0520
14678TIP3    H165449   3.432   6.344  14.734 -0.0262  0.0832  0.1340
14678TIP3    H265450   3.367   6.303  14.603 -1.0100  0.9399  0.3498
14679TIP3   OH265451   1.800   4.918  15.932  0.2320 -0.3781 -0.1162
14679TIP3    H165452   1.727   4.923  15.994 -0.6442 -1.4026 -1.0450
14679TIP3    H265453   1.760   4.935  15.846  1.8721  3.6473 -0.1722
14680TIP3   OH265454   6.254   0.132  15.311 -0.3254 -0.0907  0.3354
14680TIP3    H165455   6.344   0.123  15.281  0.0156  0.3944  1.1962
14680TIP3    H265456   6.244   0.063  15.376 -0.7657 -0.5317 -0.1975
14681TIP3   OH265457   2.336   4.681  14.890  0.0349 -0.3337  0.1617
14681TIP3    H165458   2.243   4.680  14.866 -0.3292 -0.7357  1.5524
14681TIP3    H265459   2.363   4.772  14.875 -0.8710  0.0498  0.8357
14682TIP3   OH265460   4.103   5.577  13.817  0.2004  0.2765 -0.2319
14682TIP3    H165461   4.140   5.566  13.729  1.9651  0.8013  0.4234
14682TIP3    H265462   4.010   5.593  13.802 -0.1536 -2.8334 -1.8595
14683TIP3   OH265463   1.676   5.246  15.121  0.3486  0.0621  1.0384
14683TIP3    H165464   1.590   5.205  15.116  0.0332  0.8214 -0.0220
14683TIP3    H265465   1.657   5.339  15.132  1.0162  0.3903 -0.4446
14684TIP3   OH265466   2.000   5.034  14.767  0.3296  0.1114  0.3743
14684TIP3    H165467   1.918   5.072  14.798 -0.1035  1.2957 -2.0963
14684TIP3    H265468   2.068   5.088  14.808 -0.2050  1.1705 -0.1130
14685TIP3   OH265469   0.400   1.526  12.053 -0.0756 -0.6820  0.3001
14685TIP3    H165470   0.308   1.502  12.041 -0.3408  0.2610  0.4565
14685TIP3    H265471   0.419   1.506  12.144 -0.4179  0.1050  0.5459
14686TIP3   OH265472   0.301   4.169  17.086 -0.0669 -0.5473  0.5968
14686TIP3    H165473   0.213   4.187  17.119 -0.1047  1.8925 -0.7079
14686TIP3    H265474   0.292   4.174  16.991  1.4939 -0.2027  0.4579
14687TIP3   OH265475   4.153   4.290  10.438 -0.3022  0.6346  0.0970
14687TIP3    H165476   4.059   4.286  10.450 -0.3648 -3.1015 -0.9026
14687TIP3    H265477   4.180   4.198  10.426  3.7406  1.3575  2.5139
14688TIP3   OH265478   5.377   0.975  16.077  0.1173 -0.7407 -0.4357
14688TIP3    H165479   5.397   1.020  15.995  0.6663 -2.2546 -1.1524
14688TIP3    H265480   5.450   0.914  16.089  0.3495 -0.1293  1.4880
14689TIP3   OH265481   0.388   4.167  14.425  0.4048 -0.2212  0.1024
14689TIP3    H165482   0.378   4.239  14.363  2.1485  0.2452  0.3326
14689TIP3    H265483   0.309   4.170  14.478  0.5855  1.7236  0.2993
14690TIP3   OH265484   3.332   4.921   4.303  0.0046 -0.1952  0.7870
14690TIP3    H165485   3.366   4.832   4.301 -0.1365 -0.2344 -0.1302
14690TIP3    H265486   3.237   4.911   4.311 -0.0647 -0.1414  0.0682
14691TIP3   OH265487   1.511   4.911   0.994 -0.0884  0.0421  0.0994
14691TIP3    H165488   1.594   4.941   0.958 -0.9968  2.3654 -0.1890
14691TIP3    H265489   1.534   4.869   1.077  1.4793 -0.4447 -0.5707
14692TIP3   OH265490   5.235   2.875  16.444  0.0727 -0.1163 -0.2216
14692TIP3    H165491   5.277   2.940  16.501 -0.3159  0.9582 -1.1386
14692TIP3    H265492   5.307   2.819  16.416  0.3945 -0.1891  0.7031
14693TIP3   OH265493   4.823   3.979  16.726  0.0238  0.0398  0.6469
14693TIP3    H165494   4.818   4.068  16.689  0.0038 -0.4452 -0.5320
14693TIP3    H265495   4.906   3.977  16.773  0.0960  0.6313  0.5500
14694TIP3   OH265496   6.091   5.421  14.685  0.4207 -0.6213 -0.0970
14694TIP3    H165497   6.005   5.442  14.647 -0.6269 -0.2247  2.4010
14694TIP3    H265498   6.149   5.489  14.653  0.4233 -2.2132 -3.7721
14695TIP3   OH265499   3.498   4.500   3.393 -0.0610 -0.2790  0.0270
14695TIP3    H165500   3.438   4.562   3.433  1.4592  0.7977  0.6831
14695TIP3    H265501   3.529   4.544   3.314  0.9403 -0.2113  0.4404
14696TIP3   OH265502   6.554   6.732   0.784 -0.3540 -0.0850 -0.4389
14696TIP3    H165503   6.643   6.767   0.788 -0.5037  0.2705 -0.0838
14696TIP3    H265504   6.564   6.638   0.797 -0.1037  0.0601  0.4384
14697TIP3   OH265505   3.678   2.826   2.979  0.2077  0.1244 -0.0929
14697TIP3    H165506   3.757   2.772   2.981  0.2791  0.2865  1.8467
14697TIP3    H265507   3.704   2.905   2.931  1.0259 -0.1196 -0.0587
14698TIP3   OH265508   6.154   6.444  14.705  0.9742  0.0533  0.4168
14698TIP3    H165509   6.136   6.497  14.783  1.1357 -0.4109  0.7724
14698TIP3    H265510   6.068   6.428  14.667  0.9546  0.8852  0.0983
14699TIP3   OH265511   0.913   4.113   5.852  0.6883 -0.1412  0.1877
14699TIP3    H165512   0.979   4.094   5.919 -0.3211  0.2647  1.3205
14699TIP3    H265513   0.830   4.082   5.890 -0.0283  0.8556 -0.5167
14700TIP3   OH265514   5.948   6.176  13.054  0.4090 -0.3567 -0.2848
14700TIP3    H165515   6.006   6.193  13.128 -0.7549 -1.1802  0.8306
14700TIP3    H265516   5.864   6.153  13.093 -0.6465  0.6628 -1.8687
14701TIP3   OH265517   2.777   3.006  14.697  0.3458 -0.4507 -0.0013
14701TIP3    H165518   2.775   3.084  14.641 -0.2882 -0.6932 -0.3248
14701TIP3    H265519   2.789   2.933  14.635  0.2877 -0.6634  0.2379
14702TIP3   OH265520   1.689   4.444  17.164 -0.3307 -0.3309  0.5892
14702TIP3    H165521   1.662   4.434  17.256 -0.5633  0.9750  0.6698
14702TIP3    H265522   1.609   4.470  17.118  0.5021  2.4906  0.6448
14703TIP3   OH265523   1.665   4.726  16.930 -0.2472 -0.0581 -0.3961
14703TIP3    H165524   1.696   4.810  16.965 -1.0840  2.0328 -4.3880
14703TIP3    H265525   1.575   4.720  16.961 -0.2206  0.5731 -0.1745
14704TIP3   OH265526   5.198   4.136  11.730  0.4946 -0.1155  0.3902
14704TIP3    H165527   5.146   4.134  11.650 -0.4114  1.2069  0.9331
14704TIP3    H265528   5.287   4.115  11.702  0.0654 -0.2534 -0.8635
14705TIP3   OH265529   0.883   2.474  13.733 -0.0933  0.0934  0.1833
14705TIP3    H165530   0.808   2.459  13.675  0.3929 -0.6084 -0.2722
14705TIP3    H265531   0.921   2.387  13.746  0.0414  0.3077  1.2357
14706TIP3   OH265532   5.688   1.480   1.146 -0.5409 -0.1138 -0.2278
14706TIP3    H165533   5.648   1.483   1.059  0.4879 -0.2309 -0.7131
14706TIP3    H265534   5.761   1.418   1.137 -0.0923  0.2865  0.5686
14707TIP3   OH265535   6.241   0.548  13.843  0.9032  0.1720  0.2503
14707TIP3    H165536   6.223   0.591  13.927 -0.9962  0.0658 -0.0726
14707TIP3    H265537   6.167   0.488  13.831  1.2394  0.0754 -1.4130
14708TIP3   OH265538   2.361   5.061   3.641 -0.1347  0.3524 -0.4084
14708TIP3    H165539   2.327   4.987   3.691 -2.1260  0.0785 -2.1185
14708TIP3    H265540   2.454   5.063   3.662 -0.6646 -0.5764  2.2425
14709TIP3   OH265541   1.238   0.152  12.932  0.2639 -0.2602  0.4111
14709TIP3    H165542   1.235   0.082  12.867 -1.0097  0.0923  0.0765
14709TIP3    H265543   1.248   0.107  13.016 -2.3707 -0.9519  0.3839
14710TIP3   OH265544   0.312   2.466  12.189 -0.1538 -0.6386 -0.1393
14710TIP3    H165545   0.356   2.382  12.177  2.0561  0.4736 -0.1996
14710TIP3    H265546   0.348   2.522  12.120  0.5437  1.1459  1.5929
14711TIP3   OH265547   0.468   1.950  15.582  0.1361  0.1511  0.1518
14711TIP3    H165548   0.532   1.884  15.554  0.4943 -0.1303  1.5842
14711TIP3    H265549   0.406   1.902  15.635 -0.3546  0.7364  0.1072
14712TIP3   OH265550   4.248   1.791  11.645  0.1240 -0.4572 -0.7807
14712TIP3    H165551   4.227   1.727  11.713 -0.0718 -1.1702 -1.5076
14712TIP3    H265552   4.210   1.754  11.565  0.5651  0.2573 -1.3185
14713TIP3   OH265553   2.571   4.267   2.100 -0.2434 -0.3701  0.2385
14713TIP3    H165554   2.486   4.310   2.111 -0.0211  0.1734 -0.1957
14713TIP3    H265555   2.597   4.242   2.189 -0.8312 -0.4896  0.3788
14714TIP3   OH265556   5.620   4.175  14.783  0.1955 -0.2562 -0.1749
14714TIP3    H165557   5.601   4.082  14.796  0.2036 -0.3003 -0.4799
14714TIP3    H265558   5.715   4.179  14.780  0.1517 -0.4742 -1.9092
14715TIP3   OH265559   2.743   1.559   2.397 -0.5816 -0.8465 -0.0371
14715TIP3    H165560   2.833   1.579   2.372 -0.8186 -1.4319 -1.4200
14715TIP3    H265561   2.746   1.546   2.491  0.5322  0.4790  0.1112
14716TIP3   OH265562   4.584   6.452  15.550  0.2518 -0.2576 -0.7765
14716TIP3    H165563   4.538   6.535  15.562  0.4430 -0.2036 -0.4019
14716TIP3    H265564   4.656   6.455  15.613 -1.4924 -1.9582  1.3833
14717TIP3   OH265565   2.777   6.719  15.069 -0.3659  0.1078  0.1956
14717TIP3    H165566   2.713   6.755  15.131 -1.3358 -0.4701 -0.4621
14717TIP3    H265567   2.846   6.786  15.065 -1.1511  0.9550  0.5591
14718TIP3   OH265568   6.165   3.698  16.356 -0.0146 -0.2383 -0.5824
14718TIP3    H165569   6.258   3.723  16.355  0.5387 -2.2552 -1.3174
14718TIP3    H265570   6.121   3.773  16.396  1.8951  0.8610 -0.4636
14719TIP3   OH265571   2.127   3.196  13.633  0.0807 -0.3215 -0.5409
14719TIP3    H165572   2.147   3.173  13.542  3.0565 -0.8233  0.1775
14719TIP3    H265573   2.191   3.146  13.684 -0.5886  1.1042  1.7345
14720TIP3   OH265574   5.779   5.114  12.731 -0.7145  0.2568  0.6307
14720TIP3    H165575   5.844   5.158  12.786 -2.3141  0.3033  2.5508
14720TIP3    H265576   5.731   5.058  12.792 -2.1202 -0.1998 -0.8641
14721TIP3   OH265577   3.210   0.768   3.893 -0.4705  0.4961  0.9711
14721TIP3    H165578   3.133   0.806   3.937 -0.6056 -0.8913  1.9533
14721TIP3    H265579   3.177   0.740   3.808 -1.1941 -0.6331  1.6174
14722TIP3   OH265580   0.287   5.329  16.705  0.0014 -0.1430 -0.4786
14722TIP3    H165581   0.207   5.325  16.759 -0.8654  0.6680 -1.6658
14722TIP3    H265582   0.358   5.318  16.768 -0.9518  1.5964  0.9719
14723TIP3   OH265583   0.281   0.746  11.656  0.0653  0.3252  0.3635
14723TIP3    H165584   0.339   0.759  11.730 -0.9463 -0.1920  1.2533
14723TIP3    H265585   0.299   0.656  11.627  0.6146  0.5975 -0.1763
14724TIP3   OH265586   3.625   5.473   4.900 -0.2145  0.3567 -0.0862
14724TIP3    H165587   3.584   5.455   4.816  0.3383  2.8353 -0.9220
14724TIP3    H265588   3.578   5.416   4.962 -1.9957  0.0001 -1.7140
14725TIP3   OH265589   5.895   2.145   0.496  0.6671 -0.1708 -0.3994
14725TIP3    H165590   5.972   2.136   0.441  0.2852 -0.0443 -0.9558
14725TIP3    H265591   5.918   2.100   0.578  0.5632 -1.9269 -1.3144
14726TIP3   OH265592   3.699   2.302  15.604  0.3714 -0.5088 -0.1025
14726TIP3    H165593   3.630   2.263  15.550  1.1494 -0.3186 -1.2469
14726TIP3    H265594   3.652   2.363  15.661 -0.4413 -0.5469 -0.7127
14727TIP3   OH265595   3.202   1.071   0.097 -0.1570  0.1503  0.3151
14727TIP3    H165596   3.276   1.015   0.077 -1.5412 -1.7527  0.3906
14727TIP3    H265597   3.213   1.147   0.040  2.0158  0.0640  0.5748
14728TIP3   OH265598   6.538   3.651   1.317 -0.4602  0.6623 -0.2526
14728TIP3    H165599   6.599   3.601   1.264  0.4376  2.3585 -0.8505
14728TIP3    H265600   6.553   3.622   1.407 -1.1874 -1.3924 -0.7743
14729TIP3   OH265601   6.000   2.231  12.073 -0.6601 -0.5649  0.0202
14729TIP3    H165602   5.953   2.204  11.994 -0.2281 -0.1613 -0.3837
14729TIP3    H265603   6.042   2.314  12.048 -1.5413  0.2030  1.0647
14730TIP3   OH265604   0.710   3.392  13.173 -0.0757  0.1076 -0.5108
14730TIP3    H165605   0.763   3.470  13.193 -0.6207  0.4905 -0.5561
14730TIP3    H265606   0.674   3.410  13.086  0.1002 -0.3645 -0.6813
14731TIP3   OH265607   0.785   2.110   3.535 -0.0259  0.9800  0.1552
14731TIP3    H165608   0.753   2.030   3.494  0.0402  1.2650 -0.4614
14731TIP3    H265609   0.879   2.095   3.547  0.1474  1.3106 -0.7738
14732TIP3   OH265610   1.103   0.703  10.411  0.1858  0.2317 -0.4052
14732TIP3    H165611   1.189   0.675  10.442  0.5427  1.9914  0.2707
14732TIP3    H265612   1.045   0.684  10.485  0.3857  1.0332 -0.0357
14733TIP3   OH265613   2.677   4.511   0.460 -0.1827  0.3364  0.5158
14733TIP3    H165614   2.732   4.515   0.539  1.2452 -1.1957 -0.3583
14733TIP3    H265615   2.740   4.510   0.388 -1.4750  1.3085 -0.6364
14734TIP3   OH265616   2.489   4.062   5.481  0.1339  0.1013  0.5497
14734TIP3    H165617   2.423   4.118   5.522  0.9675  1.4458  0.0748
14734TIP3    H265618   2.439   4.006   5.421 -0.5714  1.1899  0.1155
14735TIP3   OH265619   2.161   1.498   1.265  0.5331 -0.2380  0.1408
14735TIP3    H165620   2.184   1.591   1.261  1.9064 -0.6421 -2.4982
14735TIP3    H265621   2.245   1.453   1.270 -0.0629 -1.4040 -0.3809
14736TIP3   OH265622   3.692   1.381   1.124  0.2342  0.2755  0.0150
14736TIP3    H165623   3.642   1.420   1.052 -0.0563 -0.8537 -0.4044
14736TIP3    H265624   3.641   1.403   1.203 -0.9889 -0.9455 -0.4164
14737TIP3   OH265625   1.628   6.048  15.343 -0.0579 -0.6689 -0.2969
14737TIP3    H165626   1.551   6.099  15.317  0.7697  0.7995  0.0284
14737TIP3    H265627   1.653   6.084  15.428 -0.1636 -2.4716  0.5211
14738TIP3   OH265628   5.587   1.023  17.022  0.2862  0.0062  0.0812
14738TIP3    H165629   5.569   1.116  17.039 -0.9317 -0.2943  0.4938
14738TIP3    H265630   5.500   0.982  17.019  0.6717 -0.7541 -2.2634
14739TIP3   OH265631   3.091   1.679  12.350  0.5387  0.2817  0.1920
14739TIP3    H165632   3.108   1.730  12.271 -0.2304  0.7696  0.3407
14739TIP3    H265633   3.118   1.737  12.422 -0.1616  0.4082  0.3513
14740TIP3   OH265634   6.188   1.416   4.373  0.0993  0.4705 -0.0126
14740TIP3    H165635   6.185   1.466   4.455 -2.2461  0.1086  0.1582
14740TIP3    H265636   6.119   1.456   4.319 -0.9669 -1.7542 -0.3336
14741TIP3   OH265637   5.273   3.235   4.514  0.3048 -0.8729 -0.1658
14741TIP3    H165638   5.322   3.189   4.446  2.7465  2.2400 -0.6537
14741TIP3    H265639   5.183   3.236   4.482  1.2755 -0.1287 -3.0168
14742TIP3   OH265640   4.237   1.387  16.222 -0.3817  0.0872 -0.1173
14742TIP3    H165641   4.265   1.438  16.298  0.6181  0.6681 -0.8486
14742TIP3    H265642   4.303   1.319  16.213 -0.7024 -0.2076 -0.2426
14743TIP3   OH265643   2.199   5.151  16.810 -0.4074  0.3968 -0.6297
14743TIP3    H165644   2.291   5.174  16.823  0.0202 -1.3396 -0.4835
14743TIP3    H265645   2.180   5.176  16.720  0.2400  0.6458 -0.6965
14744TIP3   OH265646   2.393   1.262  15.372  0.1388  0.8066 -0.2126
14744TIP3    H165647   2.440   1.210  15.308  0.3383 -1.0548  1.3979
14744TIP3    H265648   2.300   1.249  15.351  0.1414 -1.1583  0.8664
14745TIP3   OH265649   1.012   3.990  14.751  0.5870 -0.5912  0.5136
14745TIP3    H165650   0.964   4.003  14.669  0.3378  0.9659  0.9021
14745TIP3    H265651   1.104   3.991  14.725  0.6452  3.0878  0.6426
14746TIP3   OH265652   5.740   5.355   2.759  0.4750  0.0009  0.1409
14746TIP3    H165653   5.747   5.421   2.828 -0.1052  0.1803  0.0297
14746TIP3    H265654   5.712   5.276   2.804 -3.0607  0.9223 -0.3150
14747TIP3   OH265655   0.488   0.617  12.769  0.4793  0.2744  0.0767
14747TIP3    H165656   0.423   0.679  12.802  0.7526  0.0046  1.1352
14747TIP3    H265657   0.438   0.558  12.713  0.1327  1.1452 -0.5415
14748TIP3   OH265658   0.981   5.296   2.276 -0.3395 -0.2608  0.0213
14748TIP3    H165659   0.927   5.362   2.320  0.3652 -0.5623  1.3465
14748TIP3    H265660   1.045   5.270   2.341  0.1794 -1.3485 -0.9121
14749TIP3   OH265661   2.548   3.331   0.959  0.3839  0.0203  0.2490
14749TIP3    H165662   2.599   3.410   0.981 -0.0449  0.2028  0.5817
14749TIP3    H265663   2.609   3.277   0.910  0.7337  0.4918  0.1599
14750TIP3   OH265664   3.235   6.511   3.879  0.4544  0.2022 -0.0459
14750TIP3    H165665   3.250   6.535   3.971 -0.4035  0.8263 -0.0621
14750TIP3    H265666   3.322   6.516   3.839  0.9412 -0.6759  0.8644
14751TIP3   OH265667   3.086   0.771  12.056 -0.1565 -0.5521  0.1049
14751TIP3    H165668   3.026   0.770  11.982 -0.0345  1.3222 -0.0441
14751TIP3    H265669   3.089   0.863  12.083  1.8604 -0.7935  0.7563
14752TIP3   OH265670   0.599   4.432   0.438 -0.2020  0.0773  0.2779
14752TIP3    H165671   0.680   4.447   0.388  0.0347 -0.8744  0.3749
14752TIP3    H265672   0.614   4.476   0.521  0.0049  0.3530  0.0984
14753TIP3   OH265673   4.844   6.039   2.167 -0.5682  0.3933  0.0370
14753TIP3    H165674   4.930   6.015   2.135 -0.4759  0.5085  0.1982
14753TIP3    H265675   4.840   6.004   2.256 -0.0992  1.7054  0.5955
14754TIP3   OH265676   6.671   3.546  14.177 -0.7399 -0.1880  0.2394
14754TIP3    H165677   6.620   3.465  14.174 -0.8002 -0.1604  0.4719
14754TIP3    H265678   6.756   3.520  14.213 -1.0621  0.0037  1.1721
14755TIP3   OH265679   0.939   5.118  12.539  0.3763  0.5064 -0.7225
14755TIP3    H165680   1.032   5.135  12.552  0.1929  0.6281  0.4474
14755TIP3    H265681   0.936   5.056  12.465  1.2758  1.9951 -2.0400
14756TIP3   OH265682   0.435   2.770  13.075 -0.0204 -0.2768  0.3069
14756TIP3    H165683   0.465   2.759  12.985 -0.8449 -0.1869  0.0099
14756TIP3    H265684   0.491   2.838  13.112  0.0464 -0.0205 -0.2686
14757TIP3   OH265685   2.348   3.899  10.963  0.3745  0.4071  0.0069
14757TIP3    H165686   2.403   3.953  11.020  2.0274 -0.4293 -0.7826
14757TIP3    H265687   2.343   3.949  10.881  1.0620 -0.1417 -0.3741
14758TIP3   OH265688   0.556   3.152   1.261 -0.0671  0.4192  0.1199
14758TIP3    H165689   0.539   3.123   1.172 -3.4175 -1.5193  1.2955
14758TIP3    H265690   0.522   3.242   1.263 -2.3161 -0.3753  0.0239
14759TIP3   OH265691   2.011   3.228  15.590  0.0484 -0.5036 -0.2039
14759TIP3    H165692   1.944   3.224  15.522  0.5847  0.5093 -0.8013
14759TIP3    H265693   1.970   3.188  15.667 -1.5235  0.8245 -0.3295
14760TIP3   OH265694   0.253   4.777   2.935  0.1005  0.8041 -0.4045
14760TIP3    H165695   0.198   4.773   2.856 -0.5120  1.7384 -0.0257
14760TIP3    H265696   0.228   4.699   2.985 -1.0214  1.3178 -0.1469
14761TIP3   OH265697   0.267   4.901  12.920  0.5608  0.0704 -0.2167
14761TIP3    H165698   0.187   4.932  12.878  0.6069 -1.4626 -1.5064
14761TIP3    H265699   0.269   4.807  12.901  0.1299 -0.9251  3.9569
14762TIP3   OH265700   4.231   2.802   2.137 -0.0145  0.3461  0.4889
14762TIP3    H165701   4.262   2.810   2.227 -0.1900 -0.6453  0.6386
14762TIP3    H265702   4.143   2.840   2.138 -2.1219 -4.2203  1.8942
14763TIP3   OH265703   4.227   1.870   3.972 -0.1358  0.2701  0.5220
14763TIP3    H165704   4.284   1.923   4.028  0.9944 -0.8791  0.4748
14763TIP3    H265705   4.265   1.783   3.974 -2.5395 -0.8033  1.3811
14764TIP3   OH265706   1.192   5.505  11.858  0.0094 -0.2274 -0.3154
14764TIP3    H165707   1.217   5.568  11.791 -0.1677 -0.8298 -0.9468
14764TIP3    H265708   1.215   5.548  11.941 -0.3432  0.7673 -0.7314
14765TIP3   OH265709   6.432   3.608   2.415 -0.4005  0.4187  0.1099
14765TIP3    H165710   6.420   3.676   2.482  1.5760  1.7360 -0.8324
14765TIP3    H265711   6.378   3.637   2.341 -0.8449  0.1037  0.3086
14766TIP3   OH265712   2.571   5.291   4.303  0.6589 -0.4113 -0.7772
14766TIP3    H165713   2.561   5.386   4.308 -0.2374 -0.5233 -0.1220
14766TIP3    H265714   2.595   5.274   4.212  0.5053  0.4170 -0.9821
14767TIP3   OH265715   5.109   2.009   2.378  0.0522  0.6134  0.3795
14767TIP3    H165716   5.020   2.043   2.378 -0.8525 -1.6622 -0.1770
14767TIP3    H265717   5.125   1.984   2.469 -0.6174 -0.8331  0.1010
14768TIP3   OH265718   2.997   0.617   4.868  0.2203 -0.2818  0.3767
14768TIP3    H165719   3.003   0.700   4.916 -1.3633  0.0793  0.0101
14768TIP3    H265720   2.904   0.594   4.873  0.6869 -2.1807  0.6917
14769TIP3   OH265721   1.297   3.473  16.936 -0.0538  0.0819  0.4038
14769TIP3    H165722   1.356   3.415  16.985  2.0565  0.6517 -1.3936
14769TIP3    H265723   1.248   3.414  16.879 -0.3451 -0.2784  1.0268
14770TIP3   OH265724   2.228   6.157  13.417 -0.3618 -0.1632 -0.3854
14770TIP3    H165725   2.196   6.247  13.406 -0.0948  0.0325  0.4031
14770TIP3    H265726   2.174   6.122  13.488 -0.5583 -0.6736 -0.7853
14771TIP3   OH265727   5.692   3.074   1.707  0.3470 -0.2514  0.0806
14771TIP3    H165728   5.768   3.130   1.691  0.0500  0.5209  1.3556
14771TIP3    H265729   5.639   3.082   1.627  1.7740 -1.1054 -0.9832
14772TIP3   OH265730   5.856   4.406  11.041  0.5194  0.5142 -1.0563
14772TIP3    H165731   5.795   4.343  11.003  1.2492 -0.2239 -1.0320
14772TIP3    H265732   5.827   4.418  11.131  0.8884 -0.4358 -0.8153
14773TIP3   OH265733   3.287   2.504  12.572  1.0012  0.1852  0.0394
14773TIP3    H165734   3.274   2.424  12.623 -0.8362 -1.3653 -2.6687
14773TIP3    H265735   3.277   2.475  12.481 -0.3311  3.6256 -0.9702
14774TIP3   OH265736   3.734   5.714  11.869  0.0856  0.2507  0.3459
14774TIP3    H165737   3.693   5.738  11.786 -2.4068  0.7447  1.6599
14774TIP3    H265738   3.699   5.626  11.887  2.5812 -0.9140 -0.3334
14775TIP3   OH265739   4.636   6.647  12.083 -0.3864 -0.2294 -0.2473
14775TIP3    H165740   4.651   6.741  12.095 -1.1198 -0.1656  0.1823
14775TIP3    H265741   4.541   6.637  12.092 -0.4434 -0.8469 -1.4043
14776TIP3   OH265742   4.840   6.763   4.717  0.2528  0.8998 -0.1315
14776TIP3    H165743   4.817   6.856   4.718  0.4778  0.9526  0.5173
14776TIP3    H265744   4.853   6.742   4.624  0.1999  1.5156 -0.2798
14777TIP3   OH265745   4.265   6.525   0.811  0.0232  0.5386 -0.4009
14777TIP3    H165746   4.248   6.483   0.727  0.2449 -0.6349  0.1330
14777TIP3    H265747   4.349   6.570   0.798  0.1405  0.2226 -0.7635
14778TIP3   OH265748   6.173   3.326  13.811 -0.0252  0.2191  0.1987
14778TIP3    H165749   6.164   3.419  13.794 -2.2177 -0.0403 -0.3025
14778TIP3    H265750   6.143   3.283  13.731  0.5027 -0.9221  0.5896
14779TIP3   OH265751   3.785   2.102   4.177 -1.2350  0.4917  0.1767
14779TIP3    H165752   3.775   2.177   4.119 -1.6852 -0.4299 -0.9372
14779TIP3    H265753   3.872   2.067   4.157 -2.0281 -0.7795 -1.0732
14780TIP3   OH265754   5.844   5.199   2.555  0.3189  0.3926  0.0285
14780TIP3    H165755   5.813   5.274   2.605  1.5946  1.1518 -0.3065
14780TIP3    H265756   5.938   5.214   2.545  0.3417 -0.5335 -1.2618
14781TIP3   OH265757   5.841   5.798   2.457 -0.1505 -0.1138 -0.2619
14781TIP3    H165758   5.808   5.730   2.397 -0.7668  0.9753 -1.1738
14781TIP3    H265759   5.899   5.751   2.516 -0.9267 -1.5281 -0.5998
14782TIP3   OH265760   0.710   0.416  13.541 -0.6365  0.3831 -0.2990
14782TIP3    H165761   0.673   0.335  13.578 -0.6046  0.7613  0.5582
14782TIP3    H265762   0.637   0.477  13.538 -0.3482  0.7646  0.3332
14783TIP3   OH265763   0.310   0.613  15.625  0.2156 -0.2246  0.0305
14783TIP3    H165764   0.364   0.600  15.547  2.5810  1.5753  1.3326
14783TIP3    H265765   0.361   0.576  15.697 -0.9213  0.2157  1.0877
14784TIP3   OH265766   0.721   2.061   0.690  0.2545  0.5544  1.0234
14784TIP3    H165767   0.731   2.063   0.786 -0.3016 -1.0557  1.1306
14784TIP3    H265768   0.795   2.009   0.660  1.5282  2.6532  0.3771
14785TIP3   OH265769   4.610   5.387   4.839  0.2073  0.6265 -0.2444
14785TIP3    H165770   4.540   5.450   4.855  1.3550  1.8991 -0.1439
14785TIP3    H265771   4.594   5.317   4.903 -0.8783  0.9602 -0.1270
14786TIP3   OH265772   3.977   5.166  12.982  0.2633  0.1009 -0.8046
14786TIP3    H165773   3.884   5.162  12.958  0.3622  1.2906 -1.4222
14786TIP3    H265774   3.980   5.227  13.056  0.1427 -2.4818  1.3881
14787TIP3   OH265775   6.724   5.757  16.021 -0.1407 -0.1930  0.0444
14787TIP3    H165776   6.677   5.783  15.943 -1.0098 -0.8047  0.3546
14787TIP3    H265777   6.787   5.691  15.991  1.0481  1.1819 -0.4909
14788TIP3   OH265778   2.029   2.811   3.849  0.0807  0.4552  0.3419
14788TIP3    H165779   2.053   2.855   3.931  0.4540 -1.1587  1.1116
14788TIP3    H265780   1.960   2.866   3.812 -1.3498  0.2455  2.6404
14789TIP3   OH265781   3.707   5.046   1.975 -0.3800  0.1780 -0.6405
14789TIP3    H165782   3.779   5.104   1.948 -0.9818  0.9838 -0.5338
14789TIP3    H265783   3.717   5.039   2.070  0.0537 -0.3905 -0.7229
14790TIP3   OH265784   0.081   5.019   5.042 -0.3950  0.3689 -0.1235
14790TIP3    H165785  -0.009   5.001   5.069  0.1651 -1.8906  0.3397
14790TIP3    H265786   0.123   5.055   5.119 -0.3813 -0.4498  0.2531
14791TIP3   OH265787   3.956   3.137   3.929 -0.3340  0.0499  0.1205
14791TIP3    H165788   4.034   3.124   3.876 -0.0393  1.4054  0.2160
14791TIP3    H265789   3.893   3.072   3.896  1.2973 -2.0526  1.0129
14792TIP3   OH265790   3.172   2.371   2.957 -0.6389 -0.7421  0.3025
14792TIP3    H165791   3.143   2.335   2.873  1.0939 -1.1992 -0.1243
14792TIP3    H265792   3.092   2.380   3.008 -1.5580 -1.6852 -0.9324
14793TIP3   OH265793   0.217   5.923   1.354  0.0421 -0.2128 -0.0929
14793TIP3    H165794   0.122   5.928   1.360  0.1687  1.5654  0.5749
14793TIP3    H265795   0.235   5.912   1.261 -0.7654  0.3608 -0.3150
14794TIP3   OH265796   6.535   3.572  14.969 -0.2401 -0.3049 -0.3267
14794TIP3    H165797   6.561   3.655  15.008 -1.8922 -0.5291  1.3393
14794TIP3    H265798   6.568   3.506  15.030 -1.9529 -0.7107  0.1789
14795TIP3   OH265799   5.782   0.261  12.695  0.0897 -0.1803 -0.7397
14795TIP3    H165800   5.849   0.258  12.627  0.0542  1.2655 -0.8427
14795TIP3    H265801   5.824   0.306  12.768 -1.3127  2.3083 -1.4268
14796TIP3   OH265802   4.452   0.814  16.531  0.2073  0.0402 -0.1635
14796TIP3    H165803   4.538   0.833  16.569 -0.3708 -0.9666  1.6954
14796TIP3    H265804   4.446   0.719  16.531 -0.8606  0.0959 -0.4431
14797TIP3   OH265805   4.230   4.763  14.580 -0.2005 -0.5319  0.5519
14797TIP3    H165806   4.300   4.756  14.516  0.0010 -0.6870  0.7878
14797TIP3    H265807   4.198   4.673  14.590 -0.4444 -0.4612  0.4359
14798TIP3   OH265808   1.750   1.183   5.923  0.1658 -0.0015  0.2925
14798TIP3    H165809   1.840   1.208   5.941  0.6920 -1.0310 -0.8177
14798TIP3    H265810   1.697   1.244   5.975  1.4812  0.7652  0.7609
14799TIP3   OH265811   6.340   0.622  13.571  0.3262 -0.2360 -0.5650
14799TIP3    H165812   6.435   0.624  13.579  0.4242 -0.8897 -1.4558
14799TIP3    H265813   6.310   0.577  13.650  0.6311  1.4514  0.5332
14800TIP3   OH265814   5.775   1.097   5.631  0.6669 -0.3079 -0.1948
14800TIP3    H165815   5.840   1.096   5.702 -2.7389  0.6044  3.0659
14800TIP3    H265816   5.759   1.190   5.615 -0.4635 -0.5469 -0.4429
14801TIP3   OH265817   0.721   3.459  11.433 -0.3935  0.1099  0.2481
14801TIP3    H165818   0.799   3.406  11.446 -2.4110 -2.6835  1.6376
14801TIP3    H265819   0.687   3.432  11.347 -1.2416 -0.6451  0.8102
14802TIP3   OH265820   1.161   4.863   4.279  0.2205  0.5387 -0.0476
14802TIP3    H165821   1.149   4.823   4.365 -1.8317 -0.8802 -0.9570
14802TIP3    H265822   1.250   4.899   4.282  0.2990  0.2396  2.5403
14803TIP3   OH265823   4.379   6.739   1.283 -0.0715 -1.0234  0.5911
14803TIP3    H165824   4.291   6.713   1.260 -0.7776 -0.2856  2.3511
14803TIP3    H265825   4.430   6.658   1.280 -0.5658 -1.2971 -1.3522
14804TIP3   OH265826   0.086   4.111   4.015 -0.1313  0.3675  0.2249
14804TIP3    H165827   0.161   4.075   4.064 -0.1655  0.5241  0.3924
14804TIP3    H265828   0.014   4.110   4.078 -0.8787 -2.0091 -0.6394
14805TIP3   OH265829   4.728   5.262   1.364  0.0367  0.0303  0.5059
14805TIP3    H165830   4.735   5.286   1.457 -1.0497 -1.5590  1.0217
14805TIP3    H265831   4.643   5.297   1.337 -0.2152 -0.5955  0.4689
14806TIP3   OH265832   6.626   0.476  15.589 -0.8054  0.6386 -0.0861
14806TIP3    H165833   6.680   0.403  15.621  1.2626  0.7737 -3.0745
14806TIP3    H265834   6.608   0.454  15.497 -4.7700  1.2748  0.4484
14807TIP3   OH265835   5.045   2.279   5.502  0.3058  0.1374  0.3756
14807TIP3    H165836   5.120   2.300   5.557  0.6076 -1.2748  0.5249
14807TIP3    H265837   5.018   2.363   5.463  1.0943  0.8632  1.4015
14808TIP3   OH265838   0.276   2.068  11.484  0.5035  0.0639 -0.4865
14808TIP3    H165839   0.213   2.094  11.417  1.9251  0.8386 -1.5481
14808TIP3    H265840   0.357   2.110  11.458  0.9252  0.9458  2.1211
14809TIP3   OH265841   4.990   3.979   2.977 -0.2761  0.4182  0.0297
14809TIP3    H165842   5.065   4.039   2.964 -0.7909  0.9617 -0.4664
14809TIP3    H265843   4.963   3.955   2.888  0.3422 -1.0917  0.2328
14810TIP3   OH265844   1.704   2.090   5.076  0.1646  1.0076  0.0956
14810TIP3    H165845   1.716   2.091   4.981 -1.2347  1.3576 -0.0946
14810TIP3    H265846   1.749   2.010   5.106 -0.4471  0.2380 -1.0118
14811TIP3   OH265847   1.808   1.194   4.138  0.0287  0.1658 -0.1275
14811TIP3    H165848   1.866   1.173   4.211  0.6633  0.5251 -0.5165
14811TIP3    H265849   1.831   1.285   4.115  1.9632 -0.8936 -2.6835
14812TIP3   OH265850   6.752   5.209  12.024  0.2738  0.0813  0.1054
14812TIP3    H165851   6.810   5.137  12.051  1.0641  1.1148  1.1823
14812TIP3    H265852   6.810   5.273  11.983 -0.0458  1.2265  1.3928
14813TIP3   OH265853   1.458   6.743  17.226 -0.1371 -0.8412  0.5625
14813TIP3    H165854   1.411   6.672  17.183 -1.4909 -0.5450  1.5419
14813TIP3    H265855   1.516   6.777  17.158 -0.6650 -1.8036 -0.3922
14814TIP3   OH265856   4.022   0.797  11.808  0.2676 -0.3962 -0.2447
14814TIP3    H165857   4.112   0.772  11.829  0.7618  0.5579 -1.1830
14814TIP3    H265858   3.986   0.832  11.889  0.8007 -0.5954  0.0745
14815TIP3   OH265859   4.190   5.703   2.782 -0.3611 -0.6716 -0.3554
14815TIP3    H165860   4.110   5.714   2.834 -0.4198  1.8554 -0.9015
14815TIP3    H265861   4.166   5.640   2.714 -1.1619 -1.7382  0.8932
14816TIP3   OH265862   0.089   2.937   0.847  0.4753  0.0414 -0.5046
14816TIP3    H165863   0.010   2.883   0.848 -1.1267  2.3343  1.5671
14816TIP3    H265864   0.096   2.966   0.756 -0.8015 -0.5331 -0.8060
14817TIP3   OH265865   3.392   5.864  10.853  0.2255  0.9190 -0.2838
14817TIP3    H165866   3.319   5.911  10.894 -1.9477 -1.2225 -1.5713
14817TIP3    H265867   3.400   5.903  10.766 -0.8965 -0.3034 -0.9651
14818TIP3   OH265868   4.064   2.100   5.465 -0.1975 -0.1250  0.3647
14818TIP3    H165869   4.118   2.092   5.543  0.5066 -0.6237 -0.1631
14818TIP3    H265870   4.126   2.120   5.394 -0.6000 -1.5401 -0.4007
14819TIP3   OH265871   0.460   3.139  13.287  0.0335  0.3106  0.0073
14819TIP3    H165872   0.507   3.222  13.285  0.6461 -0.0123  0.6459
14819TIP3    H265873   0.377   3.159  13.330  0.7746  0.3053  1.4765
14820TIP3   OH265874   0.028   3.762  16.596 -0.6405  0.1164  0.0676
14820TIP3    H165875  -0.012   3.685  16.556 -2.1051  1.3288 -0.8383
14820TIP3    H265876   0.116   3.766  16.558 -0.3109 -1.4699  0.6227
14821TIP3   OH265877   3.219   0.567  15.059 -0.4699 -0.1990 -0.4220
14821TIP3    H165878   3.276   0.498  15.093 -0.9404  0.2838  1.4205
14821TIP3    H265879   3.254   0.648  15.096  0.7820  0.7371 -3.4953
14822TIP3   OH265880   1.732   3.536   1.145 -0.1091  0.1565  0.4297
14822TIP3    H165881   1.816   3.580   1.153 -0.5876  0.9577  1.2664
14822TIP3    H265882   1.682   3.590   1.083 -0.7969  0.9725  1.6721
14823TIP3   OH265883   1.895   1.491   0.253  0.5726  0.3859 -0.0553
14823TIP3    H165884   1.914   1.577   0.215  0.3476  0.4211 -0.0903
14823TIP3    H265885   1.820   1.459   0.203  1.8360 -0.6669 -1.3262
14824TIP3   OH265886   6.745   4.292   2.283 -0.1993  0.0833 -0.6147
14824TIP3    H165887   6.812   4.277   2.216 -0.3416  1.3645 -1.0604
14824TIP3    H265888   6.674   4.336   2.236 -0.0837  1.4554  0.4851
14825TIP3   OH265889   6.227   1.975  15.441  0.2492  0.2608 -0.5539
14825TIP3    H165890   6.164   1.974  15.513  0.2734  0.2130 -0.5340
14825TIP3    H265891   6.206   1.895  15.392  1.5239 -0.7320  0.5001
14826TIP3   OH265892   2.410   0.535   4.515  0.1466  0.0039  0.0172
14826TIP3    H165893   2.348   0.476   4.473 -2.1925  0.1392  3.1481
14826TIP3    H265894   2.432   0.599   4.447 -1.2414 -1.4589 -1.8615
14827TIP3   OH265895   3.548   2.473  16.449 -0.1469  0.0157  0.3024
14827TIP3    H165896   3.638   2.481  16.419 -0.3102  1.6374  0.2063
14827TIP3    H265897   3.533   2.379  16.456  1.6547 -0.2559  0.6383
14828TIP3   OH265898   2.446   3.731  12.885  0.0114  0.1778 -0.5772
14828TIP3    H165899   2.497   3.659  12.848 -0.0754 -0.8732  1.2767
14828TIP3    H265900   2.443   3.712  12.979  0.2130  2.7436 -0.0112
14829TIP3   OH265901   3.064   0.071  11.319  0.1960 -0.4113 -0.6791
14829TIP3    H165902   3.103   0.136  11.376 -2.2745 -0.6152  1.3556
14829TIP3    H265903   3.045   0.118  11.238 -0.0541  1.0093  0.1766
14830TIP3   OH265904   3.605   6.353  14.085 -0.3958  0.4005 -0.3336
14830TIP3    H165905   3.541   6.358  14.156 -0.4229 -2.1979 -0.1133
14830TIP3    H265906   3.689   6.337  14.129 -0.2379 -0.1354 -0.8285
14831TIP3   OH265907   3.293   3.112   2.813  0.2907 -0.1706 -0.1206
14831TIP3    H165908   3.257   3.198   2.832  0.6175  0.3554 -1.7928
14831TIP3    H265909   3.385   3.129   2.792 -0.0914 -0.6429 -2.3574
14832TIP3   OH265910   5.021   1.555  11.246 -0.0393 -0.0242  0.2379
14832TIP3    H165911   4.951   1.510  11.295  1.4665 -0.8265  1.7024
14832TIP3    H265912   4.981   1.577  11.162 -1.3453 -2.5671  0.1573
14833TIP3   OH265913   0.968   5.719  11.762 -0.3148  0.0272 -0.3815
14833TIP3    H165914   1.006   5.711  11.675 -1.6360 -0.7935 -0.8947
14833TIP3    H265915   0.883   5.760  11.747 -2.0842 -3.3103  0.0962
14834TIP3   OH265916   6.066   2.674   4.664  0.5661 -0.5808 -0.1060
14834TIP3    H165917   6.135   2.739   4.681  1.1876 -1.3697  0.3994
14834TIP3    H265918   6.083   2.604   4.726 -0.0714 -1.2654 -0.6917
14835TIP3   OH265919   2.242   6.182  14.590 -0.2168 -0.9762  0.1468
14835TIP3    H165920   2.227   6.115  14.524 -0.7246 -1.1103  0.4002
14835TIP3    H265921   2.263   6.132  14.669 -0.3503 -0.8278  0.2738
14836TIP3   OH265922   3.831   4.860  12.812 -0.0518 -0.4593  0.4066
14836TIP3    H165923   3.741   4.849  12.843 -0.5123  0.0339 -0.7185
14836TIP3    H265924   3.876   4.780  12.839 -1.1501 -1.2739 -0.1591
14837TIP3   OH265925   2.963   5.262  15.321 -0.6450 -0.6462 -0.4775
14837TIP3    H165926   2.932   5.172  15.322  0.8806 -1.1938 -1.2572
14837TIP3    H265927   3.008   5.273  15.405  1.6931 -1.5544 -1.5466
14838TIP3   OH265928   1.243   2.145  15.441  0.6261 -0.0288 -0.1485
14838TIP3    H165929   1.222   2.104  15.357  1.6537 -0.7775 -0.0474
14838TIP3    H265930   1.317   2.202  15.422 -2.3013  3.7535 -0.8188
14839TIP3   OH265931   0.634   2.998  13.117  0.6280  1.3289  0.2494
14839TIP3    H165932   0.570   3.027  13.182 -2.0002  0.0054 -1.6684
14839TIP3    H265933   0.704   2.957  13.169 -2.2697 -1.3634  2.1940
14840TIP3   OH265934   3.600   1.896   0.355  0.0818  0.3658 -0.1164
14840TIP3    H165935   3.509   1.871   0.371 -0.1652  1.9731  1.0260
14840TIP3    H265936   3.651   1.831   0.403 -0.4840  0.1385  0.1838
14841TIP3   OH265937   6.368   2.633  12.835 -0.1728 -0.1089  0.2110
14841TIP3    H165938   6.359   2.728  12.840  1.2778  0.0199  0.4600
14841TIP3    H265939   6.309   2.599  12.902  2.3073  0.7768  2.9286
14842TIP3   OH265940   3.752   3.628  13.895  0.2178 -0.8269  0.4190
14842TIP3    H165941   3.753   3.595  13.805 -1.1046 -1.7163  0.7183
14842TIP3    H265942   3.672   3.593  13.933 -0.4450  1.4937  1.2384
14843TIP3   OH265943   4.368   0.866  11.308  0.7331  0.2414 -0.1372
14843TIP3    H165944   4.318   0.921  11.369  2.9298  0.3554  1.6153
14843TIP3    H265945   4.303   0.808  11.269 -1.2078  2.2275  0.0212
14844TIP3   OH265946   2.497   2.693   1.621  0.3157  0.3134 -0.3108
14844TIP3    H165947   2.422   2.749   1.602 -0.3089 -0.3623  0.1707
14844TIP3    H265948   2.502   2.634   1.546 -0.9689 -1.0749  0.6747
14845TIP3   OH265949   5.364   4.106   4.237 -0.2205 -0.0470  0.1292
14845TIP3    H165950   5.396   4.044   4.171  2.0023 -0.8350  1.8959
14845TIP3    H265951   5.269   4.097   4.234 -0.0185 -2.1210 -1.0138
14846TIP3   OH265952   3.614   2.490  17.063 -0.5245  0.0677  0.0542
14846TIP3    H165953   3.688   2.495  17.124  1.2476  0.6324 -2.0737
14846TIP3    H265954   3.609   2.398  17.039  0.6793  0.3015 -1.1715
14847TIP3   OH265955   3.605   0.801  12.157  0.1028 -0.0521 -0.9439
14847TIP3    H165956   3.582   0.716  12.118 -0.1101  0.1883 -1.3448
14847TIP3    H265957   3.544   0.863  12.118  0.5464  0.3644 -0.9880
14848TIP3   OH265958   6.666   3.539  16.705 -0.1529 -0.1314  0.5721
14848TIP3    H165959   6.614   3.526  16.784 -0.9101  0.0608  0.1115
14848TIP3    H265960   6.748   3.576  16.736 -0.6967  0.5452  1.2062
14849TIP3   OH265961   6.496   1.329  17.194  0.0387 -0.4934  0.3469
14849TIP3    H165962   6.427   1.394  17.208 -1.0550 -1.6261  0.3139
14849TIP3    H265963   6.454   1.260  17.143  1.2994 -1.0558  0.0362
14850TIP3   OH265964   4.290   2.162  14.228 -0.2239 -0.2394 -0.6303
14850TIP3    H165965   4.349   2.235  14.211 -1.1860  0.3894 -1.3231
14850TIP3    H265966   4.298   2.106  14.151 -0.8333  0.0535 -0.9086
14851TIP3   OH265967   3.980   5.503   1.171  0.2902  0.2602  0.0583
14851TIP3    H165968   4.065   5.458   1.162 -0.0591 -0.1238 -1.4294
14851TIP3    H265969   3.916   5.432   1.168 -0.0454  0.4781  2.0258
14852TIP3   OH265970   2.480   0.532  13.381  0.2043 -0.5270  0.2124
14852TIP3    H165971   2.474   0.615  13.429 -0.8589 -0.3507 -0.1926
14852TIP3    H265972   2.446   0.554  13.294  4.5902 -0.1767 -1.5066
14853TIP3   OH265973   0.183   3.127  14.586 -0.5265  0.3095  0.0205
14853TIP3    H165974   0.211   3.140  14.495 -0.3788  1.4886  0.2360
14853TIP3    H265975   0.264   3.111  14.634 -0.5336  0.4390  0.0744
14854TIP3   OH265976   5.992   5.176  15.975  0.4390 -0.0732 -0.5551
14854TIP3    H165977   5.922   5.121  15.941  1.5808 -1.4802 -0.6853
14854TIP3    H265978   6.028   5.127  16.049 -0.7249  2.0592  1.4709
14855TIP3   OH265979   6.230   5.105  17.144  0.2263 -0.1888 -0.3997
14855TIP3    H165980   6.225   5.009  17.142 -0.6298 -0.1396 -0.9440
14855TIP3    H265981   6.269   5.125  17.229 -1.0173 -0.9525  0.3600
14856TIP3   OH265982   2.255   6.149   5.396 -0.1360  0.0020 -0.3642
14856TIP3    H165983   2.232   6.234   5.434  2.0893  1.1790 -1.5278
14856TIP3    H265984   2.308   6.106   5.463 -1.1206 -0.3962  0.1592
14857TIP3   OH265985   1.511   5.720  16.265  0.1938 -0.2624  0.3360
14857TIP3    H165986   1.549   5.639  16.299 -0.4035 -0.2753  0.9742
14857TIP3    H265987   1.586   5.773  16.240  0.7638  0.7420  3.9194
14858TIP3   OH265988   1.727   0.995   6.119  0.3990  0.2676  0.2993
14858TIP3    H165989   1.722   1.066   6.055 -0.8475 -0.2437 -0.1909
14858TIP3    H265990   1.800   1.019   6.176 -0.0711  1.9968  0.2117
14859TIP3   OH265991   2.158   0.825  12.575 -0.4516  0.1146 -0.8154
14859TIP3    H165992   2.151   0.733  12.553 -0.8477  0.0407 -0.3853
14859TIP3    H265993   2.157   0.870  12.491 -2.2282 -0.1415 -0.9509
14860TIP3   OH265994   3.379   2.313  15.219  0.2144  0.3647  0.3701
14860TIP3    H165995   3.290   2.276  15.219  1.0756 -1.7928  1.4859
14860TIP3    H265996   3.373   2.387  15.279 -0.8545  0.2967  0.3661
14861TIP3   OH265997   2.923   3.439   2.589 -0.1700 -0.2359 -0.6736
14861TIP3    H165998   2.851   3.495   2.617 -0.1197 -1.1803  1.4374
14861TIP3    H265999   2.945   3.470   2.501 -1.2299  1.9483 -0.2011
14862TIP3   OH266000   0.048   1.187  10.850 -0.1073 -0.1491 -0.0908
14862TIP3    H166001   0.064   1.147  10.935 -1.0415  0.6880  0.4879
14862TIP3    H266002   0.009   1.117  10.798  3.1165 -1.5334 -0.7871
14863TIP3   OH266003   5.241   6.121  15.273 -0.2309 -0.1509 -0.4796
14863TIP3    H166004   5.264   6.213  15.291  0.1552 -0.0340 -1.5593
14863TIP3    H266005   5.182   6.097  15.345 -0.2886  0.9252 -0.1567
14864TIP3   OH266006   4.019   0.022   3.844  0.2822  0.0795  0.0511
14864TIP3    H166007   3.996   0.111   3.872  0.9618  0.1259  0.4752
14864TIP3    H266008   4.030  -0.026   3.926 -0.1696 -0.4179 -0.1794
14865TIP3   OH266009   6.131   5.374  13.132  0.2303 -0.1800  0.4341
14865TIP3    H166010   6.104   5.349  13.221  1.0297 -0.4860  0.6032
14865TIP3    H266011   6.183   5.299  13.102  1.2033  0.5444  0.2807
14866TIP3   OH266012   3.182   0.196  16.873  0.1106 -0.1795 -0.1051
14866TIP3    H166013   3.257   0.225  16.926  0.2665 -1.0306  0.1461
14866TIP3    H266014   3.109   0.251  16.903  0.4837  0.2009  0.1129
14867TIP3   OH266015   0.104   4.309   2.043  0.0393 -0.0149  0.4126
14867TIP3    H166016   0.095   4.398   2.009  1.2400  0.8954  2.3845
14867TIP3    H266017   0.183   4.312   2.097  1.2176 -2.7904 -1.0683
14868TIP3   OH266018   6.094   4.794  12.080 -0.1696  0.6466  0.0359
14868TIP3    H166019   6.071   4.869  12.134 -0.1069  0.4266  0.3726
14868TIP3    H266020   6.011   4.758  12.050 -0.1622  1.5225 -1.0564
14869TIP3   OH266021   2.360   1.629   4.535 -0.3786  0.1297 -0.3274
14869TIP3    H166022   2.336   1.555   4.590  0.7030  0.3816  0.4838
14869TIP3    H266023   2.421   1.593   4.471  2.4620  0.8807  1.8712
14870TIP3   OH266024   2.416   0.914   4.816  0.6444  0.3407  0.5280
14870TIP3    H166025   2.395   0.875   4.731 -1.2656 -1.0993  1.6090
14870TIP3    H266026   2.358   0.990   4.822  1.5141  1.0502  0.1325
14871TIP3   OH266027   6.617   5.881  15.044 -0.0009 -0.4644 -0.1571
14871TIP3    H166028   6.703   5.878  15.000  0.8255  0.2256  1.3973
14871TIP3    H266029   6.554   5.881  14.972  1.3083 -0.6721 -1.3316
14872TIP3   OH266030   1.196   4.668  15.904  0.2893 -0.3404  0.6108
14872TIP3    H166031   1.151   4.609  15.843  0.2702 -0.8423  1.1038
14872TIP3    H266032   1.272   4.699  15.856  0.5932 -1.1882  0.5335
14873TIP3   OH266033   1.665   0.458  14.994 -0.0011  0.2118  0.0767
14873TIP3    H166034   1.721   0.491  14.924 -0.6014  0.8636 -0.1109
14873TIP3    H266035   1.622   0.381  14.956  2.6819 -1.8174  1.0913
14874TIP3   OH266036   6.508   5.242  11.273  0.3173  0.4713 -0.2289
14874TIP3    H166037   6.604   5.250  11.278  0.3523 -0.2552  0.2926
14874TIP3    H266038   6.483   5.301  11.202  1.1310  0.8396 -0.2158
14875TIP3   OH266039   2.317   0.538  15.437 -0.1660 -0.5171 -0.0477
14875TIP3    H166040   2.342   0.467  15.496 -1.8830 -1.3705 -0.3077
14875TIP3    H266041   2.345   0.617  15.481  4.0589 -1.4225 -0.8708
14876TIP3   OH266042   3.115   3.583   2.733  0.2655  0.2163  0.0981
14876TIP3    H166043   3.074   3.544   2.656  0.5213  1.4552 -0.6772
14876TIP3    H266044   3.141   3.508   2.787  0.8014 -0.6881 -1.3872
14877TIP3   OH266045   6.126   0.860   4.497 -0.6541 -0.0204 -0.1151
14877TIP3    H166046   6.083   0.894   4.575  0.8493  0.6515  0.4297
14877TIP3    H266047   6.060   0.870   4.428 -2.2381 -1.2340  1.1707
14878TIP3   OH266048   6.212   1.210   3.649  0.0020 -0.2720  0.0262
14878TIP3    H166049   6.304   1.187   3.661 -0.7016 -2.2867  1.8809
14878TIP3    H266050   6.164   1.136   3.686 -2.3758  0.0774 -2.2351
14879TIP3   OH266051   3.424   3.963  11.877 -0.1113 -0.0258  0.0304
14879TIP3    H166052   3.387   4.006  11.954 -1.2169 -0.9449  0.0272
14879TIP3    H266053   3.494   4.021  11.849 -1.0764  1.3963  0.4846
14880TIP3   OH266054   4.129   0.949   0.181  0.3263  0.7986  0.5539
14880TIP3    H166055   4.108   0.885   0.114  1.0572 -0.5928  1.6209
14880TIP3    H266056   4.056   1.010   0.179  0.2050  0.6282 -1.3048
14881TIP3   OH266057   6.715   5.975   4.284 -1.0147 -0.0403  0.7964
14881TIP3    H166058   6.723   5.889   4.243  0.0339 -0.1650  1.2644
14881TIP3    H266059   6.694   5.956   4.376 -1.8941  0.2266  0.6636
14882TIP3   OH266060   1.252   0.444   2.928 -0.3132  0.1129  0.7765
14882TIP3    H166061   1.178   0.482   2.975 -0.9516 -0.5417  0.3113
14882TIP3    H266062   1.235   0.350   2.928  0.7040 -0.0719  0.9808
14883TIP3   OH266063   0.972   1.376   4.801  0.0721 -0.5757 -0.3524
14883TIP3    H166064   0.971   1.343   4.711 -4.0851  0.6097 -0.8522
14883TIP3    H266065   1.030   1.452   4.799  3.0848 -2.7897 -1.0689
14884TIP3   OH266066   3.900   0.181  12.935  0.2947  0.4778 -0.3281
14884TIP3    H166067   3.954   0.180  13.014  0.1292  0.7229 -0.2122
14884TIP3    H266068   3.931   0.257  12.886  1.1319 -0.2879 -1.0085
14885TIP3   OH266069   2.747   6.240  15.606  0.1112  0.1830 -0.0436
14885TIP3    H166070   2.799   6.193  15.541 -0.8802 -0.1945 -0.5837
14885TIP3    H266071   2.657   6.211  15.590 -0.3519  1.3180  0.4355
14886TIP3   OH266072   5.123   5.854   6.124 -0.0003  0.3588 -0.2284
14886TIP3    H166073   5.045   5.898   6.158  0.6143  1.1516  0.1978
14886TIP3    H266074   5.090   5.776   6.080 -0.7632 -1.2157  2.9709
14887TIP3   OH266075   3.117   0.050   3.981  0.0346  0.3491 -0.6244
14887TIP3    H166076   3.048  -0.016   3.973  0.2032  0.1013 -0.0659
14887TIP3    H266077   3.161   0.028   4.063 -0.1713  1.4132 -0.2328
14888TIP3   OH266078   2.172   0.743   5.609  0.0004 -0.1909 -0.1763
14888TIP3    H166079   2.189   0.814   5.548  1.8331  0.0770  0.6213
14888TIP3    H266080   2.247   0.684   5.601  0.0316 -0.4096  1.4390
14889TIP3   OH266081   1.731   1.101  16.272  0.2778  0.1769 -0.1629
14889TIP3    H166082   1.733   1.150  16.190  1.0448 -0.3910 -0.4900
14889TIP3    H266083   1.638   1.094  16.293  0.0871  0.5471 -0.8460
14890TIP3   OH266084   4.427   4.534   3.799 -0.4590 -0.2923 -0.8746
14890TIP3    H166085   4.407   4.442   3.785 -0.4673 -0.4092 -0.0971
14890TIP3    H266086   4.513   4.534   3.841 -0.5241  0.0483 -0.7404
14891TIP3   OH266087   0.166   2.859   0.281 -0.2915 -0.1480  0.0389
14891TIP3    H166088   0.231   2.818   0.225  0.4147  2.3731 -1.0333
14891TIP3    H266089   0.086   2.807   0.267  0.5116 -0.9946 -1.4614
14892TIP3   OH266090   1.934   3.302  12.925 -0.1266 -0.2412  0.5551
14892TIP3    H166091   1.914   3.215  12.960 -2.2651  0.9716  2.5076
14892TIP3    H266092   1.850   3.335  12.893  1.0843  0.2431 -2.2362
14893TIP3   OH266093   4.111   3.295  16.074  0.5011 -0.2548  1.0127
14893TIP3    H166094   4.168   3.223  16.048 -1.1190 -0.5385 -2.0583
14893TIP3    H266095   4.032   3.252  16.108  1.1061  0.1208  2.9494
14894TIP3   OH266096   1.773   4.723  14.344  0.4257 -0.1060  0.2717
14894TIP3    H166097   1.864   4.701  14.322  0.6471  0.8972  0.1577
14894TIP3    H266098   1.776   4.816  14.369 -0.9474  0.5854 -1.9654
14895TIP3   OH266099   2.379   5.268   1.549  0.7252  0.1775  0.4290
14895TIP3    H166100   2.339   5.193   1.593 -0.5999  0.2660 -0.6066
14895TIP3    H266101   2.305   5.326   1.529  1.5202  0.8931 -0.4488
14896TIP3   OH266102   6.664   2.206   2.695  0.3558 -0.4641 -0.3309
14896TIP3    H166103   6.667   2.223   2.600  2.9512 -0.5806 -0.3081
14896TIP3    H266104   6.755   2.216   2.723 -0.1399 -1.9924  1.8888
14897TIP3   OH266105   4.647   2.637  13.400  0.0157 -0.2758 -0.3163
14897TIP3    H166106   4.684   2.676  13.479  1.3628 -1.4952 -0.3269
14897TIP3    H266107   4.558   2.610  13.425  0.1419  0.0909  0.5299
14898TIP3   OH266108   0.084   2.939  11.705 -0.0770  0.0385 -0.6758
14898TIP3    H166109   0.113   2.907  11.619  0.5132 -1.2786 -0.0124
14898TIP3    H266110   0.023   2.872  11.735  0.0569  0.2726  0.1164
14899TIP3   OH266111   2.655   2.070  12.001  0.4369 -0.1576  0.3330
14899TIP3    H166112   2.720   2.121  12.048 -1.0609  2.2530 -0.1278
14899TIP3    H266113   2.613   2.132  11.941 -0.1358 -2.3518 -1.6502
14900TIP3   OH266114   2.478   0.566   2.454 -0.0964 -0.0069  0.6112
14900TIP3    H166115   2.537   0.491   2.449 -2.7251 -2.0923  0.2674
14900TIP3    H266116   2.493   0.613   2.372  1.5889 -0.1063  0.8439
14901TIP3   OH266117   3.179   4.420  11.723  0.4086  0.6274  0.3158
14901TIP3    H166118   3.205   4.329  11.731  1.6177  0.9671  0.4352
14901TIP3    H266119   3.106   4.420  11.661  1.7550 -0.1859 -1.3023
14902TIP3   OH266120   3.085   6.451   0.217 -0.2395  0.4690  0.4392
14902TIP3    H166121   3.056   6.444   0.126  1.3394  2.7845 -0.2990
14902TIP3    H266122   3.101   6.360   0.244 -2.1942 -0.3678 -1.0605
14903TIP3   OH266123   2.080   4.222  17.074  0.3255  0.0055  0.2454
14903TIP3    H166124   2.131   4.275  17.136 -0.9985 -0.0211  1.3880
14903TIP3    H266125   2.042   4.286  17.014  0.7333  0.1339  0.1220
14904TIP3   OH266126   4.505   5.485  15.815  0.1673 -0.3938  0.2978
14904TIP3    H166127   4.575   5.423  15.835 -0.8539 -1.4095  0.8580
14904TIP3    H266128   4.549   5.568  15.799  1.5721 -1.2855 -0.5125
14905TIP3   OH266129   3.608   1.067   0.245 -0.4219  0.2250  0.1062
14905TIP3    H166130   3.521   1.063   0.285  0.5410 -1.1553  2.1965
14905TIP3    H266131   3.596   1.117   0.165 -2.6413  2.2416  1.6492
14906TIP3   OH266132   5.402   1.599   1.838 -1.0599  0.3919  0.2112
14906TIP3    H166133   5.330   1.593   1.774  1.1494 -0.6227 -2.2789
14906TIP3    H266134   5.400   1.690   1.867 -1.6083  1.1130 -1.9521
14907TIP3   OH266135   1.675   1.193  11.976  0.1615 -0.4465 -0.0736
14907TIP3    H166136   1.747   1.252  11.953  0.7953 -0.8466  0.8526
14907TIP3    H266137   1.596   1.245  11.960  0.7299  0.9859  1.5487
14908TIP3   OH266138   2.616   4.293   5.129  0.8875 -0.4086 -0.2510
14908TIP3    H166139   2.652   4.350   5.061  1.1356  0.1471  0.3479
14908TIP3    H266140   2.685   4.286   5.195  1.1000 -1.9119 -0.6047
14909TIP3   OH266141   0.214   3.191   3.121 -0.2018 -0.3543  0.0620
14909TIP3    H166142   0.303   3.200   3.154  0.0900  0.0567 -0.8383
14909TIP3    H266143   0.219   3.122   3.054 -0.8734 -1.4926  1.1501
14910TIP3   OH266144   1.546   1.511  12.002  0.1452  0.4700 -0.4406
14910TIP3    H166145   1.468   1.471  11.964  0.2431  1.0851 -1.2880
14910TIP3    H266146   1.536   1.605  11.986  0.4367  0.6941  0.5870
14911TIP3   OH266147   6.579   1.167   4.068 -0.2654  0.3817  0.3356
14911TIP3    H166148   6.600   1.135   4.155  2.1579  1.0455  0.0456
14911TIP3    H266149   6.513   1.235   4.082  1.5713  1.9136  1.9018
14912TIP3   OH266150   4.533   2.144   0.651  0.5761  0.6149 -0.5707
14912TIP3    H166151   4.611   2.090   0.660  0.0805 -0.0461 -0.2442
14912TIP3    H266152   4.553   2.203   0.578 -0.2050 -2.3759 -3.3221
14913TIP3   OH266153   2.372   1.187  12.487 -0.1410 -0.2322  0.6368
14913TIP3    H166154   2.414   1.271  12.506  1.0379 -0.2053 -1.9179
14913TIP3    H266155   2.295   1.186  12.543  0.8547  1.6979  2.1255
14914TIP3   OH266156   4.438   0.365   4.156 -1.0846  0.1590  0.0767
14914TIP3    H166157   4.504   0.368   4.225 -0.1159 -2.0972 -0.6866
14914TIP3    H266158   4.489   0.367   4.075 -1.9713 -0.8340 -0.5245
14915TIP3   OH266159   1.719   2.303  11.855  0.0508  0.2294 -0.0016
14915TIP3    H166160   1.747   2.303  11.947  1.8620 -0.5651 -0.5486
14915TIP3    H266161   1.726   2.395  11.828  1.5291  0.1465  0.0608
14916TIP3   OH266162   0.349   6.276   4.546 -0.3607 -0.4318  0.0968
14916TIP3    H166163   0.324   6.233   4.464  1.1049  0.3850 -0.8016
14916TIP3    H266164   0.442   6.296   4.535 -0.4318  0.7507  1.4874
14917TIP3   OH266165   0.726   5.685  16.072 -0.5650  0.1496 -0.2112
14917TIP3    H166166   0.801   5.631  16.098  0.5691  1.0731 -1.4984
14917TIP3    H266167   0.701   5.731  16.153  1.2665  1.0174 -0.1220
14918TIP3   OH266168   1.252   1.229   0.549  0.5157 -0.4299 -0.1675
14918TIP3    H166169   1.332   1.209   0.501  1.3157  0.1736  0.8817
14918TIP3    H266170   1.282   1.256   0.636 -0.8986 -1.8276  0.7968
14919TIP3   OH266171   6.133   5.342   1.725  0.2456  0.3923  0.1548
14919TIP3    H166172   6.214   5.343   1.673  0.4952 -1.6051  0.4710
14919TIP3    H266173   6.067   5.377   1.665  1.0936  0.8491 -0.5372
14920TIP3   OH266174   3.157   5.510  13.784 -0.0777 -0.0095  0.0303
14920TIP3    H166175   3.235   5.455  13.793  1.2485  1.5837 -1.3060
14920TIP3    H266176   3.108   5.470  13.712  0.0705 -0.3622  0.1239
14921TIP3   OH266177   0.691   0.023   0.153 -0.0632  0.1163 -0.2640
14921TIP3    H166178   0.702   0.008   0.247 -2.9046  0.5558  0.1666
14921TIP3    H266179   0.737   0.105   0.136 -0.1068  0.3713  0.8472
14922TIP3   OH266180   1.972   5.714  11.129  0.2137 -0.2501 -0.2292
14922TIP3    H166181   1.957   5.652  11.200 -2.0090  0.9161  0.3664
14922TIP3    H266182   2.004   5.793  11.172  1.7098 -0.4859 -0.8559
14923TIP3   OH266183   0.908   5.442  12.350  0.3226 -0.2767 -0.3390
14923TIP3    H166184   0.990   5.491  12.362 -0.2424  0.1556  2.1314
14923TIP3    H266185   0.936   5.356  12.320  1.9253 -1.0142  3.0134
14924TIP3   OH266186   4.660   5.368  12.466  0.0692 -0.3797  0.0106
14924TIP3    H166187   4.622   5.284  12.439 -1.8495  1.2605 -2.6411
14924TIP3    H266188   4.718   5.392  12.393 -0.6657  1.3388 -0.0343
14925TIP3   OH266189   0.895   0.251  13.368  0.0960  0.1783 -0.2762
14925TIP3    H166190   0.821   0.296  13.409  0.1643  0.3602 -0.3524
14925TIP3    H266191   0.859   0.218  13.285  0.0954  0.2551 -0.3069
14926TIP3   OH266192   6.765   0.516  10.438 -0.1165  0.3001  0.0991
14926TIP3    H166193   6.837   0.570  10.469  0.3831  0.4339 -1.2305
14926TIP3    H266194   6.689   0.574  10.439 -0.7265 -0.4968  3.7099
14927TIP3   OH266195   3.855   1.117   5.496 -0.5386 -0.3318  0.5438
14927TIP3    H166196   3.928   1.057   5.512 -0.0814  0.4742  1.5587
14927TIP3    H266197   3.882   1.168   5.420  1.1444  1.7387  2.4510
14928TIP3   OH266198   1.134   3.655  17.129 -0.2175 -0.2452  0.0499
14928TIP3    H166199   1.185   3.624  17.204  0.1798 -0.8379 -0.4591
14928TIP3    H266200   1.179   3.619  17.053 -1.5481 -0.9939 -0.3984
14929TIP3   OH266201   2.035   5.350  13.899 -0.1593 -0.1721 -0.0178
14929TIP3    H166202   1.995   5.269  13.867 -0.3410 -0.1780  0.2215
14929TIP3    H266203   1.961   5.406  13.923 -0.0321 -0.8012  1.9868
14930TIP3   OH266204   3.123   1.663  14.022 -0.8280 -0.4422  0.0774
14930TIP3    H166205   3.124   1.567  14.025 -1.9342 -0.5274 -1.7734
14930TIP3    H266206   3.110   1.684  13.929 -0.8075  1.5064  0.4995
14931TIP3   OH266207   0.591   5.612  13.876  0.2888  0.0761 -0.4198
14931TIP3    H166208   0.599   5.585  13.785  1.3679  0.1222 -0.3444
14931TIP3    H266209   0.678   5.597  13.913  0.0309  0.6667  0.4352
14932TIP3   OH266210   0.767   4.989   2.503  0.3040 -0.2066 -0.0618
14932TIP3    H166211   0.861   4.993   2.520  0.1917 -0.9923  0.7440
14932TIP3    H266212   0.742   5.080   2.485  1.4263 -0.1671 -1.4662
14933TIP3   OH266213   1.028   1.666  15.528 -0.6109  0.9937  0.3485
14933TIP3    H166214   1.011   1.576  15.499 -1.0037  0.9507  0.7069
14933TIP3    H266215   1.082   1.704  15.458 -2.4844  1.2440 -0.9805
14934TIP3   OH266216   1.044   4.286  13.856  0.4539  0.1192 -0.5544
14934TIP3    H166217   1.039   4.274  13.951 -1.9463  0.9813 -0.5282
14934TIP3    H266218   1.036   4.381  13.843  4.2684  0.4109 -1.4823
14935TIP3   OH266219   0.421   6.404   1.525 -0.1327 -0.2519 -0.6546
14935TIP3    H166220   0.369   6.444   1.455 -0.9215  0.2500  0.2037
14935TIP3    H266221   0.478   6.341   1.480 -1.0589 -0.3720 -1.6693
14936TIP3   OH266222   5.937   3.490  13.471  0.0793  0.0489 -0.1034
14936TIP3    H166223   6.015   3.436  13.457  0.6615  0.8281  0.1617
14936TIP3    H266224   5.896   3.451  13.548  1.6832  1.3251  1.4333
14937TIP3   OH266225   4.341   1.859  17.235 -0.1909 -0.5369  0.8310
14937TIP3    H166226   4.273   1.914  17.194  0.9302 -0.2738 -0.7332
14937TIP3    H266227   4.311   1.770  17.221 -1.1882 -0.3715  1.8833
14938TIP3   OH266228   0.678   0.935   2.741 -0.0710  0.1513 -0.2696
14938TIP3    H166229   0.763   0.923   2.698  0.4872  1.0247  0.5628
14938TIP3    H266230   0.640   1.010   2.697  0.6504  1.2633  0.9495
14939TIP3   OH266231   6.149   6.585   0.480 -0.2026  0.0805  0.1184
14939TIP3    H166232   6.105   6.555   0.401 -2.0866  0.4831  0.9908
14939TIP3    H266233   6.189   6.669   0.455  0.6951 -0.6341 -0.8722
14940TIP3   OH266234   2.653   4.722   4.662  0.7096 -0.0450  0.4603
14940TIP3    H166235   2.606   4.640   4.679 -0.4261  0.4296 -0.3839
14940TIP3    H266236   2.744   4.694   4.651  0.2612 -1.2773 -0.3175
14941TIP3   OH266237   4.696   5.562   5.114 -0.1819 -0.2054  0.2752
14941TIP3    H166238   4.773   5.606   5.149 -1.5238  2.9609 -0.5346
14941TIP3    H266239   4.728   5.516   5.036  0.8250  1.4848 -0.3405
14942TIP3   OH266240   2.246   4.995   4.096  0.0282  0.0012 -0.3464
14942TIP3    H166241   2.323   4.982   4.152 -0.1423 -0.6150 -0.2471
14942TIP3    H266242   2.233   5.090   4.094  1.7785  0.2318 -1.6970
14943TIP3   OH266243   1.443   6.153   5.188  0.0404  0.0325 -0.0495
14943TIP3    H166244   1.393   6.077   5.158 -0.0445  1.3817 -3.4900
14943TIP3    H266245   1.523   6.116   5.226 -0.2369 -1.7963 -1.2098
14944TIP3   OH266246   3.520   6.651   1.677  0.1190  0.4095 -0.1894
14944TIP3    H166247   3.439   6.620   1.719  0.0929 -1.3505 -1.4480
14944TIP3    H266248   3.549   6.724   1.731 -0.1829 -1.4338  2.5809
14945TIP3   OH266249   1.459   3.866   1.130 -0.0106  0.8745 -0.2559
14945TIP3    H166250   1.447   3.818   1.212 -1.7109  0.6655 -0.6256
14945TIP3    H266251   1.436   3.957   1.152 -2.9127  0.3897 -1.0751
14946TIP3   OH266252   0.980   5.316   1.631 -0.3016  0.4123 -0.3722
14946TIP3    H166253   0.947   5.234   1.668 -1.7552  0.2299 -1.9817
14946TIP3    H266254   1.059   5.335   1.681  0.5369 -2.4233 -0.5454
14947TIP3   OH266255   1.396   3.843   0.693  0.7667 -0.5218  0.2001
14947TIP3    H166256   1.407   3.795   0.611  1.0274 -0.2836  0.0918
14947TIP3    H266257   1.453   3.920   0.683 -0.7600  0.5663 -0.2382
14948TIP3   OH266258   4.282   2.580   4.025 -0.4906  0.8457 -0.5224
14948TIP3    H166259   4.352   2.620   3.974 -0.6516  1.3445 -0.3557
14948TIP3    H266260   4.300   2.606   4.115  1.2777 -2.1716  0.0574
14949TIP3   OH266261   6.116   4.865   2.584  0.1518  0.2772 -0.0796
14949TIP3    H166262   6.080   4.828   2.503 -1.1226  0.7665  0.2532
14949TIP3    H266263   6.175   4.797   2.617 -1.8029 -1.2692  0.2847
14950TIP3   OH266264   3.911   4.458   2.569 -0.6221  0.1880 -0.4809
14950TIP3    H166265   3.999   4.492   2.584 -1.0893  0.9126  0.7010
14950TIP3    H266266   3.921   4.396   2.497  0.7879  0.5358 -0.5959
14951TIP3   OH266267   4.886   4.525  13.511 -0.0782  0.4402  0.5828
14951TIP3    H166268   4.843   4.596  13.463  0.5797  0.5326  0.1281
14951TIP3    H266269   4.903   4.458  13.445  0.0206  0.1911  0.8624
14952TIP3   OH266270   2.838   2.648   2.684 -0.1017  0.4347 -0.4695
14952TIP3    H166271   2.755   2.674   2.644 -0.0903  0.1909 -0.6568
14952TIP3    H266272   2.881   2.730   2.705  0.0286  0.5725 -1.2476
14953TIP3   OH266273   5.407   5.185  11.466  0.1893  0.5561  0.4611
14953TIP3    H166274   5.455   5.124  11.410  1.5742  1.1600  0.9608
14953TIP3    H266275   5.462   5.263  11.468 -0.9988  1.3934  0.7787
14954TIP3   OH266276   4.180   0.260  11.738 -0.0752  0.4141  0.0738
14954TIP3    H166277   4.237   0.337  11.738  0.8059 -0.2038  1.9609
14954TIP3    H266278   4.129   0.269  11.818  0.0655 -0.9779  0.3284
14955TIP3   OH266279   3.940   4.166   3.661 -0.2698  0.0786  0.2231
14955TIP3    H166280   3.947   4.217   3.581 -0.4026 -2.1427 -1.2658
14955TIP3    H266281   3.848   4.141   3.665 -0.7354  1.9980  2.2726
14956TIP3   OH266282   6.245   0.454  13.080  0.8851 -0.0135 -0.0040
14956TIP3    H166283   6.315   0.478  13.141  1.3406  0.7502 -0.8126
14956TIP3    H266284   6.269   0.368  13.047  1.2034  0.0500  0.0668
14957TIP3   OH266285   5.175   4.702  15.837  0.3158  0.2282 -0.3610
14957TIP3    H166286   5.107   4.650  15.793 -1.5110  1.8359  0.4637
14957TIP3    H266287   5.171   4.673  15.928  0.5838  0.4745 -0.2719
14958TIP3   OH266288   2.878   2.099  14.027  0.0571  0.4944 -0.3604
14958TIP3    H166289   2.845   2.009  14.026  2.1270 -0.2893 -0.9628
14958TIP3    H266290   2.914   2.113  13.940  1.7495  1.1205  0.4111
14959TIP3   OH266291   6.704   6.217  15.621  0.2751  0.2671  0.4446
14959TIP3    H166292   6.659   6.186  15.699  1.5575  3.2408  2.4365
14959TIP3    H266293   6.645   6.282  15.583  0.0078 -0.5859 -0.6064
14960TIP3   OH266294   0.503   4.461  17.080  0.1910 -0.5862 -0.1791
14960TIP3    H166295   0.579   4.419  17.121 -0.5515 -1.2475  0.5481
14960TIP3    H266296   0.486   4.537  17.135  0.0896 -0.6555 -0.1159
14961TIP3   OH266297   4.451   4.571   0.704 -0.0976 -0.1987 -0.3283
14961TIP3    H166298   4.538   4.534   0.719 -0.3618 -0.5830  0.2901
14961TIP3    H266299   4.446   4.647   0.762 -0.4614 -0.6416  0.2305
14962TIP3   OH266300   2.694   5.970   5.533 -0.0090 -0.6235  1.0138
14962TIP3    H166301   2.621   5.999   5.587 -0.1963  2.0748 -0.6007
14962TIP3    H266302   2.760   6.038   5.544 -0.2655  0.2809 -2.4754
14963TIP3   OH266303   5.957   4.923   2.929 -0.5713  0.6065  0.6702
14963TIP3    H166304   5.993   4.989   2.870  0.6770  0.6438  1.4395
14963TIP3    H266305   5.886   4.882   2.880  1.5206 -0.5274 -1.5356
14964TIP3   OH266306   5.924   2.836   5.071 -0.5640 -0.4332  0.3094
14964TIP3    H166307   5.973   2.907   5.029 -2.0098 -0.1041 -0.8734
14964TIP3    H266308   5.838   2.839   5.029 -0.8045 -2.5654  0.6066
14965TIP3   OH266309   2.871   5.832  14.656 -0.3355 -0.5440 -0.1402
14965TIP3    H166310   2.906   5.743  14.661 -0.9511 -1.0080 -3.1042
14965TIP3    H266311   2.792   5.824  14.603 -1.0656  1.5821  0.5740
14966TIP3   OH266312   5.181   4.116  15.474  0.1778  0.5476  0.4054
14966TIP3    H166313   5.169   4.156  15.560  1.2699  2.6422 -0.3926
14966TIP3    H266314   5.254   4.164  15.434  1.1946 -1.9180 -0.7999
14967TIP3   OH266315   6.586   0.688   4.345 -0.2743  0.1807  0.2059
14967TIP3    H166316   6.585   0.627   4.419  1.9235 -0.5221 -0.3118
14967TIP3    H266317   6.649   0.650   4.284 -1.2503  1.3269 -1.5624
14968TIP3   OH266318   5.423   3.819  12.132  0.0535  0.3550 -0.1549
14968TIP3    H166319   5.349   3.805  12.192  0.3552 -0.5700  0.0091
14968TIP3    H266320   5.393   3.782  12.049 -0.0438  0.8837 -0.3596
14969TIP3   OH266321   2.197   5.540   0.496 -0.8776  0.9175 -0.2320
14969TIP3    H166322   2.218   5.487   0.419  1.3272  1.4602 -0.0474
14969TIP3    H266323   2.196   5.630   0.464 -1.5975  1.0153  0.0560
14970TIP3   OH266324   6.324   2.422   4.771 -0.1989  0.8278  0.2160
14970TIP3    H166325   6.247   2.474   4.795  0.0643  2.0271 -1.4322
14970TIP3    H266326   6.398   2.483   4.778  0.3757  0.1538  0.0989
14971TIP3   OH266327   1.473   5.196  14.037  0.3486  0.2875 -0.4194
14971TIP3    H166328   1.536   5.262  14.008  1.5485 -1.1467 -1.1269
14971TIP3    H266329   1.435   5.162  13.956 -0.1728  0.0154 -0.0629
14972TIP3   OH266330   4.557   1.241  15.037  0.8546  0.1216  0.0420
14972TIP3    H166331   4.621   1.312  15.028 -0.8849  1.6502 -0.3831
14972TIP3    H266332   4.526   1.225  14.948  1.6453 -1.5843  0.0525
14973TIP3   OH266333   0.466   4.725   0.026 -0.4715 -0.0137 -0.1522
14973TIP3    H166334   0.394   4.746   0.086 -1.3062  0.0046 -1.1603
14973TIP3    H266335   0.532   4.792   0.044 -1.0139  0.4173  0.2506
14974TIP3   OH266336   0.663   6.011  15.453 -0.0834 -0.1727  0.1876
14974TIP3    H166337   0.606   5.960  15.395 -1.6289  2.1277 -0.3779
14974TIP3    H266338   0.675   6.094  15.408  0.3350  0.9214  2.2504
14975TIP3   OH266339   0.251   3.496   3.546 -0.4527 -0.3159  0.5026
14975TIP3    H166340   0.265   3.519   3.455 -0.8851 -0.7346  0.3313
14975TIP3    H266341   0.313   3.551   3.594 -1.2051  0.9351  0.0772
14976TIP3   OH266342   1.095   1.627   4.722 -0.4350 -0.0508 -0.1844
14976TIP3    H166343   1.185   1.635   4.752 -0.8771  0.3741  1.0610
14976TIP3    H266344   1.052   1.707   4.752 -0.9539  0.3047 -1.7989
14977TIP3   OH266345   2.047   4.415  14.281  0.8610 -0.2313 -0.0764
14977TIP3    H166346   1.986   4.341  14.280  0.3721  0.1584 -2.1162
14977TIP3    H266347   2.032   4.459  14.197  0.7725  2.4912  1.3214
14978TIP3   OH266348   3.537   4.264  12.595 -0.2295  0.2396 -0.1245
14978TIP3    H166349   3.524   4.228  12.507 -0.5352 -0.8029  0.3401
14978TIP3    H266350   3.461   4.233  12.645  0.4714 -0.0306  0.7774
14979TIP3   OH266351   4.832   5.767  11.158  0.1357  0.1091 -0.0877
14979TIP3    H166352   4.740   5.793  11.144  0.1666  1.5718  2.1778
14979TIP3    H266353   4.877   5.798  11.079 -1.2019 -0.0194 -0.9219
14980TIP3   OH266354   4.501   6.140   1.650  0.3294 -0.5324 -0.4216
14980TIP3    H166355   4.524   6.048   1.635  2.3129 -0.4125  1.7256
14980TIP3    H266356   4.429   6.137   1.713 -1.4613 -0.6613 -2.3961
14981TIP3   OH266357   3.543   3.939   2.758 -0.1319  0.0979 -0.0284
14981TIP3    H166358   3.499   3.862   2.792  2.0243 -0.7650  0.9303
14981TIP3    H266359   3.498   3.959   2.676 -2.6507 -0.3427  1.2334
14982TIP3   OH266360   0.906   3.146   3.498 -0.3991  0.0487  0.5947
14982TIP3    H166361   0.918   3.166   3.591  1.3867  0.3935  0.3156
14982TIP3    H266362   0.992   3.117   3.469 -0.7796  0.5623 -1.0969
14983TIP3   OH266363   1.886   3.954   2.078 -0.2653  0.1712 -0.1620
14983TIP3    H166364   1.934   3.992   2.005 -0.6134  0.7174 -0.1050
14983TIP3    H266365   1.897   3.859   2.067 -0.4951  0.2415 -1.0428
14984TIP3   OH266366   2.474   1.132  12.786  0.4397  0.1921  0.2067
14984TIP3    H166367   2.466   1.153  12.879 -1.4550 -2.0958  0.5939
14984TIP3    H266368   2.387   1.147  12.750  0.8669 -0.0588 -0.9572
14985TIP3   OH266369   0.346   5.883   4.185  0.5287  0.1040 -0.1102
14985TIP3    H166370   0.301   5.868   4.102  0.7994 -0.7899 -0.1008
14985TIP3    H266371   0.286   5.938   4.235 -0.0246 -0.0815 -0.5624
14986TIP3   OH266372   1.312   4.907   5.114  0.2089 -0.5215 -0.1455
14986TIP3    H166373   1.401   4.929   5.089  0.6957 -0.9016  1.2215
14986TIP3    H266374   1.309   4.811   5.114 -0.4171 -0.5061 -0.9435
14987TIP3   OH266375   4.096   3.579  12.845 -0.0679 -0.7939  0.0235
14987TIP3    H166376   4.050   3.526  12.779 -2.3034  0.4093  0.5596
14987TIP3    H266377   4.030   3.594  12.913  1.1133  1.0479  0.7914
14988TIP3   OH266378   2.331   4.600  12.512 -0.2676  0.2741  0.5882
14988TIP3    H166379   2.310   4.612  12.419 -2.3587  0.6385  1.0663
14988TIP3    H266380   2.347   4.689  12.544  1.8046  0.0263  0.3069
14989TIP3   OH266381   0.270   5.024  11.731  0.4719  0.6764 -0.0417
14989TIP3    H166382   0.281   4.932  11.709 -0.8808 -0.7312  4.6115
14989TIP3    H266383   0.346   5.046  11.784 -0.1440  1.6596  0.4635
14990TIP3   OH266384   2.749   4.229   4.321  1.2578  0.1162  0.0397
14990TIP3    H166385   2.656   4.230   4.302  0.9096 -0.9180  1.6038
14990TIP3    H266386   2.789   4.190   4.242  0.3929  0.6660 -0.6737
14991TIP3   OH266387   2.629   2.376   1.210 -0.0539  0.7577 -0.1581
14991TIP3    H166388   2.553   2.427   1.180  0.1834  0.4316 -1.3411
14991TIP3    H266389   2.666   2.429   1.281 -0.7813  1.4239 -0.2613
14992TIP3   OH266390   2.842   0.652   1.097  0.0007 -0.0724  0.0581
14992TIP3    H166391   2.862   0.730   1.044  1.1789 -0.8300 -0.6274
14992TIP3    H266392   2.927   0.624   1.131 -0.4113 -1.0905  0.2524
14993TIP3   OH266393   4.814   6.402   0.706 -0.6146 -0.6076  0.4069
14993TIP3    H166394   4.784   6.322   0.665  0.0987  0.3340 -2.0567
14993TIP3    H266395   4.750   6.420   0.775 -2.9032 -1.2645 -1.4843
14994TIP3   OH266396   6.372   5.376   1.587 -0.2571  0.3017 -0.1309
14994TIP3    H166397   6.375   5.415   1.499  0.4286  0.8123  0.1233
14994TIP3    H266398   6.432   5.428   1.639  0.7744 -1.1794  0.1834
14995TIP3   OH266399   1.958   2.151   3.270 -0.1689  0.4632 -0.5339
14995TIP3    H166400   1.926   2.172   3.358 -1.8184  0.4114 -1.0953
14995TIP3    H266401   2.048   2.184   3.269 -0.3597  1.1086  0.9307
14996TIP3   OH266402   5.723   2.559  11.132  1.0066 -0.3870  0.1997
14996TIP3    H166403   5.633   2.589  11.117  0.4818 -2.2003 -0.5035
14996TIP3    H266404   5.767   2.634  11.172 -0.6833  0.7011  0.0994
14997TIP3   OH266405   4.557   1.498   1.022 -0.4268  0.3664  0.1649
14997TIP3    H166406   4.626   1.537   1.075  0.5649 -0.0907 -0.7705
14997TIP3    H266407   4.590   1.411   1.000 -2.7660 -1.1586  2.5095
14998TIP3   OH266408   6.407   5.862  13.047 -0.2492 -0.1717  0.6144
14998TIP3    H166409   6.414   5.766  13.048  0.1120 -0.1595 -0.1698
14998TIP3    H266410   6.322   5.879  13.006 -0.3870 -0.1624  0.9069
14999TIP3   OH266411   2.886   2.913  15.699 -0.3861 -0.1575 -0.6344
14999TIP3    H166412   2.943   2.861  15.756 -0.7461 -0.1886 -0.3012
14999TIP3    H266413   2.923   3.002  15.704  1.7156 -0.8317 -3.1337
15000TIP3   OH266414   2.500   6.101  17.238 -0.0794  0.3378  0.2640
15000TIP3    H166415   2.514   6.020  17.285  0.3132 -0.9680 -2.0186
15000TIP3    H266416   2.470   6.074  17.151  1.3237  2.5799 -0.9698
15001TIP3   OH266417   6.174   0.396  14.475  0.0000  0.5731  0.1982
15001TIP3    H166418   6.082   0.414  14.491  0.4689  4.3604 -0.8847
15001TIP3    H266419   6.182   0.391  14.380  1.1266  1.5754  0.2313
15002TIP3   OH266420   2.617   0.173  12.195 -0.2601 -0.0455 -0.3122
15002TIP3    H166421   2.570   0.227  12.258  1.4809  0.2951  0.7192
15002TIP3    H266422   2.607   0.218  12.112 -2.9268 -0.7123 -0.4054
15003TIP3   OH266423   4.519   5.161  10.778  0.3783 -0.0409  0.2876
15003TIP3    H166424   4.543   5.249  10.808  0.7963  0.3454 -1.1716
15003TIP3    H266425   4.446   5.175  10.718  0.5230 -0.6882 -0.0398
15004TIP3   OH266426   0.353   2.970   4.658  0.4607  0.0903 -0.1064
15004TIP3    H166427   0.336   2.880   4.689 -0.1772  0.3047  0.1804
15004TIP3    H266428   0.363   2.961   4.564  0.0999 -0.2413 -0.1156
15005TIP3   OH266429   1.173   2.314   5.825  0.2845  0.3113  0.2263
15005TIP3    H166430   1.121   2.291   5.902  3.1279 -2.4420  1.4535
15005TIP3    H266431   1.137   2.260   5.755 -1.6280  2.0466 -0.1731
15006TIP3   OH266432   0.268   0.718  13.653  0.0416  0.0272 -0.1174
15006TIP3    H166433   0.176   0.700  13.634 -0.0718  0.8858 -0.4304
15006TIP3    H266434   0.282   0.681  13.741 -0.5462 -0.2805 -0.1536
15007TIP3   OH266435   5.064   6.755  15.268 -0.1433  0.1458 -0.4083
15007TIP3    H166436   5.147   6.757  15.315 -0.8802 -0.3723  0.9484
15007TIP3    H266437   5.058   6.666  15.233 -1.2872 -0.6475  1.6890
15008TIP3   OH266438   0.611   1.399   3.686 -0.8003  0.5212 -0.4810
15008TIP3    H166439   0.534   1.371   3.637  1.4911 -2.0043 -2.7661
15008TIP3    H266440   0.630   1.325   3.744 -1.0308  1.8046  1.2534
15009TIP3   OH266441   5.132   5.846  14.244 -0.2439 -0.0794  0.0511
15009TIP3    H166442   5.091   5.909  14.303  0.7707  0.0657  0.6228
15009TIP3    H266443   5.208   5.814  14.293 -0.6613 -1.6215 -0.3009
15010TIP3   OH266444   3.568   4.549  12.695  1.0212  0.7521 -0.2790
15010TIP3    H166445   3.488   4.586  12.732  0.4636  0.0482 -0.7577
15010TIP3    H266446   3.549   4.455  12.686  1.3090  0.8323 -1.8827
15011TIP3   OH266447   2.297   4.911  10.579  0.4947 -0.1843  0.1934
15011TIP3    H166448   2.317   4.999  10.613  2.0241 -0.3835 -0.1412
15011TIP3    H266449   2.296   4.922  10.484 -1.9563 -0.0049  0.2083
15012TIP3   OH266450   4.565   2.285  14.747 -0.0329 -0.3141 -0.3308
15012TIP3    H166451   4.653   2.249  14.737  0.8105  1.3608  0.8103
15012TIP3    H266452   4.553   2.341  14.669 -0.5849 -1.5067 -1.1140
15013TIP3   OH266453   4.924   2.834  14.541  0.1175 -0.1714 -0.3708
15013TIP3    H166454   4.941   2.752  14.589 -1.2510  0.5892  1.4758
15013TIP3    H266455   5.011   2.865  14.517  1.0875  0.5915  3.6645
15014TIP3   OH266456   4.099   4.072  11.425 -0.0970  0.1084 -0.0008
15014TIP3    H166457   4.047   4.137  11.379  0.2987 -0.2103 -0.9095
15014TIP3    H266458   4.190   4.100  11.414 -0.0586  0.7425  1.6977
15015TIP3   OH266459   0.996   5.851  14.391  0.5888  0.3675  0.1361
15015TIP3    H166460   0.962   5.883  14.308 -0.4512 -1.1814 -0.0471
15015TIP3    H266461   1.045   5.925  14.427 -1.2546  1.9649 -0.5555
15016TIP3   OH266462   0.957   2.453   4.612  0.3400  0.2353 -0.4490
15016TIP3    H166463   0.864   2.431   4.612  0.6391 -1.0859 -1.7232
15016TIP3    H266464   0.979   2.465   4.520  1.4467  0.4760 -0.1633
15017TIP3   OH266465   0.983   5.136   3.932 -0.2263  0.2229 -0.1129
15017TIP3    H166466   0.907   5.184   3.966 -0.5084  0.8715 -1.5985
15017TIP3    H266467   1.006   5.183   3.852  1.2725 -0.4400 -0.0770
15018TIP3   OH266468   2.934   4.764  16.735 -0.0821 -0.5795  0.4742
15018TIP3    H166469   2.964   4.766  16.826  1.5428 -0.0144 -0.0697
15018TIP3    H266470   3.008   4.729  16.686 -0.6511 -0.0555 -0.7606
15019TIP3   OH266471   4.980   6.448  16.710 -0.3915  0.5732 -0.5783
15019TIP3    H166472   4.980   6.494  16.794  0.3509 -0.2066 -0.1387
15019TIP3    H266473   5.072   6.435  16.690 -0.5887 -0.8226 -0.6357
15020TIP3   OH266474   1.475   3.996  12.896 -0.3419  0.1144  0.1461
15020TIP3    H166475   1.533   3.921  12.910  2.1690  2.1170  1.1073
15020TIP3    H266476   1.484   4.016  12.803 -0.5318 -0.3964  0.0150
15021TIP3   OH266477   6.219   1.568  17.117 -0.6234 -0.3587 -0.0105
15021TIP3    H166478   6.203   1.495  17.177 -0.0706 -0.0684  0.5002
15021TIP3    H266479   6.298   1.610  17.151 -0.2763 -0.2196 -0.9828
15022TIP3   OH266480   5.968   1.885   6.171 -0.4883  0.0985 -0.4970
15022TIP3    H166481   5.905   1.817   6.146  0.2568 -0.5511 -0.6352
15022TIP3    H266482   6.053   1.841   6.168 -0.2226  0.3695  1.8074
15023TIP3   OH266483   6.207   1.874  12.402 -0.9211 -0.4277 -0.5354
15023TIP3    H166484   6.205   1.926  12.322  0.6151 -0.2305 -0.4530
15023TIP3    H266485   6.210   1.939  12.473  0.1961 -0.6133 -0.4051
15024TIP3   OH266486   4.766   2.753   1.432 -0.2736  0.4546 -0.5735
15024TIP3    H166487   4.707   2.804   1.486  0.4330  0.4785  0.1877
15024TIP3    H266488   4.835   2.724   1.492 -0.3839 -0.9532 -1.0931
15025TIP3   OH266489   0.193   4.836  13.684  0.2568 -0.1004 -0.1245
15025TIP3    H166490   0.254   4.899  13.723 -0.9123  1.5214 -0.8236
15025TIP3    H266491   0.117   4.837  13.742  0.2240 -0.8333 -0.1586
15026TIP3   OH266492   2.685   1.006  15.791  0.1109  0.4797 -0.1322
15026TIP3    H166493   2.721   0.923  15.821  2.4288  1.6887  0.5205
15026TIP3    H266494   2.697   1.005  15.696  0.6794  0.3282 -0.0579
15027TIP3   OH266495   4.632   0.812  11.412 -0.6332  0.3629 -0.1546
15027TIP3    H166496   4.539   0.816  11.394 -0.5272 -0.2982 -0.8464
15027TIP3    H266497   4.661   0.728  11.376 -0.3001 -0.7285  2.5279
15028TIP3   OH266498   2.979   2.335  14.910 -0.1537 -0.0103  0.0518
15028TIP3    H166499   2.994   2.400  14.979  1.0075 -0.0378 -0.1560
15028TIP3    H266500   3.067   2.306  14.886 -0.5036  0.3741 -1.7853
15029TIP3   OH266501   1.524   5.350   0.595  0.1588  0.0430 -1.0739
15029TIP3    H166502   1.532   5.438   0.631  1.2511 -0.2491 -0.5833
15029TIP3    H266503   1.430   5.330   0.599  0.0203  0.8290 -0.3431
15030TIP3   OH266504   3.183   1.819  13.135 -0.1292  0.5107 -0.7650
15030TIP3    H166505   3.168   1.871  13.056  0.5046 -0.7010 -1.7028
15030TIP3    H266506   3.218   1.736  13.103 -1.2099 -0.5475  0.6942
15031TIP3   OH266507   5.608   2.942  16.171  0.2528 -0.0044 -0.0310
15031TIP3    H166508   5.568   3.025  16.197 -0.9427  0.2080 -2.4558
15031TIP3    H266509   5.605   2.942  16.076  2.1677 -1.9223 -0.1303
15032TIP3   OH266510   2.476   6.771  16.539  0.1282 -0.4510  0.4274
15032TIP3    H166511   2.417   6.718  16.593 -0.1505 -1.4541 -0.8288
15032TIP3    H266512   2.486   6.853  16.587 -0.9674 -0.9212  1.4719
15033TIP3   OH266513   5.870   1.142   2.067  0.8913 -0.0550  0.3961
15033TIP3    H166514   5.848   1.089   1.991  1.6851 -0.5168  0.4775
15033TIP3    H266515   5.812   1.111   2.136  1.7751 -1.2666  0.6137
15034TIP3   OH266516   3.710   5.010   1.391  0.9854 -0.2550 -0.6497
15034TIP3    H166517   3.621   5.040   1.376  0.6772 -1.9264 -2.4710
15034TIP3    H266518   3.701   4.938   1.453  0.7899 -1.7651 -2.3735
15035TIP3   OH266519   5.895   3.957  14.043 -0.2235  0.0574 -0.4765
15035TIP3    H166520   5.945   3.945  13.962  0.4289 -0.0395 -0.0662
15035TIP3    H266521   5.885   3.868  14.079  0.4194  0.2064  0.0914
15036TIP3   OH266522   0.335   4.779  15.275 -0.3194  0.6750  0.5224
15036TIP3    H166523   0.240   4.781  15.262 -0.3184 -1.2785 -0.0263
15036TIP3    H266524   0.360   4.870  15.290 -2.3842  1.1227  1.4182
15037TIP3   OH266525   4.223   4.760   1.893 -0.6139 -0.2095 -0.2943
15037TIP3    H166526   4.232   4.789   1.984  0.5900  0.2484 -0.5513
15037TIP3    H266527   4.280   4.819   1.844 -1.0097 -0.6663 -1.3080
15038TIP3   OH266528   1.035   2.679   4.055 -0.0919 -0.3567 -0.2531
15038TIP3    H166529   1.070   2.593   4.079  3.7798  0.4215 -2.7427
15038TIP3    H266530   1.018   2.722   4.139  0.9324 -2.3442  1.0156
15039TIP3   OH266531   4.979   4.003   2.073 -0.7681  0.3396 -0.5221
15039TIP3    H166532   4.908   4.046   2.121 -0.9561  1.1931 -1.5323
15039TIP3    H266533   5.059   4.032   2.117 -0.9364  1.1152 -0.7103
15040TIP3   OH266534   6.116   1.786   4.140 -0.6026 -0.0190 -0.0108
15040TIP3    H166535   6.141   1.796   4.048 -0.2824  0.6090  0.1360
15040TIP3    H266536   6.190   1.741   4.180 -0.4926  0.2087  0.0474
15041TIP3   OH266537   0.394   4.283  12.335  0.0318  0.5706 -0.1547
15041TIP3    H166538   0.335   4.209  12.350 -0.1580  0.8206  0.3263
15041TIP3    H266539   0.369   4.316  12.249  1.1001 -0.8363 -1.0246
15042TIP3   OH266540   3.188   5.920   4.148  0.0878 -0.1918  0.1503
15042TIP3    H166541   3.268   5.885   4.187 -0.1322 -0.4885  0.3329
15042TIP3    H266542   3.219   5.988   4.088  0.4687 -0.2076  0.3248
15043TIP3   OH266543   2.910   5.218  13.228 -0.6185 -0.0407  0.1706
15043TIP3    H166544   2.895   5.308  13.201 -1.2737 -0.4933 -0.9816
15043TIP3    H266545   2.964   5.180  13.159  0.9454 -0.1166  1.3966
15044TIP3   OH266546   5.762   6.311   2.282  0.0183  0.1982  0.0446
15044TIP3    H166547   5.853   6.319   2.254  0.0231 -1.6970 -0.5036
15044TIP3    H266548   5.767   6.311   2.378  0.6055 -0.0382  0.0155
15045TIP3   OH266549   5.612   1.382  14.454 -0.4097 -0.0755  0.9542
15045TIP3    H166550   5.697   1.373  14.497  0.0709  1.6227  0.3945
15045TIP3    H266551   5.631   1.428  14.373 -1.5444 -1.7607 -0.3177
15046TIP3   OH266552   2.818   4.362   1.980  0.3068  0.0602 -0.3253
15046TIP3    H166553   2.728   4.344   2.007  0.2472  0.0757 -0.5090
15046TIP3    H266554   2.827   4.317   1.895  0.1805  0.8186 -0.7482
15047TIP3   OH266555   5.380   0.262   3.981 -0.4440  0.2117  0.3283
15047TIP3    H166556   5.434   0.196   4.025 -0.6552 -0.6110 -0.6516
15047TIP3    H266557   5.385   0.338   4.039  1.3626 -0.0225  0.5164
15048TIP3   OH266558   4.644   5.033  15.802  0.0206  0.2193 -0.0158
15048TIP3    H166559   4.584   4.960  15.816 -1.6092  1.4363 -0.5536
15048TIP3    H266560   4.588   5.111  15.804  1.6236  1.3971 -0.2227
15049TIP3   OH266561   3.843   0.742   2.003 -0.3760  0.0592  0.2617
15049TIP3    H166562   3.774   0.724   1.939 -2.0191 -0.0340  2.0369
15049TIP3    H266563   3.858   0.836   1.995  0.4546 -0.1868 -1.2668
15050TIP3   OH266564   3.081   6.187  10.927  0.2133 -0.1575 -0.2655
15050TIP3    H166565   3.117   6.193  10.838 -0.7342  1.3609 -0.5588
15050TIP3    H266566   3.114   6.266  10.971  1.9890 -1.6966  1.2335
15051TIP3   OH266567   1.174   0.610   5.824 -0.1706  0.0501 -0.5022
15051TIP3    H166568   1.099   0.669   5.815  0.8540  1.2175 -1.4394
15051TIP3    H266569   1.208   0.600   5.735 -0.8917 -2.7424 -0.5375
15052TIP3   OH266570   2.010   0.736  13.878 -0.4984  0.2674 -0.1262
15052TIP3    H166571   2.014   0.779  13.792 -1.3583  0.9031  0.1425
15052TIP3    H266572   2.068   0.660  13.870 -0.2297  0.5736 -1.1281
15053TIP3   OH266573   1.293   4.989  13.114 -0.0178 -0.0767  0.3150
15053TIP3    H166574   1.315   4.983  13.021  0.1896 -1.5354  0.4449
15053TIP3    H266575   1.217   5.046  13.117  0.1934  0.2744 -0.7195
15054TIP3   OH266576   3.397   2.923   3.587 -0.3618  0.3444 -0.0036
15054TIP3    H166577   3.470   2.980   3.563  0.1806  0.0043  0.8333
15054TIP3    H266578   3.422   2.836   3.556 -1.3698  0.6154 -1.6467
15055TIP3   OH266579   2.971   6.360   2.129 -0.1512  0.3113  0.0245
15055TIP3    H166580   2.936   6.302   2.197  0.5126 -0.3889 -0.2207
15055TIP3    H266581   3.063   6.370   2.152 -0.0780  0.6027 -0.4069
15056TIP3   OH266582   3.566   5.994  13.958  0.1508 -0.5657 -0.2885
15056TIP3    H166583   3.629   6.056  13.921  0.5506 -1.7153 -1.5937
15056TIP3    H266584   3.496   6.049  13.993  1.4944  0.6959  0.4730
15057TIP3   OH266585   0.390   5.668  15.929  0.1085 -0.2603 -0.2503
15057TIP3    H166586   0.299   5.673  15.900  0.1444  0.2250 -0.2855
15057TIP3    H266587   0.432   5.609  15.866 -0.5583 -1.8327  0.7587
15058TIP3   OH266588   4.540   0.043  16.121  0.0014  0.2411 -0.0758
15058TIP3    H166589   4.622   0.070  16.162 -0.1705  0.3183  0.2106
15058TIP3    H266590   4.481   0.025  16.194  0.1118 -0.9047 -0.2620
15059TIP3   OH266591   5.881   3.528  13.914  0.3983 -0.0731 -0.1108
15059TIP3    H166592   5.811   3.464  13.930  2.2441 -2.2022 -0.2127
15059TIP3    H266593   5.835   3.610  13.898 -1.9640 -0.4468  3.9923
15060TIP3   OH266594   0.748   0.596   5.898 -0.4947 -0.5612  0.6131
15060TIP3    H166595   0.808   0.623   5.968  0.7193  0.4360 -0.8008
15060TIP3    H266596   0.667   0.645   5.917  1.0239  2.6417 -0.7649
15061TIP3   OH266597   4.953   3.162  12.556  0.0846 -0.2950 -0.4685
15061TIP3    H166598   5.027   3.108  12.525 -0.4272 -0.7563 -0.8999
15061TIP3    H266599   4.947   3.142  12.649  0.2044 -0.6283 -0.5292
15062TIP3   OH266600   0.933   2.101  15.253 -0.1035 -0.4763  0.3752
15062TIP3    H166601   0.885   2.018  15.258  0.4285 -0.8318 -0.3682
15062TIP3    H266602   1.025   2.075  15.246  0.1516  0.2000  1.1700
15063TIP3   OH266603   6.089   5.403  12.121  0.2615  0.4412  1.4811
15063TIP3    H166604   6.182   5.423  12.106 -0.0182  1.6456  1.2930
15063TIP3    H266605   6.083   5.308  12.110  0.8413  0.7396 -1.8939
15064TIP3   OH266606   5.541   2.380  13.554  0.1020 -0.2219 -0.0243
15064TIP3    H166607   5.598   2.456  13.545  0.4926 -0.6312 -1.1335
15064TIP3    H266608   5.453   2.415  13.547  0.2751  0.1499 -0.3363
15065TIP3   OH266609   0.126   0.810  15.649  0.1063  0.2139  0.1983
15065TIP3    H166610   0.188   0.738  15.639 -0.5735 -0.2632 -0.5711
15065TIP3    H266611   0.072   0.807  15.570 -0.5989  0.9181  0.6481
15066TIP3   OH266612   3.444   3.535   0.469  0.2580  0.0227 -0.0117
15066TIP3    H166613   3.430   3.595   0.396  1.8031 -0.9938 -1.1704
15066TIP3    H266614   3.387   3.460   0.450  1.6488 -0.8293 -0.8805
15067TIP3   OH266615   1.656   0.186   2.671  0.1923 -0.0055 -0.1495
15067TIP3    H166616   1.612   0.220   2.749  0.9810 -0.5519  0.5389
15067TIP3    H266617   1.739   0.151   2.703  0.8681  0.4583 -1.3489
15068TIP3   OH266618   6.763   2.537   2.998 -0.4060 -0.1905 -0.0768
15068TIP3    H166619   6.779   2.445   3.020 -1.0187 -0.0974  0.7782
15068TIP3    H266620   6.781   2.543   2.905 -0.7019 -1.2642 -0.2063
15069TIP3   OH266621   4.748   0.087  17.226  0.2206 -0.7086 -0.2204
15069TIP3    H166622   4.717   0.152  17.164 -0.9458 -0.4189  0.6392
15069TIP3    H266623   4.836   0.064  17.196 -0.1988 -0.3281 -1.7670
15070TIP3   OH266624   0.504   0.197   1.396 -0.3149  0.3442 -0.8783
15070TIP3    H166625   0.452   0.120   1.423 -1.1434  0.9728 -0.6688
15070TIP3    H266626   0.555   0.219   1.474  0.2973 -0.2968 -1.0947
15071TIP3   OH266627   2.918   3.820   4.801  0.6037 -0.2722 -0.2561
15071TIP3    H166628   2.881   3.866   4.726  0.5292  0.4338  0.2085
15071TIP3    H266629   2.926   3.887   4.869  2.2801 -0.5094 -0.1886
15072TIP3   OH266630   2.982   0.461   1.558  0.2272  0.0112  0.1083
15072TIP3    H166631   2.986   0.375   1.600  0.1949  0.3889  0.8819
15072TIP3    H266632   2.894   0.465   1.521 -0.0762  0.0677  0.8332
15073TIP3   OH266633   5.526   0.185  13.835  0.2394 -0.5403 -0.3352
15073TIP3    H166634   5.466   0.163  13.763 -0.8904  1.5983 -0.1022
15073TIP3    H266635   5.598   0.232  13.792  0.7288 -1.3002 -0.3515
15074TIP3   OH266636   0.196   4.036  15.518 -0.1115 -0.0325 -0.0703
15074TIP3    H166637   0.161   3.952  15.549 -2.2750  1.1400  0.7599
15074TIP3    H266638   0.268   4.055  15.577 -0.5650 -0.5955  0.6824
15075TIP3   OH266639   1.590   4.028  13.243 -0.6456 -0.5952 -0.7425
15075TIP3    H166640   1.535   3.957  13.276 -1.1065 -0.5064 -1.3270
15075TIP3    H266641   1.594   4.090  13.316 -0.6427 -0.9805 -0.4071
15076TIP3   OH266642   5.914   3.312  16.631  0.2296 -0.0031  0.4977
15076TIP3    H166643   5.852   3.354  16.691  0.9069  0.8841  0.5733
15076TIP3    H266644   5.949   3.384  16.579  0.8484 -0.5716  0.1295
15077TIP3   OH266645   4.585   2.872  12.598 -0.0129 -0.1126  0.3102
15077TIP3    H166646   4.506   2.894  12.549 -1.2509 -0.2320  2.2161
15077TIP3    H266647   4.563   2.889  12.690  1.8085 -1.1652  0.9861
15078TIP3   OH266648   2.578   1.545   2.925  0.4385  0.1165  0.0566
15078TIP3    H166649   2.518   1.614   2.956  1.1508  0.1930  1.2821
15078TIP3    H266650   2.650   1.545   2.988  1.4002 -0.4533 -1.0177
15079TIP3   OH266651   2.310   6.756   2.067  0.1431  0.5561  0.3288
15079TIP3    H166652   2.315   6.852   2.069 -2.1530  0.7348 -0.4973
15079TIP3    H266653   2.294   6.731   2.158 -0.0350  1.0292  0.4301
15080TIP3   OH266654   6.340   3.317  16.312 -0.4063 -0.1102  0.0710
15080TIP3    H166655   6.306   3.381  16.375  0.6895  0.8529 -0.2896
15080TIP3    H266656   6.391   3.370  16.250  0.0024 -1.2690 -0.5964
15081TIP3   OH266657   0.633   5.641   5.001  0.1746 -0.7019 -0.0926
15081TIP3    H166658   0.538   5.652   4.996  0.2494  0.0514  0.0573
15081TIP3    H266659   0.651   5.560   4.953 -0.5377 -0.8089 -0.1753
15082TIP3   OH266660   4.549   0.379   4.906  0.3888 -0.1108  0.1595
15082TIP3    H166661   4.609   0.366   4.833 -0.1773  1.7361 -0.6594
15082TIP3    H266662   4.576   0.463   4.944  1.0608 -1.3346  2.4474
15083TIP3   OH266663   4.552   6.314   3.602  0.4144 -0.0589 -0.2316
15083TIP3    H166664   4.470   6.335   3.646  0.1428  2.0691 -1.6590
15083TIP3    H266665   4.525   6.272   3.520  0.7701 -0.2488 -0.2536
15084TIP3   OH266666   1.869   2.452  14.190 -0.0703 -0.2230  0.1279
15084TIP3    H166667   1.898   2.516  14.125  0.8517  0.0000  0.7419
15084TIP3    H266668   1.844   2.375  14.139 -0.7889  0.4812 -0.5857
15085TIP3   OH266669   4.828   6.053   0.968  0.4376  0.1931  0.2408
15085TIP3    H166670   4.800   5.962   0.963  2.1981 -0.3305 -0.5935
15085TIP3    H266671   4.899   6.060   0.904  1.9618  1.5434  2.0186
15086TIP3   OH266672   5.448   3.466  16.715  0.5278 -0.5322 -0.0418
15086TIP3    H166673   5.476   3.511  16.636 -0.7839  0.5718  0.1144
15086TIP3    H266674   5.419   3.380  16.684 -0.9051  0.2452 -0.9098
15087TIP3   OH266675   0.018   5.852  12.574  0.3518 -0.2695 -0.5454
15087TIP3    H166676  -0.030   5.894  12.645  1.0165 -0.2432 -0.1088
15087TIP3    H266677  -0.030   5.770  12.558 -0.1171 -0.0149 -0.4389
15088TIP3   OH266678   6.631   1.353  13.548  0.0719  0.4275  0.7127
15088TIP3    H166679   6.573   1.311  13.485  0.8004  0.4912 -0.0046
15088TIP3    H266680   6.683   1.414  13.496 -0.4134  1.6453  1.6117
15089TIP3   OH266681   4.522   5.673  13.715 -0.2648  0.1292  0.1217
15089TIP3    H166682   4.437   5.716  13.721  0.1070  0.9069 -0.0956
15089TIP3    H266683   4.548   5.658  13.805  0.2084  1.5854  0.2408
15090TIP3   OH266684   4.296   6.302   4.235  0.5728 -0.1246 -0.2999
15090TIP3    H166685   4.277   6.341   4.321 -1.0127 -1.2248 -0.1499
15090TIP3    H266686   4.388   6.275   4.242  0.5446  0.0519  0.9550
15091TIP3   OH266687   1.336   3.082  14.765  0.0331 -0.0396  0.4759
15091TIP3    H166688   1.375   3.157  14.809 -0.5832  1.0716 -0.8160
15091TIP3    H266689   1.410   3.023  14.749  0.4852  0.1858  1.6992
15092TIP3   OH266690   0.822   6.705   1.280 -0.2159  0.3452  0.4052
15092TIP3    H166691   0.824   6.612   1.303 -0.8779  0.1416 -0.3299
15092TIP3    H266692   0.804   6.750   1.363 -0.6284 -0.2341  0.6327
15093TIP3   OH266693   5.016   4.783   1.558  0.0445  0.0207  0.4250
15093TIP3    H166694   4.937   4.750   1.516  0.5143  0.1038 -0.5470
15093TIP3    H266695   4.990   4.866   1.599 -0.4388 -0.1014  0.3595
15094TIP3   OH266696   3.505   1.806   1.584 -0.5974 -0.3504  0.5277
15094TIP3    H166697   3.518   1.875   1.520 -0.7074 -1.5565 -0.8279
15094TIP3    H266698   3.474   1.851   1.662 -0.1142  1.1834 -0.1405
15095TIP3   OH266699   6.747   5.067  15.338 -0.5408 -0.2518 -0.4143
15095TIP3    H166700   6.663   5.029  15.311 -0.8495 -1.1188  1.6561
15095TIP3    H266701   6.810   5.032  15.275 -1.6301 -0.0635 -1.6355
15096TIP3   OH266702   3.457   4.544   4.825  0.1221  0.2601 -0.2358
15096TIP3    H166703   3.406   4.623   4.843  0.7894  0.6652 -0.0908
15096TIP3    H266704   3.486   4.554   4.734 -0.3264 -0.1200 -0.4191
15097TIP3   OH266705   1.902   0.514   5.458 -0.0685  0.5555  0.0488
15097TIP3    H166706   1.819   0.468   5.446  0.6186 -0.2716 -1.8624
15097TIP3    H266707   1.910   0.525   5.553 -1.2796 -1.3751  0.4102
15098TIP3   OH266708   5.923   5.415  16.245  0.2169  0.1260  0.2713
15098TIP3    H166709   5.982   5.487  16.263 -2.0688  1.3564  3.2298
15098TIP3    H266710   5.923   5.362  16.325 -4.3161  1.4237  1.2826
15099TIP3   OH266711   4.805   3.510   5.755  0.3922 -0.4502 -0.0105
15099TIP3    H166712   4.767   3.433   5.713  0.9024  0.1320 -1.5453
15099TIP3    H266713   4.733   3.573   5.758  0.7614  0.0284 -1.3273
15100TIP3   OH266714   5.560   1.460   2.942  0.0068  0.0811 -0.2695
15100TIP3    H166715   5.505   1.446   3.019 -0.2738 -0.1854 -0.5186
15100TIP3    H266716   5.610   1.539   2.962  1.2831 -1.0187  0.9630
15101TIP3   OH266717   5.300   1.156  13.699  0.4975 -0.4297 -0.3132
15101TIP3    H166718   5.238   1.215  13.741  0.9961  0.3730 -0.6941
15101TIP3    H266719   5.385   1.180  13.737  0.6036 -1.4417  0.1212
15102TIP3   OH266720   1.434   1.205  16.152  0.3760  0.3436  0.0718
15102TIP3    H166721   1.350   1.175  16.116  0.2476 -0.7473  1.2476
15102TIP3    H266722   1.465   1.131  16.204  1.4807  1.2060  0.6515
15103TIP3   OH266723   2.081   1.698   2.510 -0.5017  0.3715 -0.0804
15103TIP3    H166724   2.078   1.789   2.480  0.2833  0.8696  1.3341
15103TIP3    H266725   2.003   1.657   2.472 -0.9205  1.6615 -0.6112
15104TIP3   OH266726   0.884   2.284   1.091 -0.0001 -0.1822 -0.0479
15104TIP3    H166727   0.920   2.223   1.155 -0.0153  1.1201  1.2277
15104TIP3    H266728   0.951   2.291   1.023 -0.2928 -2.1312 -0.5479
15105TIP3   OH266729   5.513   1.158  12.005  0.0531  0.1308  0.5693
15105TIP3    H166730   5.563   1.217  11.949  0.0557 -0.0012  0.4314
15105TIP3    H266731   5.526   1.192  12.094  0.3534  0.1207  0.5281
15106TIP3   OH266732   6.617   5.267  12.871  0.0053 -0.3654  0.1039
15106TIP3    H166733   6.649   5.331  12.807  0.5356 -0.2384  0.4919
15106TIP3    H266734   6.525   5.253  12.847 -0.7862  2.2452  1.3445
15107TIP3   OH266735   1.550   0.763   5.810 -0.3230 -0.7225 -0.4356
15107TIP3    H166736   1.638   0.776   5.844  0.6869 -0.4149 -3.0452
15107TIP3    H266737   1.537   0.837   5.750 -2.4714 -0.6209  0.0993
15108TIP3   OH266738   5.825   3.101   2.972  0.2407  0.4406  0.7576
15108TIP3    H166739   5.766   3.151   2.915  0.7926  0.4100  0.1566
15108TIP3    H266740   5.817   3.143   3.057 -0.3729  0.6699  0.5880
15109TIP3   OH266741   6.358   2.411   5.812  0.2552  0.1671 -0.0362
15109TIP3    H166742   6.315   2.474   5.870  0.4951  0.2791  0.0229
15109TIP3    H266743   6.449   2.439   5.810 -0.0856  1.1845 -1.8403
15110TIP3   OH266744   2.916   5.345  15.997  0.1297 -0.8897 -0.4853
15110TIP3    H166745   2.853   5.416  16.005  0.7462 -0.4771  0.8539
15110TIP3    H266746   2.983   5.379  15.937  0.1414 -0.5471 -0.2761
15111TIP3   OH266747   3.605   3.600   2.395  0.0646 -0.3334 -0.1313
15111TIP3    H166748   3.689   3.581   2.352 -1.1059 -0.8379 -2.3046
15111TIP3    H266749   3.552   3.639   2.326 -1.6436 -0.4284  1.1004
15112TIP3   OH266750   4.033   6.782   3.058  0.2754 -0.7862  0.5438
15112TIP3    H166751   4.024   6.810   2.967  0.8601 -0.8350  0.4650
15112TIP3    H266752   4.082   6.700   3.053  0.3685 -0.7534  0.9039
15113TIP3   OH266753   3.315   4.420  12.408 -0.4336  0.6615  0.1242
15113TIP3    H166754   3.270   4.344  12.372  0.1696 -0.2293  1.2136
15113TIP3    H266755   3.256   4.454  12.475 -1.1579  1.7820 -1.0592
15114TIP3   OH266756   1.243   4.627  15.004  0.2967  0.4588 -0.3802
15114TIP3    H166757   1.289   4.632  14.921  1.5547  0.1947  0.2917
15114TIP3    H266758   1.305   4.584  15.064 -0.2621  1.4109  0.9117
15115TIP3   OH266759   5.514   1.689   1.242 -0.0598 -0.3642  0.3434
15115TIP3    H166760   5.550   1.710   1.328  0.4003 -0.7638  0.2530
15115TIP3    H266761   5.570   1.618   1.210 -0.9026 -0.9599  0.1777
15116TIP3   OH266762   4.106   3.244  11.327 -0.4521 -0.5020 -0.0153
15116TIP3    H166763   4.058   3.210  11.403 -1.2107  0.3014 -0.1221
15116TIP3    H266764   4.185   3.284  11.364  0.3099 -2.1122  0.1332
15117TIP3   OH266765   2.560   0.379   1.371 -0.1760 -0.0040  0.0395
15117TIP3    H166766   2.505   0.303   1.356  0.6840 -1.0903  2.2538
15117TIP3    H266767   2.544   0.404   1.462  1.7934  0.6199  0.2445
15118TIP3   OH266768   0.475   2.792   0.433 -0.7319 -0.2501  0.3333
15118TIP3    H166769   0.464   2.715   0.378  2.3846 -1.6532  1.5503
15118TIP3    H266770   0.447   2.764   0.520 -0.5050  0.2714  0.5817
15119TIP3   OH266771   0.273   1.752  15.263  0.1720  0.0560 -0.5634
15119TIP3    H166772   0.270   1.848  15.259 -0.8589 -0.0065 -1.4768
15119TIP3    H266773   0.237   1.731  15.349 -0.2091  0.4601 -0.6226
15120TIP3   OH266774   3.837   5.945   1.490 -0.1330 -0.0844 -0.8649
15120TIP3    H166775   3.781   6.019   1.465  0.9921  0.6705 -1.1711
15120TIP3    H266776   3.801   5.916   1.575  0.5630  2.0198  0.1808
15121TIP3   OH266777   6.448   0.539  13.274  0.3183 -0.0306  0.0405
15121TIP3    H166778   6.483   0.506  13.356  1.0720 -0.7230 -0.5587
15121TIP3    H266779   6.508   0.609  13.248  0.1042  0.1611  0.0541
15122TIP3   OH266780   3.933   3.414  12.705 -0.0521  0.0973 -0.2932
15122TIP3    H166781   3.963   3.368  12.626 -1.0320 -1.6543  0.3283
15122TIP3    H266782   3.853   3.459  12.677 -0.8827 -1.2333 -0.0961
15123TIP3   OH266783   4.076   6.532  12.386  0.0750  0.2973  0.3042
15123TIP3    H166784   3.991   6.501  12.355  0.6029 -0.5433 -0.3328
15123TIP3    H266785   4.138   6.501  12.320  1.0884 -0.5949  1.6397
15124TIP3   OH266786   3.032   5.929   2.906  0.5390 -0.5380 -0.6577
15124TIP3    H166787   3.022   5.840   2.872 -0.5660 -0.6746 -0.0017
15124TIP3    H266788   2.996   5.925   2.995  0.2926  0.6037 -0.6952
15125TIP3   OH266789   4.386   2.336  15.990 -0.0516 -0.1491  0.7575
15125TIP3    H166790   4.304   2.311  16.033 -1.1848 -1.0184 -1.7726
15125TIP3    H266791   4.358   2.373  15.906  2.1456 -0.4667 -0.1514
15126TIP3   OH266792   2.882   4.820   0.654 -0.2322 -0.2797  0.3390
15126TIP3    H166793   2.958   4.816   0.596 -1.6849  1.1670 -1.7416
15126TIP3    H266794   2.909   4.877   0.726  0.6481  0.1911 -0.3606
15127TIP3   OH266795   4.785   4.311  15.618 -0.4348  0.0935 -0.1345
15127TIP3    H166796   4.818   4.280  15.534  1.4543 -2.0464  1.3167
15127TIP3    H266797   4.762   4.403  15.603  1.2121  0.1391 -2.6042
15128TIP3   OH266798   0.457   3.739   4.657 -0.4949  0.1952 -0.1940
15128TIP3    H166799   0.531   3.738   4.597 -0.6994 -1.5553 -0.4552
15128TIP3    H266800   0.495   3.756   4.743  0.1807 -0.5554 -0.3455
15129TIP3   OH266801   3.413   0.133  12.028 -0.0370 -0.1619  0.1137
15129TIP3    H166802   3.389   0.071  12.097  2.5688  0.4026  1.6057
15129TIP3    H266803   3.437   0.213  12.074  0.9863  0.4837 -1.4859
15130TIP3   OH266804   3.327   0.577   3.666  0.2477  0.0617 -0.1725
15130TIP3    H166805   3.282   0.636   3.606 -1.6498  0.2010  1.3169
15130TIP3    H266806   3.393   0.631   3.709 -0.6814  0.8062  0.3223
15131TIP3   OH266807   1.598   5.356   1.966 -0.4616 -0.7853 -0.0331
15131TIP3    H166808   1.582   5.266   1.938  1.3031 -0.9368 -0.6673
15131TIP3    H266809   1.617   5.403   1.885 -1.6038  0.2232  0.2717
15132TIP3   OH266810   4.343   5.068   2.744 -0.2800  0.3276  0.0770
15132TIP3    H166811   4.356   5.163   2.748 -0.2469  0.3760 -1.1624
15132TIP3    H266812   4.248   5.058   2.736 -0.3710  0.2167  1.1930
15133TIP3   OH266813   5.833   1.802   1.330  0.3302 -0.2840  0.4584
15133TIP3    H166814   5.831   1.850   1.413 -1.2412 -0.3628  0.4718
15133TIP3    H266815   5.873   1.863   1.268  1.3252 -0.1519  1.2102
15134TIP3   OH266816   2.929   0.018  11.692 -0.3241 -0.1800 -0.1472
15134TIP3    H166817   2.970  -0.069  11.695  1.4430  0.5621 -1.8401
15134TIP3    H266818   2.997   0.077  11.724 -0.6380  0.8681 -1.3909
15135TIP3   OH266819   1.106   3.023   4.155  0.4658  0.1252 -0.0408
15135TIP3    H166820   1.181   2.964   4.147  0.7579  0.3709  0.7346
15135TIP3    H266821   1.125   3.074   4.235 -0.4777  0.2512  0.1083
15136TIP3   OH266822   3.011   6.522   0.485  0.3175  0.2485 -0.3917
15136TIP3    H166823   2.930   6.498   0.530  0.1723  1.0229 -0.2324
15136TIP3    H266824   2.995   6.500   0.394  0.4141 -0.8287 -0.1613
15137TIP3   OH266825   2.374   3.972  12.400  0.2049 -0.3618  0.4859
15137TIP3    H166826   2.369   3.958  12.495 -1.8958  1.7582  0.7205
15137TIP3    H266827   2.468   3.987  12.384  0.4752  0.1917  2.3699
15138TIP3   OH266828   6.206   2.504   2.972  0.1499 -0.6198  0.2422
15138TIP3    H166829   6.263   2.571   2.936  1.1715 -1.7307 -0.2422
15138TIP3    H266830   6.214   2.514   3.067  0.7443 -0.4263  0.1736
15139TIP3   OH266831   5.921   3.911   5.211  0.3062 -0.1004 -0.0734
15139TIP3    H166832   5.874   3.828   5.205  1.3347 -0.6016 -1.5987
15139TIP3    H266833   5.853   3.976   5.231 -0.6612 -1.1497  0.0862
15140TIP3   OH266834   1.406   3.039   2.492  0.5673  0.0664 -0.3506
15140TIP3    H166835   1.384   2.989   2.571  1.3550 -0.6658 -0.5822
15140TIP3    H266836   1.491   3.078   2.512  0.6316  0.1203 -0.7236
15141TIP3   OH266837   6.534   6.287   2.654 -0.3218 -0.4655 -0.5137
15141TIP3    H166838   6.480   6.325   2.584 -0.6548 -1.5939 -0.8757
15141TIP3    H266839   6.618   6.269   2.613  0.1811  0.7972 -0.0827
15142TIP3   OH266840   1.310   3.627  14.277 -0.1368 -0.1608 -0.1110
15142TIP3    H166841   1.394   3.613  14.320 -0.0397  1.3711  0.2218
15142TIP3    H266842   1.264   3.689  14.334 -1.0556 -0.1369 -0.8710
15143TIP3   OH266843   5.348   0.286  15.957 -0.0673 -0.1231  0.4118
15143TIP3    H166844   5.273   0.284  16.017 -0.5703  0.8299 -0.1732
15143TIP3    H266845   5.312   0.321  15.876  0.5230 -1.7954 -0.5769
15144TIP3   OH266846   2.528   0.111   4.995 -0.1770 -0.1277  0.3336
15144TIP3    H166847   2.465   0.096   5.066 -1.0571 -0.6774 -0.5624
15144TIP3    H266848   2.480   0.091   4.915  1.1500 -0.6064 -0.3570
15145TIP3   OH266849   4.859   1.691  11.024 -0.1098 -0.5516  0.0610
15145TIP3    H166850   4.885   1.637  10.949 -0.5620 -0.6741 -0.0089
15145TIP3    H266851   4.774   1.656  11.051 -0.0701 -0.3384  0.4667
15146TIP3   OH266852   4.536   6.701  11.127  0.1865  0.0167 -0.8429
15146TIP3    H166853   4.608   6.743  11.174  1.9313 -2.6467 -1.0234
15146TIP3    H266854   4.457   6.739  11.166  1.6248  0.2160  2.0675
15147TIP3   OH266855   1.910   1.219  11.583  0.8384  0.0774  0.2935
15147TIP3    H166856   1.921   1.313  11.594  1.5952 -0.0403  0.5665
15147TIP3    H266857   1.919   1.183  11.672 -1.3406 -0.0688  0.4757
15148TIP3   OH266858   0.887   3.176  10.973 -0.3691 -0.0931 -0.5660
15148TIP3    H166859   0.979   3.153  10.961  0.5293  2.2035  1.5136
15148TIP3    H266860   0.878   3.193  11.067 -2.2477  2.4849 -1.1534
15149TIP3   OH266861   4.665   3.120   2.264  0.3255 -0.2078  0.1322
15149TIP3    H166862   4.597   3.182   2.288 -0.0821 -0.1307 -1.2160
15149TIP3    H266863   4.651   3.102   2.171  0.6870 -1.9980  0.3913
15150TIP3   OH266864   3.208   5.351  11.181 -0.0837 -0.6481 -0.1144
15150TIP3    H166865   3.300   5.334  11.161 -0.3156 -0.1659 -1.6425
15150TIP3    H266866   3.207   5.368  11.276  1.5574  0.3502 -0.2581
15151TIP3   OH266867   1.997   4.157   1.326 -0.1627 -0.1301 -0.4140
15151TIP3    H166868   1.952   4.138   1.244  0.7032  0.3455 -1.0039
15151TIP3    H266869   2.088   4.168   1.302 -0.0310  0.8911  0.4863
15152TIP3   OH266870   2.621   0.575  16.824 -0.0181 -0.4414 -0.8033
15152TIP3    H166871   2.650   0.555  16.913  1.9816  0.9311 -1.1065
15152TIP3    H266872   2.608   0.669  16.824 -0.7745 -0.5428 -1.7650
15153TIP3   OH266873   6.106   2.063  12.582 -0.3599  0.1187 -0.2076
15153TIP3    H166874   6.034   2.120  12.558  0.7519  1.2327 -0.9364
15153TIP3    H266875   6.102   2.058  12.678 -0.5086  1.3559 -0.1465
15154TIP3   OH266876   1.658   1.835  16.281  0.7617  0.1471 -1.0107
15154TIP3    H166877   1.585   1.827  16.220  0.9644  1.5910 -1.4699
15154TIP3    H266878   1.619   1.873  16.360  1.1292  1.6394 -1.5250
15155TIP3   OH266879   2.877   2.935   6.544 -0.1472 -0.2117 -0.3771
15155TIP3    H166880   2.855   2.943   6.637  0.1647 -1.5509 -0.1819
15155TIP3    H266881   2.795   2.952   6.499 -0.7322 -1.4101  0.2131
15156TIP3   OH266882   4.016   4.607  16.440  0.5495  0.0007 -0.5617
15156TIP3    H166883   4.018   4.672  16.510  0.8730 -0.3143 -0.2775
15156TIP3    H266884   3.926   4.575  16.438  0.7823 -0.7383  0.4035
15157TIP3   OH266885   3.160   4.986  13.256  0.6032  0.4813  0.2463
15157TIP3    H166886   3.164   4.894  13.233 -1.9239  0.1999  0.7143
15157TIP3    H266887   3.148   5.031  13.172 -1.9945  0.0167  0.3185
15158TIP3   OH266888   2.836   1.828  14.121  0.4743 -0.2523  0.4639
15158TIP3    H166889   2.886   1.752  14.152  1.0120  0.2437  0.8161
15158TIP3    H266890   2.783   1.855  14.195 -0.7483 -1.1244 -0.0858
15159TIP3   OH266891   3.668   1.551  14.665 -0.1575  0.5719 -0.2483
15159TIP3    H166892   3.636   1.616  14.603 -0.4560  0.9279  0.2677
15159TIP3    H266893   3.754   1.525  14.632  0.8578  2.7330  0.6532
15160TIP3   OH266894   2.578   4.044   2.328 -0.2165  0.7667 -0.2231
15160TIP3    H166895   2.534   3.967   2.292 -1.7281  2.2094 -1.5753
15160TIP3    H266896   2.665   4.043   2.289  0.0625 -0.6457  0.3793
15161TIP3   OH266897   3.508   0.214  14.140 -0.2926  0.3793 -0.3124
15161TIP3    H166898   3.465   0.249  14.218 -2.1083 -0.5555 -0.8645
15161TIP3    H266899   3.595   0.186  14.171 -0.9862  0.0286  1.3716
15162TIP3   OH266900   6.113   6.628  12.854  0.2226 -0.2016 -0.1758
15162TIP3    H166901   6.098   6.722  12.855  1.7580  0.1069 -2.2504
15162TIP3    H266902   6.074   6.596  12.935 -1.6241  2.0105 -0.1460
15163TIP3   OH266903   0.357   5.411   3.906  0.4320 -0.0191  0.9757
15163TIP3    H166904   0.263   5.430   3.898  0.1666 -0.6303  2.3899
15163TIP3    H266905   0.393   5.485   3.955  0.7423  0.3647  0.1630
15164TIP3   OH266906   1.095   6.387  14.372 -0.1635 -0.0339 -0.1033
15164TIP3    H166907   1.102   6.437  14.290 -1.4873 -0.2229 -0.3564
15164TIP3    H266908   1.132   6.445  14.439  0.1762  0.4641 -0.7161
15165TIP3   OH266909   0.349   1.654  17.096 -0.1554  0.1265 -0.7702
15165TIP3    H166910   0.329   1.645  17.003  0.4434  0.6088 -0.9464
15165TIP3    H266911   0.288   1.594  17.139 -1.6313  1.1716 -1.3436
15166TIP3   OH266912   3.167   6.582   5.688 -0.0111  0.4500 -0.0835
15166TIP3    H166913   3.165   6.537   5.773  0.8450 -0.2523 -0.4313
15166TIP3    H266914   3.257   6.611   5.678  0.5052 -1.6561 -1.8830
15167TIP3   OH266915   6.188   0.295  11.981  0.7855 -0.3716 -0.1792
15167TIP3    H166916   6.181   0.268  12.073 -0.0692 -0.8258 -0.3790
15167TIP3    H266917   6.207   0.214  11.934  1.0179 -0.1701 -0.4336
15168TIP3   OH266918   5.319   3.226  15.329 -0.2578  0.5030  0.6011
15168TIP3    H166919   5.233   3.256  15.299 -0.9311 -2.7732 -0.9549
15168TIP3    H266920   5.304   3.189  15.415 -0.2686  0.5514  0.6203
15169TIP3   OH266921   4.400   3.066   5.233 -0.1463  0.2280  0.3442
15169TIP3    H166922   4.426   3.010   5.306 -1.3670  0.2489  0.7960
15169TIP3    H266923   4.305   3.072   5.239 -0.4598 -1.2359 -2.3048
15170TIP3   OH266924   3.336   5.638  11.269 -0.3464 -0.3661 -0.3612
15170TIP3    H166925   3.302   5.623  11.181  0.5906 -1.3195 -0.5669
15170TIP3    H266926   3.384   5.721  11.262  0.1079 -0.6716 -0.8545
15171TIP3   OH266927   4.233   4.575   3.028  0.5599 -0.6880  0.0829
15171TIP3    H166928   4.313   4.621   3.055 -0.0115  1.3794 -1.5529
15171TIP3    H266929   4.232   4.495   3.079  3.3622 -0.4380  0.5850
15172TIP3   OH266930   3.474   6.696   2.924 -0.1882  0.1949 -0.1680
15172TIP3    H166931   3.569   6.690   2.932 -0.0706 -1.6016 -2.4300
15172TIP3    H266932   3.441   6.614   2.960 -0.6109 -0.8661 -2.8655
15173TIP3   OH266933   5.292   0.697  13.893  0.5038 -0.8996  0.5757
15173TIP3    H166934   5.358   0.745  13.943  0.8357 -0.7760  0.0187
15173TIP3    H266935   5.300   0.731  13.804 -0.6310 -0.5426  0.5989
15174TIP3   OH266936   0.621   2.991   1.464 -0.3287  0.0857 -0.2746
15174TIP3    H166937   0.536   2.966   1.499 -0.1580  0.3331  0.3137
15174TIP3    H266938   0.602   3.028   1.378 -0.7511 -0.4604 -0.4170
15175TIP3   OH266939   5.516   5.636   3.491  0.4949  0.1647  0.4975
15175TIP3    H166940   5.582   5.577   3.456 -0.5915 -0.7893  0.0383
15175TIP3    H266941   5.489   5.596   3.574  0.2723  0.3992  0.5413
15176TIP3   OH266942   4.956   3.377  11.115  0.2811  0.0156  0.0572
15176TIP3    H166943   4.914   3.293  11.129 -1.3526  0.7868 -0.1314
15176TIP3    H266944   4.945   3.394  11.022  1.8581 -0.2094 -0.1820
15177TIP3   OH266945   2.810   1.083  13.565 -0.0084 -0.1694 -0.5790
15177TIP3    H166946   2.851   1.028  13.631 -0.1973  1.2398  0.7448
15177TIP3    H266947   2.846   1.052  13.481  0.2552 -1.9379  0.1859
15178TIP3   OH266948   4.812   2.215   3.819  0.1393  0.1984 -0.2796
15178TIP3    H166949   4.786   2.127   3.792  1.6068 -0.3680  0.1128
15178TIP3    H266950   4.734   2.252   3.861 -0.3727 -1.0385 -0.1449
15179TIP3   OH266951   2.671   6.497  10.800  0.4417 -0.1475 -0.2097
15179TIP3    H166952   2.644   6.544  10.879  1.5187 -1.0399  0.7092
15179TIP3    H266953   2.589   6.477  10.754 -0.3011 -0.9274  1.4330
15180TIP3   OH266954   1.663   0.514   2.896  0.2393  0.4329 -0.0152
15180TIP3    H166955   1.578   0.536   2.856 -0.8440 -1.4132  1.1978
15180TIP3    H266956   1.723   0.510   2.822 -1.3386 -1.0014 -1.2755
15181TIP3   OH266957   4.932   1.881   1.947  0.6346 -0.1863 -0.0336
15181TIP3    H166958   4.846   1.868   1.988  1.3599 -1.8659  0.9769
15181TIP3    H266959   4.944   1.805   1.891  1.3858  0.1415 -0.3259
15182TIP3   OH266960   6.146   2.141  16.423 -0.1798 -0.3093  0.0729
15182TIP3    H166961   6.168   2.218  16.477  1.4103  1.5944 -3.1451
15182TIP3    H266962   6.107   2.178  16.344  0.6972 -2.8083 -1.5673
15183TIP3   OH266963   4.841   2.358  16.512 -0.0029 -0.1262  0.1213
15183TIP3    H166964   4.826   2.276  16.559 -2.5456  0.8391  1.1284
15183TIP3    H266965   4.763   2.411  16.531  0.8914  1.9533 -1.7171
15184TIP3   OH266966   2.691   2.100   2.691  0.1146 -0.5530 -0.0723
15184TIP3    H166967   2.768   2.112   2.746 -1.1420  0.1056  1.5716
15184TIP3    H266968   2.640   2.180   2.703 -1.5707 -1.6177  0.0614
15185TIP3   OH266969   3.244   1.886   2.065  0.1695 -0.5584 -0.0924
15185TIP3    H166970   3.334   1.903   2.096 -0.1239  1.9010 -0.5206
15185TIP3    H266971   3.243   1.793   2.045  2.2214 -0.9135  1.3100
15186TIP3   OH266972   5.250   0.239  13.550  0.0238  0.3584 -0.7761
15186TIP3    H166973   5.255   0.316  13.607  1.1855  0.0591 -0.4622
15186TIP3    H266974   5.331   0.191  13.568 -0.5564 -0.7784 -1.1958
15187TIP3   OH266975   3.556   5.587  13.993 -0.5137  0.2101  0.5222
15187TIP3    H166976   3.526   5.540  14.071 -2.1218 -0.4028 -0.4444
15187TIP3    H266977   3.585   5.518  13.933 -0.0915  0.6294  0.2444
15188TIP3   OH266978   4.324   4.476   0.994  0.8178  0.4807  0.1779
15188TIP3    H166979   4.304   4.428   0.914 -0.6633 -0.6200  1.1748
15188TIP3    H266980   4.337   4.567   0.966  1.8400 -0.1654 -1.4956
15189TIP3   OH266981   5.912   1.746   5.845  0.3740 -0.1665 -0.0924
15189TIP3    H166982   5.873   1.660   5.830  0.0921 -0.0360 -0.1239
15189TIP3    H266983   6.006   1.731   5.847  0.3152 -0.5100  0.1179
15190TIP3   OH266984   3.084   3.049   1.694 -0.0463  0.5479  0.1970
15190TIP3    H166985   3.072   3.040   1.788 -0.8235  1.3397  0.1775
15190TIP3    H266986   3.032   2.978   1.656 -1.1832  1.3249  0.2926
15191TIP3   OH266987   6.344   6.203  13.859  0.1039 -0.5345  0.4978
15191TIP3    H166988   6.285   6.256  13.806  0.3841  2.9047  3.4494
15191TIP3    H266989   6.301   6.198  13.945  1.9377 -1.8310  1.3750
15192TIP3   OH266990   2.737   1.524  16.591 -0.2193 -0.0086  0.4959
15192TIP3    H166991   2.784   1.490  16.515  2.2004  1.5134  1.2657
15192TIP3    H266992   2.791   1.500  16.666 -2.3007 -1.0099  1.7112
15193TIP3   OH266993   0.942   5.728  11.078  0.1050 -0.0765  0.2544
15193TIP3    H166994   0.964   5.761  10.991  0.5593 -2.8549 -0.7175
15193TIP3    H266995   0.850   5.753  11.090  0.5612  1.9328 -0.2191
15194TIP3   OH266996   6.432   4.135   5.571 -0.1101  0.6769 -0.3043
15194TIP3    H166997   6.394   4.095   5.650  1.1407 -0.1881 -0.1173
15194TIP3    H266998   6.436   4.063   5.508  1.8440  0.5786 -0.0817
15195TIP3   OH266999   2.863   4.504   2.195  0.7969 -0.3303  0.4292
15195TIP3    H167000   2.920   4.448   2.248  2.5163  0.3295 -0.6849
15195TIP3    H267001   2.836   4.447   2.123  1.0574 -0.2886  0.2958
15196TIP3   OH267002   3.758   3.529  11.014 -0.3541  0.0605  0.7104
15196TIP3    H167003   3.687   3.487  10.965 -0.9240  0.8296  0.8726
15196TIP3    H267004   3.825   3.461  11.021 -1.3713 -0.9313  1.1850
15197TIP3   OH267005   0.866   5.396  14.098  0.2450  0.3948 -0.6441
15197TIP3    H167006   0.887   5.379  14.190 -0.4985 -2.1687 -0.9128
15197TIP3    H267007   0.832   5.486  14.097 -1.0978 -0.0465  1.8043
15198TIP3   OH267008   4.696   0.310   6.588 -0.2669  0.2107 -0.0930
15198TIP3    H167009   4.751   0.379   6.553 -1.9254  1.3092 -0.5949
15198TIP3    H267010   4.655   0.349   6.666 -1.6558  0.0140 -0.7031
15199TIP3   OH267011   6.118   0.417   1.305 -0.0140 -0.2113 -0.0803
15199TIP3    H167012   6.167   0.424   1.223  0.4421 -2.5822 -0.0622
15199TIP3    H267013   6.185   0.422   1.373 -0.5969  4.0077  0.3356
15200TIP3   OH267014   5.085   5.520   0.977 -0.4863  0.0365 -0.0031
15200TIP3    H167015   5.037   5.567   1.044 -0.3647  0.8452 -0.4847
15200TIP3    H267016   5.150   5.582   0.945  0.8273 -0.9991  0.5660
15201TIP3   OH267017   1.901   2.312  15.600  0.1099 -0.0889  0.2437
15201TIP3    H167018   1.819   2.262  15.594  0.4689 -0.7188  0.6091
15201TIP3    H267019   1.955   2.264  15.662 -0.2792  1.8190  2.1141
15202TIP3   OH267020   1.863   4.558   0.439 -0.2705  0.2070  0.0171
15202TIP3    H167021   1.944   4.580   0.392 -0.2360  0.3751  0.1568
15202TIP3    H267022   1.887   4.561   0.531 -0.1555 -0.8496  0.0245
15203TIP3   OH267023   2.361   6.149   4.073 -0.2471 -0.2298 -0.4938
15203TIP3    H167024   2.367   6.078   4.008 -2.5384  0.4843 -1.5504
15203TIP3    H267025   2.270   6.148   4.101  0.0775  1.2786  0.6767
15204TIP3   OH267026   2.760   4.240   1.169 -0.4400 -0.0777  0.0928
15204TIP3    H167027   2.695   4.295   1.212 -0.2458  1.0080 -0.9836
15204TIP3    H267028   2.713   4.200   1.096  0.2020  1.0548 -0.9535
15205TIP3   OH267029   3.997   1.954  11.186  0.2341  0.0413  0.0443
15205TIP3    H167030   4.091   1.969  11.180  0.1818  0.1332 -0.6659
15205TIP3    H267031   3.958   2.040  11.166 -0.0173 -0.2700 -0.8143
15206TIP3   OH267032   4.279   0.643   2.656 -0.1203  0.0897  0.0938
15206TIP3    H167033   4.368   0.641   2.690 -0.2713 -1.8071  0.4638
15206TIP3    H267034   4.229   0.693   2.720  0.6860  1.1625 -0.1244
15207TIP3   OH267035   5.047   4.742   3.303 -1.0930  0.4321 -0.3626
15207TIP3    H167036   5.054   4.780   3.391  1.4328 -0.5984 -0.0757
15207TIP3    H267037   5.132   4.702   3.288 -2.2505 -1.3449 -2.4065
15208TIP3   OH267038   4.378   1.382   6.278  0.4838  0.3279  0.0015
15208TIP3    H167039   4.411   1.472   6.278 -0.4426  0.6899  1.4169
15208TIP3    H267040   4.341   1.370   6.366 -0.5097 -1.0264 -0.5836
15209TIP3   OH267041   4.081   2.645   2.480 -0.0255  0.2322  0.2011
15209TIP3    H167042   3.997   2.652   2.434 -0.1002 -2.1989 -0.1206
15209TIP3    H267043   4.106   2.553   2.469  2.1462  0.6754  1.2374
15210TIP3   OH267044   5.144   3.952  14.891  0.4508  0.2531  0.5335
15210TIP3    H167045   5.110   3.875  14.937 -0.8036 -0.0927 -0.9095
15210TIP3    H267046   5.197   3.998  14.956  1.4183 -1.9554  1.3454
15211TIP3   OH267047   3.767   6.266  15.315  0.2174 -0.0653  0.4833
15211TIP3    H167048   3.744   6.219  15.234  0.1095  0.6163  0.1212
15211TIP3    H267049   3.818   6.341  15.285 -0.6678  0.7408  0.9848
15212TIP3   OH267050   6.012   5.702  15.157  0.4744  0.2457  0.2224
15212TIP3    H167051   6.032   5.621  15.108 -0.2933  0.2592 -0.1212
15212TIP3    H267052   5.929   5.732  15.120  0.7217  1.1607  0.3990
15213TIP3   OH267053   2.366   0.227   1.769  1.0169 -0.4552 -0.0540
15213TIP3    H167054   2.384   0.314   1.736  1.4338 -0.4547  0.1745
15213TIP3    H267055   2.355   0.239   1.863  0.5322 -0.5663 -0.0925
15214TIP3   OH267056   3.834   3.215  17.051 -0.6393 -0.3168  0.3388
15214TIP3    H167057   3.846   3.299  17.095 -0.3821 -1.6357  2.9024
15214TIP3    H267058   3.922   3.188  17.027 -0.7792  0.4015 -1.0241
15215TIP3   OH267059   5.140   5.585  11.094  0.2835 -0.1739  0.1849
15215TIP3    H167060   5.198   5.660  11.085  2.5846 -1.8727  0.3515
15215TIP3    H267061   5.102   5.593  11.181  0.4625  0.7988  0.1769
15216TIP3   OH267062   0.330   0.108   4.898  0.3348 -0.4906 -0.2614
15216TIP3    H167063   0.253   0.071   4.855  0.4243  1.1264 -1.8620
15216TIP3    H267064   0.400   0.044   4.881 -0.4856 -1.6734  0.6961
15217TIP3   OH267065   6.571   5.796   1.134  0.0101  0.2022  0.2767
15217TIP3    H167066   6.654   5.755   1.159  0.1298 -0.8015 -1.6486
15217TIP3    H267067   6.507   5.761   1.196  0.8007  0.0458  1.0124
15218TIP3   OH267068   0.376   1.140  15.081 -0.3505 -0.3085 -0.3098
15218TIP3    H167069   0.427   1.077  15.031  0.3286 -0.7616  0.9166
15218TIP3    H267070   0.386   1.222  15.033  0.0477 -0.7908 -1.0668
15219TIP3   OH267071   3.374   0.445  11.375  0.5240 -0.9288 -0.2708
15219TIP3    H167072   3.410   0.494  11.449  1.6512 -1.0029 -0.7753
15219TIP3    H267073   3.428   0.470  11.300 -0.4234 -1.0870 -1.0197
15220TIP3   OH267074   0.243   3.278  12.065  0.6473  0.0072 -0.1413
15220TIP3    H167075   0.267   3.357  12.114 -1.7977  0.8616 -0.2611
15220TIP3    H267076   0.310   3.271  11.997  2.5962  0.2735  1.6798
15221TIP3   OH267077   1.982   5.475   1.415  0.2776 -0.3999  0.1539
15221TIP3    H167078   1.954   5.401   1.469  0.5410  0.1482  1.0603
15221TIP3    H267079   1.920   5.545   1.436  0.7553  0.0097  0.2116
15222TIP3   OH267080   1.737   5.073   4.776 -0.7654  0.0430 -0.3798
15222TIP3    H167081   1.785   5.111   4.702 -0.0233 -1.4384 -0.6655
15222TIP3    H267082   1.760   4.980   4.774 -0.9073 -0.0358  1.5929
15223TIP3   OH267083   5.104   3.712  14.541  0.3925 -0.7268 -0.8171
15223TIP3    H167084   5.042   3.784  14.548  1.1997  0.1281 -2.1405
15223TIP3    H267085   5.107   3.674  14.628  0.0068  0.8918 -0.0801
15224TIP3   OH267086   3.258   2.093   4.848  0.4479  0.3199  0.0591
15224TIP3    H167087   3.172   2.108   4.808  0.4640 -1.0103 -0.5282
15224TIP3    H267088   3.253   2.136   4.933 -0.8246  0.2393  0.0391
15225TIP3   OH267089   5.312   2.427   2.697 -0.0932  0.5257 -0.8538
15225TIP3    H167090   5.253   2.472   2.637 -0.2786  0.3432 -0.8103
15225TIP3    H267091   5.390   2.483   2.702 -0.2028  0.6916 -1.0260
15226TIP3   OH267092   2.783   0.756  12.761 -0.4698 -0.5456  0.4520
15226TIP3    H167093   2.829   0.788  12.683 -0.7118 -0.0193  0.5214
15226TIP3    H267094   2.841   0.689  12.796 -0.9422 -1.6749 -0.8877
15227TIP3   OH267095   0.053   3.500  13.927 -0.4566  0.1906  0.4987
15227TIP3    H167096   0.118   3.451  13.978 -0.8580  1.1037  1.9173
15227TIP3    H267097  -0.018   3.437  13.913  0.6772 -0.7847 -0.9838
15228TIP3   OH267098   1.609   4.796  13.508  0.0717  0.7972  0.1646
15228TIP3    H167099   1.549   4.822  13.438 -1.1249  0.8066  1.1736
15228TIP3    H267100   1.672   4.738  13.465  0.2012  1.9155 -1.2084
15229TIP3   OH267101   4.318   1.178   6.921 -0.2825  0.6186 -0.1441
15229TIP3    H167102   4.228   1.206   6.905 -0.1811  1.5281  0.8639
15229TIP3    H267103   4.371   1.254   6.898  0.4347 -0.7040 -3.1314
15230TIP3   OH267104   6.136   2.925  13.601  0.2388  0.1729  0.3596
15230TIP3    H167105   6.157   2.933  13.508 -0.3552 -1.0503  0.1001
15230TIP3    H267106   6.040   2.924  13.603  0.2437  0.5270  1.0257
15231TIP3   OH267107   2.004   3.469   0.414  0.3089  0.1637 -0.3375
15231TIP3    H167108   2.000   3.458   0.509 -2.7179 -0.7884 -0.5415
15231TIP3    H267109   2.005   3.564   0.400 -1.0959  0.3196  0.5883
15232TIP3   OH267110   1.064   1.163   1.460 -0.3370 -0.2746  0.5902
15232TIP3    H167111   1.121   1.234   1.429 -1.4937  2.3034  4.0381
15232TIP3    H267112   1.023   1.130   1.381  2.0371  1.2907 -1.3930
15233TIP3   OH267113   3.914   2.766  16.109 -0.2097 -0.2003 -0.0768
15233TIP3    H167114   3.904   2.690  16.167 -3.0338  0.8259  0.8619
15233TIP3    H267115   3.862   2.745  16.032  1.5355 -0.5040 -1.2023
15234TIP3   OH267116   1.423   3.356  11.377 -0.2870 -0.6149 -0.5898
15234TIP3    H167117   1.393   3.436  11.421  1.9998  0.3916 -0.7798
15234TIP3    H267118   1.375   3.285  11.419 -1.6870  0.7721  0.1981
15235TIP3   OH267119   1.448   5.789   0.066 -0.0308 -0.5399 -0.0233
15235TIP3    H167120   1.352   5.783   0.063 -0.1276 -0.5062  2.3565
15235TIP3    H267121   1.475   5.717   0.122  1.0172  1.8512  2.6888
15236TIP3   OH267122   1.321   2.077   3.208 -0.0722  1.1171 -0.1340
15236TIP3    H167123   1.251   2.093   3.272 -0.9137 -0.6969 -0.5768
15236TIP3    H267124   1.278   2.081   3.123  0.5169  0.7603 -0.4517
15237TIP3   OH267125   6.025   0.152  11.701 -0.4137  0.2369  0.5944
15237TIP3    H167126   5.996   0.063  11.682  1.7040 -0.3657  0.0417
15237TIP3    H267127   6.085   0.143  11.775  0.8132  1.0179 -0.2752
15238TIP3   OH267128   1.349   0.773  16.774 -0.1405  0.8372 -0.7239
15238TIP3    H167129   1.283   0.749  16.710 -0.7040  0.6729 -0.0813
15238TIP3    H267130   1.430   0.734  16.740 -0.3035  1.3049 -1.6741
15239TIP3   OH267131   5.388   5.046   4.368 -0.1973  0.0573  0.3738
15239TIP3    H167132   5.321   5.046   4.437 -0.6098  0.0342 -0.0222
15239TIP3    H267133   5.399   4.953   4.346  0.1684  0.0375  0.6297
15240TIP3   OH267134   4.829   1.588   0.799  0.5334 -0.1751 -0.6909
15240TIP3    H167135   4.805   1.662   0.742 -3.4178 -0.0295  1.0032
15240TIP3    H267136   4.758   1.525   0.788  1.1529 -1.3951  1.8834
15241TIP3   OH267137   4.322   5.670   3.944 -0.5174  0.0152 -0.1978
15241TIP3    H167138   4.284   5.686   4.031  0.9093 -0.4036  0.5181
15241TIP3    H267139   4.413   5.695   3.953 -0.5435  0.7220 -1.8250
15242TIP3   OH267140   0.335   4.009   1.050 -0.0239  0.3012  0.6749
15242TIP3    H167141   0.378   3.930   1.017 -1.9093 -0.7885  0.6989
15242TIP3    H267142   0.370   4.021   1.138 -0.0191 -0.7611  0.8213
15243TIP3   OH267143   6.206   1.828  11.247 -0.3899 -0.4767  0.1622
15243TIP3    H167144   6.121   1.849  11.286 -1.0599  1.3641 -2.2312
15243TIP3    H267145   6.268   1.883  11.294 -0.9792  0.6014 -0.3170
15244TIP3   OH267146   0.791   5.597  15.655  0.2400 -0.5523 -0.2166
15244TIP3    H167147   0.769   5.566  15.567  1.8049  0.6219 -1.0360
15244TIP3    H267148   0.766   5.689  15.656  4.0201  0.5674 -0.8481
15245TIP3   OH267149   5.634   5.188   4.751 -0.7407  0.0679 -0.3166
15245TIP3    H167150   5.614   5.098   4.723 -2.7481  0.8025 -1.3289
15245TIP3    H267151   5.690   5.223   4.683  1.4753 -0.9468  0.9293
15246TIP3   OH267152   6.662   3.987  15.356 -0.2502 -0.0013  0.0661
15246TIP3    H167153   6.579   4.026  15.330 -0.8282 -1.5068 -0.3677
15246TIP3    H267154   6.727   4.031  15.301 -1.0554 -0.6160 -1.4045
15247TIP3   OH267155   2.407   4.138   1.377  0.0183 -0.1803 -0.1637
15247TIP3    H167156   2.438   4.228   1.367 -0.1832  0.3714  3.3985
15247TIP3    H267157   2.486   4.086   1.382  0.1358 -0.2423 -2.3742
15248TIP3   OH267158   5.079   3.021  10.827  0.2558 -0.1295 -0.9641
15248TIP3    H167159   5.008   2.960  10.807  0.0173  0.0693 -0.7368
15248TIP3    H267160   5.100   3.060  10.742 -1.3132  1.3065 -0.7345
15249TIP3   OH267161   2.252   5.482  13.672  0.2613 -0.3364  0.6047
15249TIP3    H167162   2.185   5.418  13.692 -0.7501 -0.0787 -1.7716
15249TIP3    H267163   2.204   5.555  13.633  1.5910  1.1464  1.6855
15250TIP3   OH267164   5.963   3.967   4.959  0.1389 -0.4206  0.0222
15250TIP3    H167165   5.964   3.951   5.053  2.3177  0.0286  0.1201
15250TIP3    H267166   5.924   3.888   4.921  0.8313 -1.3525  1.1970
15251TIP3   OH267167   4.741   1.021  11.642 -0.1715  0.2172  0.3863
15251TIP3    H167168   4.725   0.937  11.598  0.1535 -0.2959  1.2319
15251TIP3    H267169   4.770   1.080  11.572 -0.4408 -0.3654 -0.2193
15252TIP3   OH267170   4.072   6.594  14.050  0.5981 -0.4602  0.4569
15252TIP3    H167171   4.015   6.661  14.088 -0.1683 -0.8093 -0.0720
15252TIP3    H267172   4.136   6.576  14.119  0.0189 -0.1340  1.0904
15253TIP3   OH267173   6.260   4.650   2.654  0.1126  1.1724  0.5159
15253TIP3    H167174   6.249   4.583   2.721 -1.1223 -0.7634 -1.5463
15253TIP3    H267175   6.328   4.616   2.596 -3.1826 -0.2336 -2.7395
15254TIP3   OH267176   3.741   4.090   4.100  0.4446 -0.6489 -0.1031
15254TIP3    H167177   3.730   4.042   4.017 -1.0230 -0.9651  0.2605
15254TIP3    H267178   3.779   4.174   4.074  0.6977 -1.0373 -1.0170
15255TIP3   OH267179   6.129   6.114   2.503  0.2026  0.5420  0.0464
15255TIP3    H167180   6.082   6.071   2.431  2.9694 -1.0873 -0.8616
15255TIP3    H267181   6.217   6.128   2.469  0.5033  3.2436  1.8173
15256TIP3   OH267182   4.407   5.086   4.372 -0.0181  0.0306 -0.2772
15256TIP3    H167183   4.421   5.084   4.277 -0.9546  3.5792 -0.5608
15256TIP3    H267184   4.473   5.147   4.405 -2.2763  1.9768  0.8022
15257TIP3   OH267185   5.446   3.151  16.214  0.8022  0.1676  0.0623
15257TIP3    H167186   5.462   3.232  16.165 -0.2624 -0.5634 -1.5541
15257TIP3    H267187   5.375   3.173  16.275  1.6826  0.9077  0.8236
15258TIP3   OH267188   5.714   0.948   0.151  0.4181 -0.2036 -0.1039
15258TIP3    H167189   5.666   1.030   0.165  0.7812 -0.3456  2.0592
15258TIP3    H267190   5.645   0.883   0.139  0.1192  0.2862 -1.1295
15259TIP3   OH267191   4.166   1.424   4.271 -0.5227  0.1439  0.3967
15259TIP3    H167192   4.193   1.336   4.296 -0.9683  0.0416  0.5339
15259TIP3    H267193   4.174   1.476   4.351 -0.5768  0.1502  0.3982
15260TIP3   OH267194   4.876   3.484   1.117 -0.7882 -0.5169  0.0286
15260TIP3    H167195   4.912   3.475   1.029 -1.1854 -2.2773  0.0354
15260TIP3    H267196   4.945   3.529   1.166 -0.5063  0.3404 -1.1363
15261TIP3   OH267197   1.578   1.679   5.721 -0.2151  0.0467  0.1447
15261TIP3    H167198   1.601   1.716   5.806 -0.6857  1.7889 -0.4520
15261TIP3    H267199   1.566   1.756   5.664  0.4276 -1.0893 -1.5804
15262TIP3   OH267200   0.071   6.610   5.578  0.8051  0.2322 -0.3063
15262TIP3    H167201   0.005   6.622   5.510  1.6083 -1.2227 -1.3541
15262TIP3    H267202   0.122   6.691   5.576  0.1580  0.6355 -0.6941
15263TIP3   OH267203   2.415   0.561   0.666  0.0178  0.0762  0.1571
15263TIP3    H167204   2.407   0.535   0.574  1.1105  1.8799 -0.4785
15263TIP3    H267205   2.507   0.586   0.676 -0.0286 -0.3437  1.8194
15264TIP3   OH267206   1.897   1.722  16.198  0.7437 -0.4044 -0.0349
15264TIP3    H167207   1.840   1.777  16.251 -2.2559 -0.8933 -2.6385
15264TIP3    H267208   1.947   1.784  16.144 -0.0257 -0.1173 -0.4138
15265TIP3   OH267209   5.930   4.654  15.276 -0.0988 -0.1188  0.1108
15265TIP3    H167210   5.919   4.595  15.350 -3.6985  1.2901  0.8094
15265TIP3    H267211   6.021   4.683  15.281  1.2267 -4.1564  0.7801
15266TIP3   OH267212   0.941   3.073   1.864 -0.1234  0.6434  0.1539
15266TIP3    H167213   0.895   3.013   1.806 -1.2406  0.7298  0.9214
15266TIP3    H267214   0.920   3.160   1.830  2.6414  0.5876 -1.8005
15267TIP3   OH267215   3.331   3.773   5.994 -0.2809 -0.6654  0.3971
15267TIP3    H167216   3.304   3.681   5.992 -0.6044 -0.5565 -0.7730
15267TIP3    H267217   3.300   3.805   6.078  0.0395 -1.6836  0.9202
15268TIP3   OH267218   0.260   2.131  14.268 -0.3635  0.3005 -0.0467
15268TIP3    H167219   0.214   2.213  14.247  0.5279  0.4221 -1.5389
15268TIP3    H267220   0.347   2.141  14.229  0.6502 -0.3031  2.0025
15269TIP3   OH267221   2.701   5.700   0.124  0.3766 -0.9664 -0.7090
15269TIP3    H167222   2.672   5.647   0.198  0.2898  0.2292  0.1148
15269TIP3    H267223   2.663   5.786   0.139  0.6411 -0.6127 -1.9688
15270TIP3   OH267224   5.726   0.525  15.110  0.1993 -0.3071  0.3686
15270TIP3    H167225   5.801   0.584  15.099  0.1644 -0.4208 -0.5082
15270TIP3    H267226   5.755   0.441  15.073 -0.6979 -0.0759 -0.9068
15271TIP3   OH267227   1.809   6.416  14.684 -0.0837 -0.5699  0.5904
15271TIP3    H167228   1.731   6.373  14.648 -0.0118 -0.5245  0.3822
15271TIP3    H267229   1.862   6.345  14.719 -0.3416 -0.5770  0.9672
15272TIP3   OH267230   6.709   6.519   2.237  0.0015  0.0880  0.7681
15272TIP3    H167231   6.668   6.438   2.206  2.7643 -0.4053 -1.8925
15272TIP3    H267232   6.716   6.507   2.332 -1.1048 -2.0688  0.6202
15273TIP3   OH267233   3.914   2.967   1.286 -0.2679  0.1132  0.7456
15273TIP3    H167234   3.858   2.900   1.325 -0.5606 -0.5850 -0.8457
15273TIP3    H267235   4.003   2.930   1.294 -0.5979 -1.3779 -1.8301
15274TIP3   OH267236   3.177   6.094  10.633  0.3599 -0.1239  0.3837
15274TIP3    H167237   3.257   6.098  10.684  0.3439 -0.6531  0.4531
15274TIP3    H267238   3.194   6.149  10.557  1.3102 -1.3340 -0.3122
15275TIP3   OH267239   6.514   6.477  16.551  0.1271  0.1041 -0.7496
15275TIP3    H167240   6.590   6.502  16.498  0.9453  2.5538  1.4763
15275TIP3    H267241   6.483   6.559  16.588 -3.0233 -1.0089 -0.7831
15276TIP3   OH267242   5.305   4.461   4.497  0.0309 -0.0793  0.2819
15276TIP3    H167243   5.229   4.494   4.546 -3.0666 -3.6414 -1.8488
15276TIP3    H267244   5.282   4.476   4.406  1.5155 -2.0341 -0.4330
15277TIP3   OH267245   3.534   1.717   4.388  0.2316  0.0075  0.1464
15277TIP3    H167246   3.523   1.703   4.482 -1.7444  1.9154  0.2319
15277TIP3    H267247   3.579   1.802   4.382 -0.3069  0.2441 -0.6340
15278TIP3   OH267248   4.603   0.085   1.603 -0.3498  0.3925  0.7546
15278TIP3    H167249   4.610   0.065   1.509 -1.1318  0.8917  0.5817
15278TIP3    H267250   4.571   0.175   1.605 -1.1592  0.0963  1.4952
15279TIP3   OH267251   4.835   1.222   3.513  0.0804 -0.2463 -0.7615
15279TIP3    H167252   4.874   1.299   3.555  2.4756 -1.8902  0.1166
15279TIP3    H267253   4.863   1.227   3.422 -0.0903  0.0948 -0.7987
15280TIP3   OH267254   1.600   5.857   1.348 -0.1362  0.1051 -0.0802
15280TIP3    H167255   1.606   5.940   1.394 -0.6345  0.3734 -0.4871
15280TIP3    H267256   1.517   5.862   1.300  0.0726 -0.4185 -0.5100
15281TIP3   OH267257   6.632   2.116  12.945 -0.0344  0.1798 -0.2337
15281TIP3    H167258   6.596   2.069  12.870  0.6215 -2.5763  1.0877
15281TIP3    H267259   6.587   2.078  13.021  0.4158  1.8076  0.8785
15282TIP3   OH267260   2.292   4.907   0.143  0.1838  0.3323  0.3435
15282TIP3    H167261   2.365   4.968   0.129  0.6160  0.0393  1.2685
15282TIP3    H267262   2.278   4.866   0.057  1.3054  0.1836  0.2187
15283TIP3   OH267263   4.935   0.103  13.549  0.3764  0.7118  1.0764
15283TIP3    H167264   5.008   0.158  13.577  1.1603  0.3946 -0.2996
15283TIP3    H267265   4.958   0.015  13.578  1.1597  0.3935 -0.4431
15284TIP3   OH267266   0.447   1.302  17.014 -0.1548  0.1327 -0.4263
15284TIP3    H167267   0.360   1.272  16.987 -0.1557 -0.6304  0.3900
15284TIP3    H267268   0.496   1.221  17.030  0.1667  0.5588  0.8197
15285TIP3   OH267269   2.266   2.438  13.509  0.5433  0.2391 -0.8161
15285TIP3    H167270   2.198   2.506  13.515  0.0116 -0.3081 -0.6283
15285TIP3    H267271   2.343   2.484  13.476  1.0709  1.5875  2.1354
15286TIP3   OH267272   4.009   4.231  15.480 -0.0431  0.6419  0.6915
15286TIP3    H167273   3.995   4.165  15.413  1.6583 -2.2677  3.0291
15286TIP3    H267274   3.924   4.242  15.522 -0.4416  0.2534 -0.0191
15287TIP3   OH267275   3.278   0.408  13.758 -0.0754 -0.4409  0.0266
15287TIP3    H167276   3.355   0.459  13.783 -0.8237  0.5814  0.2910
15287TIP3    H267277   3.206   0.446  13.809 -1.2472  0.3377 -2.1295
15288TIP3   OH267278   5.549   5.127   0.736 -0.4516 -0.2419 -0.3748
15288TIP3    H167279   5.530   5.091   0.823 -1.6310 -0.1479 -0.5798
15288TIP3    H267280   5.599   5.059   0.691 -0.5998 -0.6486  0.0706
15289TIP3   OH267281   6.749   1.533   1.060 -0.1349  0.9756 -0.2148
15289TIP3    H167282   6.655   1.548   1.074 -0.0225  0.6524  0.9064
15289TIP3    H267283   6.788   1.543   1.147  0.7241 -0.0319 -0.4762
15290TIP3   OH267284   3.489   4.780   5.817  0.4673 -0.1780  0.6593
15290TIP3    H167285   3.539   4.857   5.790 -0.6329  0.1800 -0.3769
15290TIP3    H267286   3.476   4.793   5.911 -0.1509  1.1624  0.3990
15291TIP3   OH267287   2.025   0.522  15.634 -0.3515  0.0224  0.3415
15291TIP3    H167288   1.931   0.538  15.622 -0.4161  2.1440  3.1942
15291TIP3    H267289   2.049   0.466  15.560 -3.2363  1.8658 -2.1551
15292TIP3   OH267290   6.158   2.390   3.827  0.0175  0.5291  0.1523
15292TIP3    H167291   6.157   2.420   3.737 -0.4514 -0.2342 -0.1059
15292TIP3    H267292   6.164   2.294   3.820  0.2239  0.4826  0.9253
15293TIP3   OH267293   3.802   6.084   5.642 -0.2269  0.3612 -0.3823
15293TIP3    H167294   3.849   6.168   5.633 -1.3166  1.3073  2.1411
15293TIP3    H267295   3.834   6.049   5.725  0.2432 -1.7770 -1.4471
15294TIP3   OH267296   1.406   1.469  16.313 -0.5754  0.5625  0.6039
15294TIP3    H167297   1.498   1.491  16.330 -0.1643 -1.8375  1.7705
15294TIP3    H267298   1.410   1.392  16.256 -1.7853 -1.3840  3.0637
15295TIP3   OH267299   1.781   1.057   6.608 -0.4857 -0.7093  0.8795
15295TIP3    H167300   1.780   1.034   6.701 -2.1116 -0.8465  0.8440
15295TIP3    H267301   1.753   0.977   6.563  0.3272 -0.6549  0.2632
15296TIP3   OH267302   3.139   2.179   3.817 -0.1479 -0.5428 -0.3560
15296TIP3    H167303   3.167   2.135   3.738  0.8142  0.0317 -0.3495
15296TIP3    H267304   3.211   2.168   3.878 -0.3576  0.0719  0.0186
15297TIP3   OH267305   1.189   3.743  14.533  0.3055 -0.3403 -0.6549
15297TIP3    H167306   1.239   3.687  14.593 -0.4574 -1.4245 -1.0272
15297TIP3    H267307   1.186   3.828  14.578  1.0926 -0.7025  0.1122
15298TIP3   OH267308   1.705   6.745  12.400  0.0463 -0.0608  0.9624
15298TIP3    H167309   1.703   6.732  12.494  0.2432  1.1084  1.1415
15298TIP3    H267310   1.753   6.670  12.366 -0.5507 -0.8040  1.7282
15299TIP3   OH267311   6.478   3.746   0.960 -0.3894 -0.3072 -0.1791
15299TIP3    H167312   6.418   3.672   0.971  0.0260 -0.5265  0.6826
15299TIP3    H267313   6.488   3.755   0.865  0.9467 -2.5276 -0.2861
15300TIP3   OH267314   2.787   4.654  11.244 -0.1074  0.5695  0.0975
15300TIP3    H167315   2.789   4.614  11.157  0.2624  1.0835 -0.1377
15300TIP3    H267316   2.701   4.697  11.248 -0.1034  0.5923 -0.0360
15301TIP3   OH267317   2.078   0.801  15.062  0.1413  0.2759 -0.0517
15301TIP3    H167318   2.080   0.859  15.138 -3.0769  0.9366 -0.4056
15301TIP3    H267319   2.005   0.741  15.079  0.8380 -1.0331 -1.5615
15302TIP3   OH267320   0.803   4.075   4.545 -0.1589 -0.1419 -0.5376
15302TIP3    H167321   0.890   4.086   4.584 -0.0816 -3.2931  0.3600
15302TIP3    H267322   0.742   4.098   4.615 -0.0147 -2.2033  0.2967
15303TIP3   OH267323   0.577   2.411  11.671 -0.2562  0.4218  0.3525
15303TIP3    H167324   0.523   2.458  11.606  0.2330  0.8361  0.2480
15303TIP3    H267325   0.626   2.348  11.619  0.2847  0.8895  0.2962
15304TIP3   OH267326   5.667   3.646   4.929 -0.0824 -0.1079 -0.3244
15304TIP3    H167327   5.682   3.736   4.900  1.3018  0.3117  1.5812
15304TIP3    H267328   5.572   3.640   4.942 -0.1946  1.0151 -0.5948
15305TIP3   OH267329   6.151   1.680   5.607  0.3863  0.2522  0.2020
15305TIP3    H167330   6.209   1.612   5.572  2.1880  2.2308 -0.7933
15305TIP3    H267331   6.126   1.731   5.530 -2.8514 -0.6595  0.6025
15306TIP3   OH267332   4.983   6.670  14.528  0.2756  0.6566 -0.0708
15306TIP3    H167333   4.942   6.583  14.526  0.7843  0.4116  0.1076
15306TIP3    H267334   4.914   6.730  14.499 -0.3319  0.2940  0.6141
15307TIP3   OH267335   4.964   5.787   3.230 -0.0824  0.7377  0.4652
15307TIP3    H167336   4.963   5.701   3.272 -1.4579 -0.6027 -2.2220
15307TIP3    H267337   4.872   5.811   3.221  0.2501  1.8740 -0.0645
15308TIP3   OH267338   1.388   3.933  15.232  0.2078  0.3156 -0.0395
15308TIP3    H167339   1.381   3.949  15.138  0.8314 -1.6289 -0.4382
15308TIP3    H267340   1.462   3.873  15.240  1.4934  2.0826  1.8987
15309TIP3   OH267341   0.199   3.611   5.548  0.4403 -0.0839 -0.4363
15309TIP3    H167342   0.265   3.658   5.598 -0.2425 -1.0986  1.4794
15309TIP3    H267343   0.241   3.590   5.465  2.1749  0.1406  0.3722
15310TIP3   OH267344   5.713   3.070  14.180  0.0921 -0.4248  0.4876
15310TIP3    H167345   5.802   3.036  14.178  0.1889 -0.2653  1.7306
15310TIP3    H267346   5.700   3.109  14.094  0.9156 -1.2231 -0.0012
15311TIP3   OH267347   6.087   2.498   4.874 -0.0940  0.0650  0.1088
15311TIP3    H167348   6.112   2.526   4.963  0.7207 -3.1857  0.9839
15311TIP3    H267349   5.994   2.476   4.881  0.0788 -0.6284  0.3061
15312TIP3   OH267350   0.303   5.070   3.356  0.2922 -0.1436  1.0003
15312TIP3    H167351   0.301   5.005   3.286  0.4475  0.5822  0.3105
15312TIP3    H267352   0.393   5.068   3.388  0.3010 -0.2442  0.9709
15313TIP3   OH267353   2.616   1.815  15.341  0.5477  0.8312  0.2592
15313TIP3    H167354   2.576   1.895  15.310 -1.6346  0.0668  1.0425
15313TIP3    H267355   2.574   1.745  15.290  1.4656  0.0739  0.5097
15314TIP3   OH267356   2.230   2.043   5.571  0.4513  0.1112  0.3003
15314TIP3    H167357   2.210   2.006   5.657  0.1116  0.1117  0.2254
15314TIP3    H267358   2.210   1.973   5.509  2.7439 -0.6132  0.3569
15315TIP3   OH267359   4.592   2.841   2.941  0.2930 -0.1840 -0.6681
15315TIP3    H167360   4.622   2.785   2.870  0.0185 -2.6923  1.1179
15315TIP3    H267361   4.505   2.870   2.914  0.8773  0.2544 -2.0993
15316TIP3   OH267362   3.791   1.879   3.787 -0.1668  0.2059 -0.8032
15316TIP3    H167363   3.811   1.786   3.789  0.5254  0.3615  0.0733
15316TIP3    H267364   3.876   1.922   3.775  0.0019  0.8553  2.3037
15317TIP3   OH267365   5.005   0.962   3.366 -0.0321 -0.2462 -0.0485
15317TIP3    H167366   4.946   1.003   3.303  0.2550 -0.9660 -0.7964
15317TIP3    H267367   5.015   1.027   3.435 -0.2731  0.5947 -0.7949
15318TIP3   OH267368   0.374   4.046   4.486 -0.4207 -0.2472 -0.3083
15318TIP3    H167369   0.378   3.960   4.529 -0.6690  0.6528  1.5867
15318TIP3    H267370   0.448   4.045   4.425  2.8281  0.0389  3.3414
15319TIP3   OH267371   6.694   1.681   4.851  0.1578  0.5283  0.2897
15319TIP3    H167372   6.663   1.623   4.781  0.3493  1.0584 -0.2295
15319TIP3    H267373   6.715   1.622   4.923 -1.2763  0.0795  0.3599
15320TIP3   OH267374   0.440   0.663   3.209  0.5731  0.2474 -0.3986
15320TIP3    H167375   0.493   0.606   3.153 -1.3610 -1.8173 -0.1986
15320TIP3    H267376   0.415   0.735   3.153  1.1712 -0.2636 -1.3351
15321TIP3   OH267377   3.133   4.114   1.090  0.0505  0.3049  0.2206
15321TIP3    H167378   3.079   4.074   1.158  1.3432  1.3732  1.9258
15321TIP3    H267379   3.101   4.205   1.085  1.4450  0.8573  1.0278
15322TIP3   OH267380   0.710   2.131  11.156  0.0684 -0.1139  0.2112
15322TIP3    H167381   0.747   2.188  11.088  0.1585 -1.7768 -1.1664
15322TIP3    H267382   0.623   2.169  11.174  0.2360  0.6189 -0.4803
15323TIP3   OH267383   4.048   5.743  12.273  0.3152 -0.5419 -0.6829
15323TIP3    H167384   4.131   5.791  12.268 -0.3140  0.6110 -0.3824
15323TIP3    H267385   4.072   5.655  12.300  1.3715  0.0090  0.2075
15324TIP3   OH267386   0.072   1.628   2.927 -0.2759  0.4297 -0.1918
15324TIP3    H167387   0.134   1.674   2.871 -0.1910  0.6943  0.1204
15324TIP3    H267388  -0.013   1.640   2.884 -0.6666  3.0608  1.2279
15325TIP3   OH267389   6.085   5.441  16.671  0.3828 -0.3461  0.3680
15325TIP3    H167390   6.049   5.368  16.620 -0.1882  0.6081 -0.6298
15325TIP3    H267391   6.174   5.452  16.636  0.3164 -0.2955  0.2107
15326TIP3   OH267392   4.484   0.453   0.616 -0.2170  0.0105  0.0682
15326TIP3    H167393   4.562   0.402   0.596  0.0066  0.2069  0.4258
15326TIP3    H267394   4.465   0.433   0.708 -0.5415  0.0206  0.0033
15327TIP3   OH267395   3.708   3.952   5.018 -0.6401 -0.0613 -0.0350
15327TIP3    H167396   3.797   3.986   5.024 -1.2141  1.3447  0.7532
15327TIP3    H267397   3.718   3.865   4.978  1.1716 -0.3744  1.0465
15328TIP3   OH267398   1.398   5.551   3.343  0.3536  0.1303 -0.3133
15328TIP3    H167399   1.311   5.582   3.366  0.9731  1.2192  0.6056
15328TIP3    H267400   1.400   5.555   3.247 -1.3278 -1.9520 -0.4778
15329TIP3   OH267401   4.477   1.081  16.854  0.3563 -0.1596 -0.0452
15329TIP3    H167402   4.519   1.057  16.937  1.2321  0.6867 -0.2338
15329TIP3    H267403   4.400   1.024  16.849 -1.1701  1.5009  2.6234
15330TIP3   OH267404   6.570   0.253   0.863 -0.2634  0.7011 -0.2349
15330TIP3    H167405   6.634   0.203   0.813  0.2783  0.7745  0.3817
15330TIP3    H267406   6.612   0.268   0.947 -1.3755  0.0967  0.4472
15331TIP3   OH267407   4.689   5.723   0.470 -0.1559 -0.2449  0.1099
15331TIP3    H167408   4.669   5.805   0.516  0.2592 -0.8358  1.3315
15331TIP3    H267409   4.785   5.720   0.467 -0.1110 -1.8539  2.1863
15332TIP3   OH267410   0.613   1.710   2.922 -0.6920 -0.2291  0.0855
15332TIP3    H167411   0.648   1.765   2.852 -0.2044  2.0238  2.0256
15332TIP3    H267412   0.566   1.640   2.876 -0.2431  1.0689 -2.4662
15333TIP3   OH267413   6.135   3.625  12.387  0.4420 -0.3290 -0.4073
15333TIP3    H167414   6.057   3.622  12.442  0.1842 -0.6872 -0.7840
15333TIP3    H267415   6.170   3.713  12.399  2.0702 -1.3301  2.6502
15334TIP3   OH267416   4.909   6.485   1.376 -0.3410 -0.3455 -0.0819
15334TIP3    H167417   4.834   6.510   1.322 -0.7786 -1.0073  0.2092
15334TIP3    H267418   4.959   6.566   1.386  0.2610 -0.4131 -2.2862
15335TIP3   OH267419   4.921   2.360   1.600 -0.2573 -0.3858  0.1189
15335TIP3    H167420   4.879   2.443   1.577  2.1283  1.0765  0.9399
15335TIP3    H267421   4.995   2.353   1.541  1.6310 -0.1685  2.3990
15336TIP3   OH267422   6.072   3.530  14.128  0.6565  0.3249 -0.9841
15336TIP3    H167423   6.052   3.568  14.042 -0.6817  1.0638 -0.3596
15336TIP3    H267424   6.021   3.449  14.131 -1.1792  1.5087  0.0602
15337TIP3   OH267425   5.294   1.854   3.455  0.0108  0.7578 -0.3180
15337TIP3    H167426   5.328   1.922   3.513 -1.1971  1.0219  0.0840
15337TIP3    H267427   5.364   1.839   3.392  1.0939  0.9039  0.8381
15338TIP3   OH267428   0.294   4.006   6.403 -0.3109  0.0925  0.0036
15338TIP3    H167429   0.357   3.950   6.357 -0.5658  0.8098 -1.2412
15338TIP3    H267430   0.278   4.079   6.343  0.0003  1.5063  1.5941
15339TIP3   OH267431   4.753   6.389   0.067  0.4538 -0.1067 -0.2032
15339TIP3    H167432   4.780   6.352   0.151  2.1468 -0.5343 -0.9155
15339TIP3    H267433   4.731   6.313   0.013  2.6740 -0.0618 -1.2406
15340TIP3   OH267434   4.514   5.868   4.461  0.2179  0.5355 -0.4509
15340TIP3    H167435   4.440   5.819   4.424  0.1612  0.8470 -0.7467
15340TIP3    H267436   4.504   5.859   4.556  0.1172  0.1026 -0.5012
15341TIP3   OH267437   1.856   1.236  14.685  0.0898 -0.3384 -0.2437
15341TIP3    H167438   1.762   1.245  14.668 -0.1615 -2.7445 -0.3575
15341TIP3    H267439   1.862   1.164  14.748  1.7781  0.6757  0.7773
15342TIP3   OH267440   2.647   4.860   4.422  0.3333 -0.0272  0.1983
15342TIP3    H167441   2.641   4.839   4.515 -0.5576  1.5600  0.5237
15342TIP3    H267442   2.701   4.790   4.385  0.8242 -0.5942  1.9252
15343TIP3   OH267443   0.854   1.882  15.527 -0.3276 -0.3130 -0.0623
15343TIP3    H167444   0.905   1.801  15.515  1.8760  0.9781  0.2215
15343TIP3    H267445   0.783   1.875  15.464  1.2558 -1.3928 -1.7910
15344TIP3   OH267446   0.455   0.825   4.506  0.0653  0.3640  0.2818
15344TIP3    H167447   0.372   0.797   4.545  0.0566  0.0324  0.0318
15344TIP3    H267448   0.518   0.817   4.577 -0.2055  1.0880  0.6090
15345TIP3   OH267449   0.703   1.009   6.284  0.4429  0.1112 -0.1753
15345TIP3    H167450   0.619   1.053   6.267 -0.4571 -1.0285  1.1497
15345TIP3    H267451   0.685   0.917   6.267  2.1249  0.1200 -2.2577
15346TIP3   OH267452   6.341   6.278   3.376 -0.4615 -0.1803  0.7129
15346TIP3    H167453   6.345   6.243   3.287 -1.5376  1.4776 -0.0136
15346TIP3    H267454   6.279   6.221   3.422 -0.6103 -0.4861  0.1258
15347TIP3   OH267455   1.266   3.867   0.942 -0.1832  0.3644 -0.2383
15347TIP3    H167456   1.330   3.856   1.013 -0.2869  1.2642  0.0017
15347TIP3    H267457   1.320   3.874   0.863 -0.0512 -0.3000 -0.2100
15348TIP3   OH267458   2.680   5.943   5.066  0.7556  0.1413 -0.4383
15348TIP3    H167459   2.622   5.991   5.126  0.6618 -0.4629 -0.0410
15348TIP3    H267460   2.653   5.973   4.979  0.4421  0.5257 -0.2160
15349TIP3   OH267461   2.937   2.199  11.682  0.2214 -0.6915 -0.0033
15349TIP3    H167462   2.993   2.139  11.632 -0.7383 -0.7823 -1.0061
15349TIP3    H267463   2.996   2.244  11.742  0.9454 -2.7422  0.8643
15350TIP3   OH267464   2.039   3.630   2.280  0.4577 -0.1771 -0.5922
15350TIP3    H167465   2.008   3.545   2.251  0.8354 -0.0453 -1.3937
15350TIP3    H267466   1.983   3.693   2.236  0.6010  0.0057 -0.5156
15351TIP3   OH267467   5.598   5.175  12.539  0.1608 -0.3649 -0.0828
15351TIP3    H167468   5.664   5.177  12.608 -0.7804  1.1843  0.7882
15351TIP3    H267469   5.537   5.106  12.566 -0.2928  0.3464  0.7183
15352TIP3   OH267470   0.714   1.238  12.353 -0.1113 -0.4570  0.7032
15352TIP3    H167471   0.760   1.274  12.428 -0.2487 -1.4952  1.2895
15352TIP3    H267472   0.679   1.154  12.383 -1.8712  0.0263  0.0945
15353TIP3   OH267473   3.394   6.733   0.029 -0.8829 -0.1822  0.1340
15353TIP3    H167474   3.407   6.638   0.030  2.2682  0.1746 -1.3348
15353TIP3    H267475   3.389   6.756  -0.064 -0.8175  1.2079  0.4623
15354TIP3   OH267476   4.026   3.073   0.927  0.0031 -0.1015 -0.3455
15354TIP3    H167477   3.933   3.064   0.951  0.2664 -2.4970 -0.1080
15354TIP3    H267478   4.033   3.029   0.842  1.0368 -0.5465 -0.0388
15355TIP3   OH267479   2.310   0.328   6.292 -0.3924 -0.4379 -0.0509
15355TIP3    H167480   2.386   0.384   6.275  1.1372 -2.6224 -0.6270
15355TIP3    H267481   2.271   0.365   6.372  0.8039  1.1792 -0.1736
15356TIP3   OH267482   5.937   5.525   5.783 -0.0013 -0.5547  0.0390
15356TIP3    H167483   5.975   5.583   5.717  0.3047 -0.5724  0.1988
15356TIP3    H267484   6.000   5.525   5.855  0.2115 -1.4389 -0.1424
15357TIP3   OH267485   5.287   1.304   5.767  0.3816  0.3055  0.2473
15357TIP3    H167486   5.346   1.235   5.737 -0.1845 -1.1519  2.3261
15357TIP3    H267487   5.303   1.377   5.708  1.1496 -1.5351 -1.8893
15358TIP3   OH267488   2.431   2.173  12.365 -0.9609  0.0363  0.2402
15358TIP3    H167489   2.525   2.159  12.365 -1.0985 -0.9149 -0.5885
15358TIP3    H267490   2.397   2.114  12.432 -1.0089  0.1431  0.3116
15359TIP3   OH267491   4.360   5.831   0.707  0.0713 -0.0161  0.2782
15359TIP3    H167492   4.361   5.745   0.749 -1.2599  0.2099  0.7890
15359TIP3    H267493   4.310   5.818   0.627  0.8921  0.0196 -0.2496
15360TIP3   OH267494   0.020   3.789   2.898  0.1307  0.2302  0.0937
15360TIP3    H167495  -0.026   3.872   2.914  0.9354  0.3408  1.9845
15360TIP3    H267496   0.096   3.792   2.957 -1.2292 -2.9384  2.1757
15361TIP3   OH267497   1.388   6.395  13.624 -0.0602  0.2904  0.0702
15361TIP3    H167498   1.480   6.382  13.604  0.4571  1.5177  1.5848
15361TIP3    H267499   1.383   6.485  13.657 -1.9635  0.6029 -0.9804
15362TIP3   OH267500   6.594   0.657   5.524 -0.1128  0.1425  0.1582
15362TIP3    H167501   6.565   0.720   5.457 -1.3977 -0.3920  0.2020
15362TIP3    H267502   6.520   0.650   5.584  0.2988 -0.8850  0.5494
15363TIP3   OH267503   5.904   3.598  12.798  0.1951  0.1713 -0.5027
15363TIP3    H167504   5.898   3.505  12.776  0.1161 -0.0744  0.5618
15363TIP3    H267505   5.955   3.601  12.878 -0.0035  1.0324 -0.4008
15364TIP3   OH267506   1.533   6.161  16.680 -0.2353  0.2462 -0.2583
15364TIP3    H167507   1.542   6.075  16.638 -2.1140  0.4058 -1.0222
15364TIP3    H267508   1.504   6.141  16.769 -0.4133  0.0903 -0.3523
15365TIP3   OH267509   6.229   6.475  16.312  0.5181 -0.3632 -0.2382
15365TIP3    H167510   6.275   6.403  16.356  0.4275 -0.2388  0.0626
15365TIP3    H267511   6.274   6.554  16.342 -1.1738 -0.0885  1.6706
15366TIP3   OH267512   6.349   0.452  14.743  0.1074  1.0190 -0.5545
15366TIP3    H167513   6.311   0.371  14.778  1.2188  1.0078  0.7006
15366TIP3    H267514   6.421   0.423  14.687  0.1607  1.1205 -0.5387
15367TIP3   OH267515   0.740   0.414  16.355  0.4288 -0.0414 -0.0522
15367TIP3    H167516   0.662   0.388  16.403  0.7057 -0.1420  0.3528
15367TIP3    H267517   0.712   0.488  16.300 -0.1967 -0.7508 -0.6916
15368TIP3   OH267518   3.744   6.258   1.567 -0.0252 -0.1626 -0.0682
15368TIP3    H167519   3.704   6.242   1.481 -1.6545  0.9906  0.4521
15368TIP3    H267520   3.670   6.258   1.628  1.1471 -1.2756  1.3975
15369TIP3   OH267521   0.487   5.565   2.918 -0.3305  0.4037 -0.1713
15369TIP3    H167522   0.435   5.639   2.887 -1.2454 -0.6065 -1.0507
15369TIP3    H267523   0.428   5.490   2.914  0.5752 -0.3726  0.7809
15370TIP3   OH267524   4.778   6.430  11.396 -0.2197  0.1362  0.7456
15370TIP3    H167525   4.806   6.494  11.330 -1.1906  0.9030  1.0618
15370TIP3    H267526   4.736   6.361  11.345 -0.7718  0.6180  0.5433
15371TIP3   OH267527   0.444   6.762  13.610  0.0187  0.0151 -0.0447
15371TIP3    H167528   0.418   6.702  13.541 -0.3924  1.4378 -1.1642
15371TIP3    H267529   0.478   6.706  13.680 -0.3214 -1.4899 -1.0651
15372TIP3   OH267530   3.720   0.022  16.579  0.4156  0.1188  0.0515
15372TIP3    H167531   3.679   0.090  16.633 -0.2197 -1.1259  1.1395
15372TIP3    H267532   3.814   0.032  16.593  0.2634 -0.0014  1.1301
15373TIP3   OH267533   1.800   2.947   1.945 -0.4891 -0.1894  0.8064
15373TIP3    H167534   1.852   2.869   1.967 -0.3829 -0.8160 -1.5761
15373TIP3    H267535   1.858   3.020   1.968  1.0386 -0.8693 -0.7329
15374TIP3   OH267536   4.495   0.741  15.095  0.1679 -0.1397  0.0143
15374TIP3    H167537   4.460   0.658  15.129  2.0411 -0.4853  1.1594
15374TIP3    H267538   4.532   0.717  15.010 -2.3876  0.2557 -1.2763
15375TIP3   OH267539   0.631   6.093  16.848  0.0215  0.4246  0.1646
15375TIP3    H167540   0.611   6.033  16.776 -2.6448  0.3959  0.8519
15375TIP3    H267541   0.646   6.177  16.805 -2.6378  0.6553 -0.4056
15376TIP3   OH267542   1.088   3.580  16.558 -0.1495  0.3573  0.3355
15376TIP3    H167543   1.042   3.654  16.519 -2.1482  0.5339  2.8302
15376TIP3    H267544   1.141   3.543  16.488  0.6873  4.0022 -1.0047
15377TIP3   OH267545   3.876   0.718   2.459 -0.0930  0.3636  1.0181
15377TIP3    H167546   3.899   0.665   2.383  1.1691  1.5891  0.5352
15377TIP3    H267547   3.801   0.770   2.430 -0.4287 -0.0910  1.0449
15378TIP3   OH267548   4.427   1.020  12.828  0.4367 -0.4228 -0.1420
15378TIP3    H167549   4.392   0.991  12.745 -1.2555  0.2242  0.3274
15378TIP3    H267550   4.391   0.959  12.893  3.9678 -2.6772 -0.1323
15379TIP3   OH267551   2.134   4.919   5.415 -0.1348  0.3995  0.1255
15379TIP3    H167552   2.113   4.988   5.351 -0.3874  0.9355  0.7763
15379TIP3    H267553   2.229   4.911   5.412 -0.3447 -1.5902 -2.3809
15380TIP3   OH267554   5.501   5.471   5.626  0.2057  0.5613  0.1029
15380TIP3    H167555   5.451   5.391   5.609  0.4011  0.2235  1.0727
15380TIP3    H267556   5.592   5.444   5.615  0.2811  0.5946  0.6290
15381TIP3   OH267557   2.004   5.718   3.487 -0.2450  0.1792  0.2744
15381TIP3    H167558   2.048   5.685   3.408 -0.1588 -0.2402  0.4914
15381TIP3    H267559   1.933   5.655   3.503  0.2174 -0.1722  0.9695
15382TIP3   OH267560   3.977   5.769   4.999 -0.0856  0.0894 -0.9861
15382TIP3    H167561   3.882   5.775   4.989  0.1461  1.4960 -2.6422
15382TIP3    H267562   3.998   5.836   5.065 -0.1574  0.4049 -1.2804
15383TIP3   OH267563   3.669   0.966   0.674  0.3717 -0.1234  0.0404
15383TIP3    H167564   3.594   0.908   0.688 -0.4128  0.9334  0.2669
15383TIP3    H267565   3.732   0.939   0.740  0.7027 -1.8291 -0.9206
15384TIP3   OH267566   2.189   6.396   2.172  0.2111 -0.0471 -0.1450
15384TIP3    H167567   2.250   6.365   2.240  0.6310  2.8083  0.8577
15384TIP3    H267568   2.245   6.428   2.102 -0.1907 -0.7441 -0.7831
15385TIP3   OH267569   1.173   2.013   1.475  0.0351  0.5181 -0.4037
15385TIP3    H167570   1.206   1.931   1.438 -0.9602 -0.2511  0.4086
15385TIP3    H267571   1.241   2.040   1.537 -0.2130 -0.3519  0.2580
15386TIP3   OH267572   4.746   5.486  11.910  0.4344 -0.3533 -0.4427
15386TIP3    H167573   4.717   5.444  11.991  0.2569  1.0394  0.2266
15386TIP3    H267574   4.666   5.516  11.868  0.4386 -2.0293 -1.6844
15387TIP3   OH267575   4.427   3.491  13.860 -0.1363  0.4361 -0.4330
15387TIP3    H167576   4.404   3.398  13.850 -0.4716  0.5406 -0.6724
15387TIP3    H267577   4.518   3.497  13.832 -0.8170  0.5809 -2.7027
15388TIP3   OH267578   1.201   4.204  11.360  0.2485 -0.1295  0.1339
15388TIP3    H167579   1.189   4.295  11.386 -0.2985 -0.0611 -0.3458
15388TIP3    H267580   1.211   4.207  11.265 -1.0442 -0.6847 -0.0355
15389TIP3   OH267581   6.609   2.930   1.726 -0.2723  0.1733  0.3960
15389TIP3    H167582   6.632   2.934   1.633 -0.8672 -1.9110  0.1332
15389TIP3    H267583   6.692   2.916   1.771 -0.1302 -0.0043  0.0794
15390TIP3   OH267584   0.269   1.617   2.214 -0.2750  0.4855 -0.4496
15390TIP3    H167585   0.296   1.527   2.234 -0.0070  0.7643  0.4956
15390TIP3    H267586   0.342   1.653   2.164 -0.4228  0.1429 -0.9057
15391TIP3   OH267587   5.039   1.315  12.011 -0.2502  0.7029  0.0322
15391TIP3    H167588   4.980   1.272  11.950 -1.0091  1.0904  0.4822
15391TIP3    H267589   4.984   1.380  12.055 -0.0778 -0.5030  2.1172
15392TIP3   OH267590   0.596   2.597   3.438  0.0269 -0.0218  0.0792
15392TIP3    H167591   0.651   2.527   3.403 -0.6316 -1.1492  1.2495
15392TIP3    H267592   0.508   2.559   3.442 -0.6136  1.3476 -0.5941
15393TIP3   OH267593   6.737   5.693   1.627 -0.4572 -0.5485  0.2941
15393TIP3    H167594   6.758   5.664   1.716 -2.9372 -1.1541  0.7091
15393TIP3    H267595   6.710   5.614   1.581  0.0609 -0.1089 -0.7939
15394TIP3   OH267596   3.813   1.954  15.161  0.4235  0.3634 -0.2013
15394TIP3    H167597   3.834   1.865  15.190 -1.1007  1.3475  4.4319
15394TIP3    H267598   3.897   1.993  15.138  1.6816 -0.9486  1.9686
15395TIP3   OH267599   6.498   5.072  14.602 -0.6430 -0.2852  0.2197
15395TIP3    H167600   6.419   5.020  14.590 -1.1737  0.7344 -0.7932
15395TIP3    H267601   6.533   5.083  14.514  0.3701 -0.3064  0.6048
15396TIP3   OH267602   4.116   0.850   1.187 -0.6738  0.4907 -0.3072
15396TIP3    H167603   4.078   0.762   1.191  0.8715 -0.1424  1.1437
15396TIP3    H267604   4.045   0.905   1.152 -2.2819 -0.9842  0.5320
15397TIP3   OH267605   2.525   3.709  16.339 -0.2422  0.8881  0.7412
15397TIP3    H167606   2.598   3.649  16.355 -0.1954  0.8407  0.3606
15397TIP3    H267607   2.558   3.795  16.367  1.0956  1.4423 -2.3053
15398TIP3   OH267608   0.533   3.521   0.608 -0.3273  0.4737 -0.9769
15398TIP3    H167609   0.586   3.526   0.529  1.2701  0.5055  0.0805
15398TIP3    H267610   0.549   3.432   0.642  0.6421  1.1550  0.4164
15399TIP3   OH267611   5.038   5.652   0.488  0.6908 -0.1589  0.2621
15399TIP3    H167612   5.134   5.659   0.487  0.9803 -3.4351  1.4327
15399TIP3    H267613   5.021   5.559   0.502 -2.6912  0.2660 -0.7673
15400TIP3   OH267614   0.032   4.749  12.212 -0.4816 -0.1927  0.4116
15400TIP3    H167615   0.033   4.680  12.278 -2.4430 -0.9535 -0.3296
15400TIP3    H267616   0.048   4.704  12.129 -3.7562 -0.1306 -0.3387
15401TIP3   OH267617   4.565   5.007  16.109 -0.3173 -0.1079  0.6303
15401TIP3    H167618   4.515   4.926  16.096  2.1610 -1.7685  1.1803
15401TIP3    H267619   4.516   5.073  16.059 -0.9409 -2.5015 -2.0624
15402TIP3   OH267620   3.749   0.542   4.529  0.0126  0.4255  0.5301
15402TIP3    H167621   3.799   0.501   4.599 -1.6323 -0.2766  1.3273
15402TIP3    H267622   3.679   0.589   4.575 -1.2013 -0.2096 -0.6470
15403TIP3   OH267623   4.464   0.222  13.135  0.3412  0.2339  0.6295
15403TIP3    H167624   4.504   0.171  13.063 -1.4533 -1.4233  0.7537
15403TIP3    H267625   4.534   0.278  13.166  1.4589  0.2305 -1.7532
15404TIP3   OH267626   0.171   1.678   6.287  0.0587  0.1873  0.4590
15404TIP3    H167627   0.117   1.756   6.296  0.7413  0.5911  1.1456
15404TIP3    H267628   0.261   1.710   6.296  0.4382 -0.4270 -0.9862
15405TIP3   OH267629   6.240   4.438   4.894  0.0789  0.5759  0.1878
15405TIP3    H167630   6.277   4.414   4.979 -0.4183 -0.3401  0.1549
15405TIP3    H267631   6.234   4.356   4.846  0.4082  1.0993 -0.7637
15406TIP3   OH267632   4.346   2.461   3.080  0.1539  0.3462  0.0955
15406TIP3    H167633   4.278   2.437   3.143  0.1224  0.9707  0.3001
15406TIP3    H267634   4.368   2.378   3.036 -0.3995  0.0576  0.3554
15407TIP3   OH267635   1.830   0.774   1.538  0.1587  0.0474  0.5036
15407TIP3    H167636   1.817   0.779   1.633  0.6302 -0.6695  0.6084
15407TIP3    H267637   1.761   0.829   1.502  2.4002  3.5933  1.4067
15408TIP3   OH267638   2.573   2.026   1.161  0.8097 -0.1973 -0.2076
15408TIP3    H167639   2.652   2.079   1.174  0.4171  0.7546 -1.6501
15408TIP3    H267640   2.501   2.082   1.191  0.3298  0.3637 -2.3024
15409TIP3   OH267641   2.974   4.257   0.230  0.0288  0.5631 -0.0397
15409TIP3    H167642   2.962   4.246   0.324 -2.8793  0.9900 -0.3084
15409TIP3    H267643   2.927   4.338   0.209 -1.7516 -0.9726 -2.2550
15410TIP3   OH267644   6.202   4.846   3.044 -0.0240  0.0160  0.4458
15410TIP3    H167645   6.134   4.883   2.987  1.0807  0.5504 -0.5308
15410TIP3    H267646   6.207   4.907   3.118  1.2968  1.4835 -0.8202
15411TIP3   OH267647   5.194   3.020  11.733  0.0770  0.0852  0.1925
15411TIP3    H167648   5.219   2.961  11.662 -0.0644  0.8080 -0.4649
15411TIP3    H267649   5.102   3.039  11.717  0.6463  2.1818 -0.8648
15412TIP3   OH267650   2.939   5.873   2.543 -0.3421  0.4980  0.6168
15412TIP3    H167651   2.863   5.902   2.492  0.1768  0.9578  0.0912
15412TIP3    H267652   2.903   5.815   2.609 -0.8364 -1.6026 -1.4306
15413TIP3   OH267653   0.014   6.068   1.873  0.4969  0.1137  0.2929
15413TIP3    H167654  -0.068   6.031   1.841  0.3223 -0.1946  1.0784
15413TIP3    H267655   0.071   6.072   1.796 -0.1338 -0.0069 -0.1792
15414TIP3   OH267656   1.014   1.886   4.127  0.0032  0.1490  0.0352
15414TIP3    H167657   1.068   1.849   4.057 -1.0109 -0.4865 -0.4293
15414TIP3    H267658   0.937   1.922   4.082 -0.2506  0.4884  0.7365
15415TIP3   OH267659   2.052   4.549  13.248  0.0575 -0.1901  0.3026
15415TIP3    H167660   2.050   4.507  13.163 -1.2375  0.9339 -0.2468
15415TIP3    H267661   2.112   4.496  13.300  0.3542 -1.2573 -1.1058
15416TIP3   OH267662   4.706   1.532   5.501  0.5942  0.2259 -0.3266
15416TIP3    H167663   4.800   1.539   5.487  0.4087 -0.1343 -1.9070
15416TIP3    H267664   4.669   1.524   5.412 -0.7694 -1.3136  0.3419
15417TIP3   OH267665   3.761   4.328   2.795  0.3800  0.0152  0.4014
15417TIP3    H167666   3.831   4.340   2.859  1.1441 -0.7257 -0.2929
15417TIP3    H267667   3.800   4.352   2.711  1.2928 -4.7440 -0.7179
15418TIP3   OH267668   1.568   2.264   1.221 -0.9753 -0.1822  0.1912
15418TIP3    H167669   1.523   2.186   1.254 -1.0405 -0.1880  0.0889
15418TIP3    H267670   1.660   2.247   1.237 -0.9170 -0.6600 -0.6318
15419TIP3   OH267671   5.132   2.764   4.521 -0.3746  0.1629 -0.1524
15419TIP3    H167672   5.142   2.837   4.460 -1.9258  1.3581  0.9813
15419TIP3    H267673   5.043   2.732   4.506 -0.0781 -0.8100  0.1241
15420TIP3   OH267674   1.696   1.217   1.351 -0.0809 -0.1597 -0.1971
15420TIP3    H167675   1.771   1.190   1.405  2.0048 -1.5606 -3.5732
15420TIP3    H267676   1.734   1.277   1.287 -2.2417  0.6084 -0.7756
15421TIP3   OH267677   0.205   5.043   5.455 -0.3339  0.4716  0.4520
15421TIP3    H167678   0.270   5.108   5.483  1.3103 -0.7831 -0.4002
15421TIP3    H267679   0.224   5.028   5.363  0.8594 -2.9738  1.2016
15422TIP3   OH267680   2.861   1.201  16.251  0.0154 -0.5068  0.0161
15422TIP3    H167681   2.843   1.204  16.157 -1.0709 -0.7949  0.2030
15422TIP3    H267682   2.774   1.196  16.292  0.4482  0.4394  1.0651
15423TIP3   OH267683   5.614   5.642   0.406  0.7052  0.2546  0.3095
15423TIP3    H167684   5.583   5.693   0.332 -1.2057  0.5679  1.2822
15423TIP3    H267685   5.644   5.707   0.469  4.7667 -0.0713 -1.1404
15424TIP3   OH267686   6.759   1.621   1.371  0.2121  1.0088 -0.4633
15424TIP3    H167687   6.848   1.630   1.405  0.6071 -3.7457  0.0028
15424TIP3    H267688   6.703   1.625   1.448  0.2976  0.4589 -0.3734
15425TIP3   OH267689   0.537   3.051   0.371 -0.0617  0.5067  0.6825
15425TIP3    H167690   0.479   3.083   0.441 -0.0388  1.0429  0.4614
15425TIP3    H267691   0.511   2.960   0.358 -0.4587  0.5717  0.9901
15426TIP3   OH267692   3.084   0.018   2.033  0.8643  0.2022  0.1802
15426TIP3    H167693   3.089  -0.076   2.055  1.8375  0.2303  0.1142
15426TIP3    H267694   3.093   0.062   2.118  0.8519  0.2439  0.1595
15427TIP3   OH267695   5.178   4.113  13.431  0.0026  0.0887  0.3834
15427TIP3    H167696   5.115   4.115  13.503  1.1629 -0.8952  1.4492
15427TIP3    H267697   5.255   4.158  13.466  1.1241 -1.7352  0.3005
15428TIP3   OH267698   5.879   6.183  15.055 -0.7143  0.0131 -0.0086
15428TIP3    H167699   5.956   6.128  15.038 -1.2901 -1.0811  0.8096
15428TIP3    H267700   5.809   6.120  15.074 -2.0187  0.9795 -1.5585
15429TIP3   OH267701   6.552   4.854   4.820  0.1759 -0.0721  0.0865
15429TIP3    H167702   6.621   4.794   4.847  0.3584  0.5100  0.9359
15429TIP3    H267703   6.592   4.941   4.825 -0.0690  0.1303 -1.1839
15430TIP3   OH267704   4.308   2.793   5.319  0.3080  0.8239  0.3111
15430TIP3    H167705   4.255   2.713   5.309  0.3471  0.7052  0.9971
15430TIP3    H267706   4.285   2.825   5.407  0.3364  1.5331  0.0583
15431TIP3   OH267707   4.755   3.572  14.472 -0.7289 -0.0141  0.2169
15431TIP3    H167708   4.837   3.523  14.480 -1.1228 -1.1100 -2.0070
15431TIP3    H267709   4.687   3.511  14.501 -0.7627  0.9721  2.2764
15432TIP3   OH267710   0.421   0.317   4.444 -0.0864  0.0613 -0.4210
15432TIP3    H167711   0.416   0.341   4.352  0.9172 -0.8227 -0.7099
15432TIP3    H267712   0.461   0.230   4.444  0.8904  0.4999  0.9153
15433TIP3   OH267713   5.278   2.617   1.969 -0.2491  0.8658  0.1497
15433TIP3    H167714   5.252   2.654   2.053 -0.9644  3.4441 -1.1618
15433TIP3    H267715   5.230   2.534   1.964 -1.8404  1.6770  1.3781
15434TIP3   OH267716   2.487   3.916  14.256  0.1135  0.9067 -0.3377
15434TIP3    H167717   2.545   3.848  14.221 -0.2005  1.5339 -2.1507
15434TIP3    H267718   2.462   3.885  14.343  1.3346 -0.4682 -0.4740
15435TIP3   OH267719   6.735   4.996   5.558 -0.2328 -0.6244  0.1192
15435TIP3    H167720   6.823   5.020   5.526 -0.4053 -1.2259 -0.8115
15435TIP3    H267721   6.731   5.034   5.646  0.1970  1.1887 -0.6232
15436TIP3   OH267722   3.883   4.986   3.705 -0.0886  0.1929 -0.5587
15436TIP3    H167723   3.889   4.890   3.710 -1.3061  0.0390 -1.7063
15436TIP3    H267724   3.790   5.005   3.720 -0.0587  1.1068 -1.4360
15437TIP3   OH267725   2.323   0.052   4.300  0.4531 -0.4563 -0.3105
15437TIP3    H167726   2.240   0.037   4.345  0.3198 -2.5367 -1.2008
15437TIP3    H267727   2.298   0.083   4.213  0.6107 -0.7233 -0.4516
15438TIP3   OH267728   2.232   5.217   0.517  0.1784 -0.1639  0.0892
15438TIP3    H167729   2.194   5.205   0.604 -0.8531 -1.1993 -0.4808
15438TIP3    H267730   2.223   5.131   0.475  0.2687  0.4395 -1.1912
15439TIP3   OH267731   4.329   3.467  15.056  0.1939  0.2107 -0.6154
15439TIP3    H167732   4.309   3.555  15.087 -2.1782 -0.2753 -0.6918
15439TIP3    H267733   4.338   3.476  14.961 -1.0542  0.2075 -0.7408
15440TIP3   OH267734   1.528   0.203  12.850  0.1772  0.6758 -0.4266
15440TIP3    H167735   1.477   0.225  12.772  0.1980  0.4196 -0.5105
15440TIP3    H267736   1.471   0.227  12.923 -0.5732 -0.7789 -0.5185
15441TIP3   OH267737   2.131   4.363   2.699  0.3009 -0.1085 -0.6010
15441TIP3    H167738   2.059   4.424   2.715  1.4855  1.1571  0.0172
15441TIP3    H267739   2.154   4.377   2.607  0.3717  0.1383 -0.5448
15442TIP3   OH267740   0.464   3.118  14.672  0.3081 -0.9382  0.2382
15442TIP3    H167741   0.495   3.029  14.686  2.1017 -0.7046 -2.1188
15442TIP3    H267742   0.540   3.173  14.688 -0.5550  0.1231  0.7549
15443TIP3   OH267743   5.880   0.611   5.757  0.2627  0.5772 -0.0429
15443TIP3    H167744   5.902   0.705   5.761  4.9309 -0.2074 -2.6595
15443TIP3    H267745   5.851   0.598   5.667 -0.0171 -0.5666  0.2125
15444TIP3   OH267746   0.155   2.394  14.494  0.8640 -0.6640 -0.4759
15444TIP3    H167747   0.239   2.422  14.530 -0.2468  0.5473  1.2865
15444TIP3    H267748   0.170   2.387  14.400  2.2750  2.0622 -0.5034
15445TIP3   OH267749   2.788   6.490   4.383  0.2184  0.4812 -0.3090
15445TIP3    H167750   2.874   6.521   4.356 -0.1741 -0.1301 -2.3779
15445TIP3    H267751   2.805   6.404   4.421  0.4436  0.0630 -1.3476
15446TIP3   OH267752   1.732   5.976   3.997  1.1422  0.0387 -0.3416
15446TIP3    H167753   1.782   6.031   4.057  2.5583  0.6013 -1.9845
15446TIP3    H267754   1.745   6.016   3.911 -0.6153 -0.9061 -1.0729
15447TIP3   OH267755   3.919   4.126   1.593 -0.1024 -0.0424  0.3149
15447TIP3    H167756   3.995   4.181   1.577  2.1725 -2.5849  2.0115
15447TIP3    H267757   3.933   4.048   1.540  0.3443 -2.1375  3.4038
15448TIP3   OH267758   3.144   1.800   1.311 -0.3588 -0.1756  0.2288
15448TIP3    H167759   3.166   1.797   1.218 -1.1210  0.5667  0.0228
15448TIP3    H267760   3.174   1.886   1.340 -0.4862 -0.2497  0.5842
15449TIP3   OH267761   6.463   1.500   0.225  0.3888  0.2365  0.7410
15449TIP3    H167762   6.443   1.482   0.317  1.7462 -0.1374  0.9785
15449TIP3    H267763   6.474   1.414   0.186  1.0232  0.4174  0.5143
15450TIP3   OH267764   4.734   6.751   0.663  0.5566 -0.1362  0.4433
15450TIP3    H167765   4.781   6.834   0.674  0.0702  0.5805 -2.3663
15450TIP3    H267766   4.642   6.773   0.681  0.3853  0.0505 -0.5794
15451TIP3   OH267767   1.638   4.655  12.174  0.5666 -0.7521 -0.1209
15451TIP3    H167768   1.600   4.567  12.172 -1.1820 -0.0703  1.3530
15451TIP3    H267769   1.603   4.694  12.254  1.5729  1.1754 -0.5967
15452TIP3   OH267770   0.034   3.254  15.581 -0.7301  0.3766 -0.3901
15452TIP3    H167771   0.116   3.283  15.540 -0.1287 -1.5671 -0.6100
15452TIP3    H267772   0.055   3.248  15.674 -0.4081 -0.8046 -0.5341
15453TIP3   OH267773   0.068   0.413   6.302 -0.2214  0.1368 -0.2911
15453TIP3    H167774   0.026   0.494   6.333 -0.3893  0.2858 -0.9105
15453TIP3    H267775   0.075   0.358   6.381  0.5054  1.0130  0.2642
15454TIP3   OH267776   0.722   3.685  14.702 -0.5568  0.0495  0.2708
15454TIP3    H167777   0.751   3.733  14.625 -1.1733 -1.2920 -0.8153
15454TIP3    H267778   0.798   3.635  14.730 -0.3249  0.5599  0.5656
15455TIP3   OH267779   5.451   1.677   5.345  0.7507  0.3538 -0.1529
15455TIP3    H167780   5.546   1.669   5.351  0.5776 -1.3318  0.6387
15455TIP3    H267781   5.421   1.671   5.436 -0.1289  0.6581 -0.4174
15456TIP3   OH267782   1.106   1.603   2.951 -0.2738 -0.1006  0.4777
15456TIP3    H167783   1.155   1.521   2.959 -2.3132 -1.2878  1.3605
15456TIP3    H267784   1.014   1.576   2.957 -0.9917  2.1808  0.0534
15457TIP3   OH267785   6.431   1.078  13.624  0.4120  0.4300  0.4567
15457TIP3    H167786   6.403   1.035  13.543  2.1697 -1.0108  0.5847
15457TIP3    H267787   6.449   1.169  13.599  0.6835  0.0560 -0.7198
15458TIP3   OH267788   1.787   1.286  13.970 -0.3720  0.4240 -0.8460
15458TIP3    H167789   1.722   1.227  14.007  0.8396  0.4673  1.4672
15458TIP3    H267790   1.868   1.266  14.018  1.5702 -0.2456 -4.2404
15459TIP3   OH267791   5.209   6.762   2.248 -0.1185 -0.0178 -0.5196
15459TIP3    H167792   5.235   6.700   2.315  0.9182  0.2819 -0.6385
15459TIP3    H267793   5.122   6.791   2.275 -0.0053 -0.4325  0.3074
15460TIP3   OH267794   6.712   1.475  11.051 -0.2401  0.5150 -0.5554
15460TIP3    H167795   6.658   1.483  10.972 -1.0065  0.0395 -0.0908
15460TIP3    H267796   6.799   1.455  11.019 -0.5327  0.4052 -1.2876
15461TIP3   OH267797   2.218   5.567  16.131  0.1782 -0.3962 -0.4506
15461TIP3    H167798   2.311   5.557  16.150  0.5107  0.4086 -1.6238
15461TIP3    H267799   2.205   5.661  16.117 -1.3572 -0.1249  2.4273
15462TIP3   OH267800   2.543   3.306   1.585 -0.4060 -0.5059  0.0364
15462TIP3    H167801   2.543   3.389   1.538 -1.2933 -0.1337  0.6737
15462TIP3    H267802   2.489   3.248   1.532  0.2487 -0.6888 -0.4304
15463TIP3   OH267803   3.843   4.712   4.334  0.0365  0.0448  0.1867
15463TIP3    H167804   3.807   4.680   4.417 -0.3370  1.3932  0.5596
15463TIP3    H267805   3.918   4.766   4.359 -0.2815  0.7352 -0.3257
15464TIP3   OH267806   3.358   0.276  17.092 -0.1202 -0.2717  0.1342
15464TIP3    H167807   3.373   0.286  17.186 -0.3375 -0.0986  0.1509
15464TIP3    H267808   3.435   0.229  17.060  0.9040  1.3793  0.0770
15465TIP3   OH267809   5.692   0.775   2.901  0.3720  0.3400 -0.1083
15465TIP3    H167810   5.730   0.723   2.830  0.0320  1.4162 -1.0910
15465TIP3    H267811   5.754   0.765   2.974  0.0501 -1.8550 -0.0825
15466TIP3   OH267812   3.200   4.200  13.873  0.0760 -0.0704 -0.1081
15466TIP3    H167813   3.286   4.233  13.848  0.1103 -1.7611 -2.4357
15466TIP3    H267814   3.219   4.117  13.917 -0.3676 -0.7171 -1.1203
15467TIP3   OH267815   1.652   2.563  13.549 -0.3037 -0.0795 -0.7272
15467TIP3    H167816   1.630   2.624  13.479  1.0415  0.8855 -0.3394
15467TIP3    H267817   1.607   2.598  13.626 -0.9634 -0.5694 -0.8922
15468TIP3   OH267818   6.286   3.561   0.926 -0.2984  0.2985  0.0262
15468TIP3    H167819   6.227   3.497   0.965 -1.6431 -0.8837 -3.7295
15468TIP3    H267820   6.231   3.637   0.909 -0.0538  0.3053 -0.7601
15469TIP3   OH267821   3.641   4.491   1.339  0.1789 -0.0557 -0.1531
15469TIP3    H167822   3.608   4.416   1.289 -1.1047  0.2638  0.1816
15469TIP3    H267823   3.598   4.567   1.298  0.7718  0.4122  0.0872
15470TIP3   OH267824   3.927   4.734   3.780  0.2770  0.7174 -0.5694
15470TIP3    H167825   3.961   4.734   3.869  0.7585 -1.1443 -0.7366
15470TIP3    H267826   4.004   4.730   3.724 -0.0880 -0.2000 -1.0220
15471TIP3   OH267827   1.183   3.445   6.191 -0.0193 -0.0995  0.0421
15471TIP3    H167828   1.248   3.488   6.135 -0.5534 -0.9519 -1.2605
15471TIP3    H267829   1.113   3.509   6.199  1.2803  1.1339  2.0907
15472TIP3   OH267830   6.289   5.284   2.585 -0.2969  0.2374  0.4021
15472TIP3    H167831   6.220   5.256   2.524  0.5476 -0.6894 -0.1400
15472TIP3    H267832   6.252   5.360   2.630 -1.4859  0.0475 -0.2367
15473TIP3   OH267833   2.283   0.330   4.343 -0.1475 -0.5375  0.1740
15473TIP3    H167834   2.275   0.235   4.347 -0.6977 -0.5643 -1.1427
15473TIP3    H267835   2.195   0.360   4.321 -0.0269  0.2901  0.8163
15474TIP3   OH267836   2.315   2.446   0.889  0.3460 -0.1798 -0.2283
15474TIP3    H167837   2.221   2.433   0.901  0.1404  0.8667 -0.6507
15474TIP3    H267838   2.326   2.459   0.795  0.9230 -0.3866 -0.1878
15475TIP3   OH267839   6.017   0.849   5.762 -0.3496 -0.2894  0.6797
15475TIP3    H167840   6.112   0.843   5.775 -0.3306 -1.3651  0.0878
15475TIP3    H267841   6.004   0.936   5.725  0.7341 -1.2126 -1.9893
15476TIP3   OH267842   3.356   3.786   0.645 -0.4646 -0.1345 -0.4438
15476TIP3    H167843   3.276   3.800   0.593  0.1707 -1.1406 -1.7327
15476TIP3    H267844   3.377   3.872   0.680 -0.5834  0.7066 -2.3601
15477TIP3   OH267845   1.237   5.168  12.639  0.2977 -0.0412 -0.3844
15477TIP3    H167846   1.193   5.242  12.681 -1.5338 -1.1759 -0.2197
15477TIP3    H267847   1.257   5.199  12.551 -0.0790  0.7941 -0.1836
15478TIP3   OH267848   6.510   2.072   4.574 -0.2166 -0.0437 -0.3220
15478TIP3    H167849   6.516   2.165   4.551  0.0384  0.1031  0.3442
15478TIP3    H267850   6.594   2.052   4.614  0.8086 -1.2409 -2.9343
15479TIP3   OH267851   5.949   0.365   2.199 -0.1200  0.5705 -0.1358
15479TIP3    H167852   5.908   0.285   2.233 -0.4274  0.4050 -0.8815
15479TIP3    H267853   5.959   0.421   2.276 -1.5233  0.5130  0.1076
15480TIP3   OH267854   1.256   1.353  14.087  0.0139  0.2774 -0.2773
15480TIP3    H167855   1.342   1.395  14.084  0.6960 -0.9792  0.9132
15480TIP3    H267856   1.193   1.425  14.081  1.1461  1.4095  1.1902
15481TIP3   OH267857   5.542   5.007  12.265 -0.1666 -0.5675  0.1972
15481TIP3    H167858   5.541   5.066  12.340  0.2082 -1.6465  1.0630
15481TIP3    H267859   5.450   4.985  12.249 -0.3221  0.3904 -0.2482
15482TIP3   OH267860   1.697   6.426   4.706  0.1594  0.2588  0.1769
15482TIP3    H167861   1.624   6.366   4.695  1.3954 -1.4690  1.2043
15482TIP3    H267862   1.761   6.399   4.640  1.9433 -1.4894  2.5418
15483TIP3   OH267863   0.254   5.503  12.378  0.2386 -0.0921  0.5907
15483TIP3    H167864   0.258   5.582  12.431 -0.4731  0.0712  0.4052
15483TIP3    H267865   0.226   5.435  12.439 -0.9531  0.1725  0.3486
15484TIP3   OH267866   3.715   4.657  15.503 -0.0903 -0.1855 -0.1417
15484TIP3    H167867   3.771   4.638  15.428 -1.1531 -0.4401 -0.8915
15484TIP3    H267868   3.641   4.706  15.466 -0.1920  0.4415  0.8798
15485TIP3   OH267869   6.745   2.207   0.250 -0.2086  0.4630  0.2854
15485TIP3    H167870   6.698   2.124   0.259 -0.6588  0.6066 -0.6880
15485TIP3    H267871   6.785   2.203   0.163 -0.2987  1.3040  0.2018
15486TIP3   OH267872   1.257   2.886   2.769 -0.4513  0.0279 -0.7744
15486TIP3    H167873   1.225   2.842   2.690 -2.7408 -0.3567  0.3121
15486TIP3    H267874   1.197   2.857   2.838 -0.0685  2.3695  0.5909
15487TIP3   OH267875   2.778   3.112   1.848  0.1618 -0.5066 -0.5297
15487TIP3    H167876   2.772   3.208   1.849 -0.3054 -0.5398  0.8991
15487TIP3    H267877   2.810   3.091   1.760 -0.6320  0.9010 -1.1771
15488TIP3   OH267878   0.217   6.785   1.676  0.4158 -0.0645  0.2838
15488TIP3    H167879   0.141   6.822   1.720 -0.0013 -1.7366  1.0062
15488TIP3    H267880   0.289   6.797   1.738  0.6175  0.9323 -0.1328
15489TIP3   OH267881   0.257   1.711   4.614  0.0150  0.4642 -0.0322
15489TIP3    H167882   0.252   1.689   4.707  1.8115  1.7612  0.4050
15489TIP3    H267883   0.314   1.788   4.611  2.1249 -1.1370 -2.4580
15490TIP3   OH267884   4.145   3.244  14.993 -0.0960 -0.2874  0.1910
15490TIP3    H167885   4.196   3.325  14.992 -0.6686  0.0794  0.1814
15490TIP3    H267886   4.071   3.262  14.935  0.3850 -1.2244 -0.7307
15491TIP3   OH267887   0.496   2.341   3.522 -0.3629  0.3685 -0.3850
15491TIP3    H167888   0.560   2.314   3.587 -1.3674  0.3663  0.6237
15491TIP3    H267889   0.517   2.289   3.444 -0.4821 -1.2259  0.6138
15492TIP3   OH267890   6.497   0.582   2.897 -0.8941  0.3268 -0.1487
15492TIP3    H167891   6.449   0.604   2.976 -0.7286 -0.4571  0.1767
15492TIP3    H267892   6.572   0.641   2.896 -1.4073  0.9777 -0.2175
15493TIP3   OH267893   3.143   4.908  16.405  0.0910 -0.2427 -0.3812
15493TIP3    H167894   3.122   4.836  16.464  0.1179  0.5240  0.5807
15493TIP3    H267895   3.066   4.918  16.350 -1.5703  1.6406  2.1919
15494TIP3   OH267896   5.555   4.337   1.943  0.0245 -0.0601 -0.4855
15494TIP3    H167897   5.644   4.305   1.930 -0.2704 -1.8713  1.6930
15494TIP3    H267898   5.499   4.264   1.915 -0.6925 -0.4039  1.7304
15495TIP3   OH267899   0.681   0.904  14.243  0.1489 -0.3738 -0.7791
15495TIP3    H167900   0.617   0.880  14.309  2.4283  1.5397  2.2316
15495TIP3    H267901   0.642   0.979  14.198  0.5853  1.2599  1.5351
15496TIP3   OH267902   0.835   6.744  11.774 -0.3285 -0.2100  0.1166
15496TIP3    H167903   0.876   6.676  11.719 -1.7221 -0.0481 -1.1535
15496TIP3    H267904   0.882   6.824  11.750  1.1233 -0.6342  1.4082
15497TIP3   OH267905   1.649   2.299   4.746 -0.2725 -0.4579 -0.6166
15497TIP3    H167906   1.706   2.319   4.671  0.2847  1.6704  0.3473
15497TIP3    H267907   1.686   2.219   4.784  0.4221 -0.6238 -1.6300
15498TIP3   OH267908   1.610   4.841  16.118  0.2558  0.8504  0.2992
15498TIP3    H167909   1.673   4.835  16.190  1.6401 -0.8911 -1.0283
15498TIP3    H267910   1.570   4.754  16.113 -0.7241  1.3173 -0.2564
15499TIP3   OH267911   6.326   3.328  12.692 -0.3855  0.4319 -0.0733
15499TIP3    H167912   6.383   3.252  12.679  1.2253  1.0254  3.0291
15499TIP3    H267913   6.386   3.399  12.713 -2.0589  1.9138 -0.2780
15500TIP3   OH267914   1.344   6.389   5.090  0.1005  0.2453 -0.3037
15500TIP3    H167915   1.419   6.433   5.130 -0.1960  1.1297 -0.7102
15500TIP3    H267916   1.343   6.303   5.132  1.2117  0.2958 -0.1406
15501TIP3   OH267917   2.613   2.495  12.098 -0.2965 -0.5225 -0.1719
15501TIP3    H167918   2.691   2.505  12.154 -0.0768  0.0483 -0.5658
15501TIP3    H267919   2.541   2.486  12.159 -0.5220  3.4765  0.3232
15502TIP3   OH267920   5.967   0.424  14.131 -0.7453  0.3652  0.0398
15502TIP3    H167921   6.057   0.412  14.161 -0.5698 -0.2146 -0.7190
15502TIP3    H267922   5.917   0.442  14.212  0.0301  0.6298  0.4658
15503TIP3   OH267923   1.549   0.605  15.289  0.1731  0.2950  0.0093
15503TIP3    H167924   1.567   0.682  15.235  0.0293 -0.0467 -0.5254
15503TIP3    H267925   1.634   0.562  15.299 -0.1480 -0.8196 -1.7542
15504TIP3   OH267926   5.080   1.045  16.955 -0.1781  0.6241 -0.2755
15504TIP3    H167927   5.099   1.115  16.892 -0.9756  0.0925 -1.1299
15504TIP3    H267928   5.002   1.002  16.919  0.1388 -0.5165  0.3916
15505TIP3   OH267929   3.961   1.114  12.506  0.0966  0.1245  0.0404
15505TIP3    H167930   4.025   1.042  12.509  0.4669  0.4807  0.7152
15505TIP3    H267931   3.880   1.075  12.541  0.6130  0.3490  1.5458
15506TIP3   OH267932   5.637   3.804   2.632 -0.4692  0.0559 -0.0625
15506TIP3    H167933   5.669   3.808   2.722  0.3861  0.6059 -0.3793
15506TIP3    H267934   5.650   3.712   2.607 -1.5967 -0.3200  0.6771
15507TIP3   OH267935   3.091   4.284  12.780  0.0154 -0.2394 -0.9343
15507TIP3    H167936   3.093   4.345  12.706 -2.4995  0.9233 -0.1218
15507TIP3    H267937   3.012   4.232  12.765  0.5193 -1.2625 -0.0379
15508TIP3   OH267938   4.416   3.987  14.742  0.4515 -0.0565  0.6744
15508TIP3    H167939   4.504   4.022  14.728 -0.3799  2.8413  2.1931
15508TIP3    H267940   4.373   3.998  14.657  0.6166  1.4616  0.7706
15509TIP3   OH267941   2.780   1.573   3.757 -0.2706 -0.2164  0.7707
15509TIP3    H167942   2.744   1.520   3.827  0.7946 -0.5812  1.0586
15509TIP3    H267943   2.874   1.554   3.758 -0.1687  0.1426 -0.4320
15510TIP3   OH267944   6.146   1.895  16.081 -0.2113 -0.2418 -0.4143
15510TIP3    H167945   6.072   1.952  16.059 -1.2478 -0.6059  1.9994
15510TIP3    H267946   6.141   1.824  16.016 -1.5121  0.1633 -0.7775
15511TIP3   OH267947   4.891   0.805   4.530  0.0515 -0.5353 -0.2073
15511TIP3    H167948   4.893   0.859   4.609  0.6648  0.6994 -1.0523
15511TIP3    H267949   4.811   0.833   4.485  1.1398  0.7973 -1.3923
15512TIP3   OH267950   3.791   1.214  12.269  0.1788 -0.6407 -0.4798
15512TIP3    H167951   3.872   1.211  12.319 -0.8355 -1.3512  1.1824
15512TIP3    H267952   3.745   1.292  12.303  0.0701 -0.3624 -1.2565
15513TIP3   OH267953   5.595   0.475   0.568  0.0067 -0.4344  0.4232
15513TIP3    H167954   5.588   0.436   0.655  3.1762 -1.5387  0.2340
15513TIP3    H267955   5.661   0.544   0.578 -1.1632  0.8669 -0.6472
15514TIP3   OH267956   2.843   1.028   2.336  0.2940  1.0331  0.1756
15514TIP3    H167957   2.878   0.999   2.252  0.1370  0.2838  0.3672
15514TIP3    H267958   2.918   1.023   2.396  0.4027  1.5526  0.0872
15515TIP3   OH267959   2.498   3.760   2.656 -0.7728  0.2572 -0.1949
15515TIP3    H167960   2.546   3.704   2.595  2.1341  1.3855  1.0108
15515TIP3    H267961   2.507   3.848   2.621 -0.2489  0.7356  1.1226
15516TIP3   OH267962   0.567   1.834  17.084 -0.1153 -0.0820  0.3969
15516TIP3    H167963   0.503   1.765  17.099  0.2046 -0.1735  1.3573
15516TIP3    H267964   0.635   1.818  17.149  0.4335  0.5656 -0.0122
15517TIP3   OH267965   0.027   3.183  12.606 -0.1211 -0.3795 -0.3329
15517TIP3    H167966  -0.020   3.266  12.611 -0.3943 -0.5146 -0.5760
15517TIP3    H267967   0.048   3.161  12.697 -0.1106 -0.0789 -0.2648
15518TIP3   OH267968   2.937   2.851   4.793  0.0386 -0.2429 -0.0734
15518TIP3    H167969   2.895   2.813   4.870  0.3965  1.2163  0.8623
15518TIP3    H267970   3.029   2.825   4.800  0.2026  0.4293  0.3539
15519TIP3   OH267971   6.367   4.101   0.971  0.1974 -0.7086  0.5057
15519TIP3    H167972   6.295   4.039   0.958 -2.4303  2.1796  1.0081
15519TIP3    H267973   6.396   4.085   1.061 -0.6481 -1.0115  0.7275
15520TIP3   OH267974   0.494   0.565  13.534 -0.4777  0.0052  0.3450
15520TIP3    H167975   0.401   0.571  13.557 -0.8208  0.6735 -1.1419
15520TIP3    H267976   0.507   0.632  13.467  0.6003 -1.4365 -0.9278
15521TIP3   OH267977   5.090   1.678  11.752  0.7164 -0.1057  0.4356
15521TIP3    H167978   5.127   1.764  11.770  0.5812  0.0356  0.0579
15521TIP3    H267979   5.077   1.678  11.657  0.3144 -0.3816  0.4901
15522TIP3   OH267980   1.537   1.772   0.346  0.1402  0.2857  0.1580
15522TIP3    H167981   1.485   1.695   0.370  1.5484 -0.2525  1.5587
15522TIP3    H267982   1.539   1.770   0.251  1.1554 -2.1340  0.1743
15523TIP3   OH267983   1.550   4.977   3.319 -0.3347  0.2977  0.7510
15523TIP3    H167984   1.526   5.028   3.242  1.6589  0.9478  0.5306
15523TIP3    H267985   1.596   5.038   3.376 -0.6298 -0.5055  1.8873
15524TIP3   OH267986   5.400   0.433   2.904 -0.5976 -0.0789 -0.0974
15524TIP3    H167987   5.489   0.421   2.938 -0.2330  2.1625 -0.1868
15524TIP3    H267988   5.385   0.357   2.848  0.7846 -1.1258  0.9122
15525TIP3   OH267989   3.845   4.273  17.054 -0.5578  0.7088 -0.6414
15525TIP3    H167990   3.889   4.318  17.126 -0.6186  0.4940 -0.4685
15525TIP3    H267991   3.868   4.323  16.976 -1.3166  1.5341 -0.3444
15526TIP3   OH267992   6.564   0.928   0.283  0.1647 -0.3019  0.0636
15526TIP3    H167993   6.629   0.919   0.352  0.1077  0.4818  0.2208
15526TIP3    H267994   6.488   0.968   0.326  0.5623  1.3295 -0.7112
15527TIP3   OH267995   5.201   0.490   3.471 -0.4852 -0.3469  0.1500
15527TIP3    H167996   5.243   0.560   3.520 -0.4908 -0.3152  0.1097
15527TIP3    H267997   5.231   0.409   3.513  0.2250 -0.3540 -0.3631
15528TIP3   OH267998   4.873   1.163   0.236  0.3054 -0.0427  0.5046
15528TIP3    H167999   4.877   1.218   0.157  0.6200  0.8294  1.1252
15528TIP3    H268000   4.944   1.100   0.225 -0.5192 -0.8312 -0.5653
15529TIP3   OH268001   0.796   1.065  13.301 -0.3530  0.6132  0.0861
15529TIP3    H168002   0.728   1.002  13.281  2.0267 -1.7654 -0.7869
15529TIP3    H268003   0.807   1.060  13.396  1.5734 -2.2068 -0.2489
15530TIP3   OH268004   3.467   4.942   1.855 -0.5292  0.4578  0.2138
15530TIP3    H168005   3.409   4.932   1.931 -0.3154 -1.6007  0.1425
15530TIP3    H268006   3.545   4.985   1.890 -1.6268  2.2347  0.5378
15531TIP3   OH268007   6.093   6.098   5.344 -0.5271 -0.0776 -0.5179
15531TIP3    H168008   6.115   6.174   5.397  0.5137  0.1520 -1.2770
15531TIP3    H268009   6.021   6.127   5.288  0.9891  0.8684 -2.0050
15532TIP3   OH268010   3.801   4.613  13.310 -0.5760 -0.1615  0.1525
15532TIP3    H168011   3.712   4.601  13.277 -0.1951  2.8121 -2.1133
15532TIP3    H268012   3.791   4.672  13.385 -0.1951  3.7586 -2.7239
15533TIP3   OH268013   0.984   6.410  15.394  0.5695  0.6449  0.0854
15533TIP3    H168014   0.991   6.369  15.308  1.8933 -1.6891  1.2381
15533TIP3    H268015   0.994   6.503  15.377  0.4906  0.2408 -2.3317
15534TIP3   OH268016   1.624   1.204  14.964 -0.1636 -0.3285 -0.4978
15534TIP3    H168017   1.659   1.152  15.035 -1.3918 -0.2354  0.1804
15534TIP3    H268018   1.616   1.293  15.000 -0.1013 -0.1206 -0.9796
15535TIP3   OH268019   0.581   0.637   1.646 -0.0632  0.0110 -0.1394
15535TIP3    H168020   0.511   0.694   1.614  1.6197  2.5303  0.4658
15535TIP3    H268021   0.635   0.619   1.569  0.1016  0.2883 -0.0898
15536TIP3   OH268022   1.948   3.524  14.477 -0.1719  0.4632 -1.3994
15536TIP3    H168023   1.993   3.455  14.526 -0.4106 -0.3134 -2.2362
15536TIP3    H268024   2.016   3.566  14.425 -0.1300  0.4000 -1.3954
15537TIP3   OH268025   5.066   2.959  15.387 -0.4555 -0.6419  0.0156
15537TIP3    H168026   5.072   3.012  15.307  0.5464 -1.2970 -0.3476
15537TIP3    H268027   5.002   3.006  15.441 -1.3456 -0.3310 -1.2718
15538TIP3   OH268028   4.189   6.243  12.505 -0.1445 -0.5932 -0.2360
15538TIP3    H168029   4.160   6.171  12.450 -0.3158 -0.9452  0.3168
15538TIP3    H268030   4.281   6.223  12.524 -0.1752 -0.6305 -0.1307
15539TIP3   OH268031   4.409   2.371   0.037  0.7986  0.2663 -0.5440
15539TIP3    H168032   4.499   2.341   0.024  1.3096  2.3906 -2.2852
15539TIP3    H268033   4.378   2.393  -0.051 -1.8782 -1.6019 -0.1326
15540TIP3   OH268034   6.362   6.546  11.649 -0.3777 -0.0903  0.1284
15540TIP3    H168035   6.334   6.634  11.627 -1.8229 -1.0614 -2.0534
15540TIP3    H268036   6.396   6.510  11.567  1.3626 -1.1482  1.2743
15541TIP3   OH268037   5.372   6.001  14.871  0.4596 -0.2641 -0.6301
15541TIP3    H168038   5.427   5.935  14.829  1.1141  0.6022 -1.1656
15541TIP3    H268039   5.283   5.969  14.859  0.8513 -1.8135  0.4716
15542TIP3   OH268040   4.043   0.809   4.272 -0.2545 -0.1264  0.1396
15542TIP3    H168041   4.031   0.730   4.220 -0.4605 -0.7714  1.1436
15542TIP3    H268042   4.131   0.839   4.251  0.6330 -1.8163  1.3188
15543TIP3   OH268043   5.768   1.861   4.690 -0.1715  0.3869  0.3834
15543TIP3    H168044   5.717   1.940   4.671 -0.8649 -0.3849 -1.0128
15543TIP3    H268045   5.850   1.874   4.643  0.9892  1.6319  2.6363
15544TIP3   OH268046   5.963   5.289   5.425 -0.3933  0.0924  0.2931
15544TIP3    H168047   6.054   5.315   5.412 -0.4674 -0.4691 -1.5012
15544TIP3    H268048   5.966   5.193   5.424 -0.9685  0.0737  0.4314
15545TIP3   OH268049   3.789   6.498   2.002 -0.9147 -0.2474  0.1963
15545TIP3    H168050   3.784   6.593   2.009 -2.0367 -0.3905  1.5088
15545TIP3    H268051   3.880   6.481   1.975 -0.7545  1.1843 -0.2254
15546TIP3   OH268052   0.942   5.284   1.355  0.4906  0.6033  0.3613
15546TIP3    H168053   0.863   5.318   1.397 -0.4953 -0.0406 -0.9427
15546TIP3    H268054   0.999   5.260   1.428 -0.0578  2.1300  1.3011
15547TIP3   OH268055   5.390   4.123   1.896  0.3918 -0.4132  0.4486
15547TIP3    H168056   5.321   4.150   1.835 -1.5787 -1.1275  2.3087
15547TIP3    H268057   5.348   4.060   1.954  1.9712  0.8587  3.0780
15548TIP3   OH268058   5.839   5.187  12.387  0.0227 -0.4495 -0.1313
15548TIP3    H168059   5.884   5.251  12.442  1.5952 -0.4981 -1.3272
15548TIP3    H268060   5.776   5.145  12.445 -0.3968  1.5514  0.8895
15549TIP3   OH268061   6.368   2.604   1.590 -0.3606 -0.1337  0.0184
15549TIP3    H168062   6.361   2.639   1.502  0.6238  0.8772  0.3263
15549TIP3    H268063   6.329   2.516   1.585  1.7030 -0.9711 -1.9365
15550TIP3   OH268064   5.604   1.139  14.755 -0.0572 -0.2074  0.3548
15550TIP3    H168065   5.593   1.109  14.665 -0.9419 -1.2041  0.7848
15550TIP3    H268066   5.693   1.113  14.779 -0.4345 -1.5095  0.3568
15551TIP3   OH268067   6.757   5.154  14.614 -0.1183 -0.1646 -0.3134
15551TIP3    H168068   6.787   5.119  14.531  2.1022  0.1290  0.3441
15551TIP3    H268069   6.676   5.105  14.633  0.7517 -2.0608 -1.3671
15552TIP3   OH268070   1.260   0.131   0.509 -0.4966  0.5211  0.7103
15552TIP3    H168071   1.328   0.162   0.449 -1.4336  1.7488  0.2595
15552TIP3    H268072   1.216   0.060   0.462 -1.0302  1.2778  0.0665
15553TIP3   OH268073   4.727   5.639  15.179 -0.8734 -0.0741 -0.0420
15553TIP3    H168074   4.768   5.646  15.093 -0.0988 -0.2963  0.3096
15553TIP3    H268075   4.728   5.546  15.199 -2.4916 -0.1983 -0.4779
15554TIP3   OH268076   2.211   4.272  12.258  0.3115  0.1541  0.1667
15554TIP3    H168077   2.138   4.289  12.318  0.0446 -1.5014  0.3214
15554TIP3    H268078   2.288   4.265  12.315  0.7722  2.8308 -0.0741
15555TIP3   OH268079   0.571   3.454  15.736  0.6851  0.3360  0.1960
15555TIP3    H168080   0.627   3.531  15.730  0.5266  0.6378  2.2774
15555TIP3    H268081   0.626   3.381  15.709  1.4099  0.9139  0.1153
15556TIP3   OH268082   2.357   3.033   0.434 -0.2317  0.3758  0.1927
15556TIP3    H168083   2.378   2.983   0.513  0.0890 -0.0333 -0.1520
15556TIP3    H268084   2.332   2.967   0.370  2.3038  0.4651 -0.9472
15557TIP3   OH268085   5.071   2.057  16.113 -0.9079  0.3256  0.3605
15557TIP3    H168086   5.100   2.120  16.179 -0.0049 -1.0600  1.3197
15557TIP3    H268087   5.024   1.990  16.164  0.6873 -1.2925 -0.2351
15558TIP3   OH268088   5.609   0.388   6.575  0.5215 -0.3040 -0.0775
15558TIP3    H168089   5.692   0.343   6.587  0.1251 -1.0374 -0.0420
15558TIP3    H268090   5.586   0.421   6.663 -0.6385 -2.6106  0.5228
15559TIP3   OH268091   5.945   5.064  13.975 -0.4549 -0.5340 -0.2848
15559TIP3    H168092   5.987   5.122  13.911  0.1250 -0.5053  0.1230
15559TIP3    H268093   5.974   4.976  13.950  2.4714 -0.2730  1.9212
15560TIP3   OH268094   4.230   0.520   3.183  0.1720  0.2004  0.3541
15560TIP3    H168095   4.268   0.448   3.232 -1.2432 -0.3806  0.6134
15560TIP3    H268096   4.151   0.543   3.231  0.2922  1.5223 -0.0677
15561TIP3   OH268097   6.555   4.742   3.438 -0.0651  0.3300  0.2339
15561TIP3    H168098   6.639   4.787   3.437 -0.0997  0.4201  1.2577
15561TIP3    H268099   6.576   4.651   3.461  0.0608 -0.3310 -2.2846
15562TIP3   OH268100   4.592   3.579   1.678 -0.7050  0.0610  0.5177
15562TIP3    H168101   4.622   3.542   1.595  3.0259  1.3002  1.1806
15562TIP3    H268102   4.632   3.523   1.745 -1.1036  0.9162  1.4917
15563TIP3   OH268103   1.654   0.743   3.836  0.1001  0.7721 -0.2834
15563TIP3    H168104   1.566   0.776   3.820 -0.3043  0.6332  1.5460
15563TIP3    H268105   1.649   0.700   3.922  1.2056 -1.8615 -1.4638
15564TIP3   OH268106   4.496   0.495  11.391  0.6315 -0.0129 -0.2770
15564TIP3    H168107   4.515   0.545  11.312 -1.7520  1.4220 -0.0051
15564TIP3    H268108   4.406   0.463  11.379  0.7270 -0.9348  1.2475
15565TIP3   OH268109   1.711   3.524   0.400 -0.0104  0.6489 -0.1042
15565TIP3    H168110   1.771   3.452   0.380 -0.1002  0.9224 -1.3843
15565TIP3    H268111   1.751   3.601   0.361 -1.3302  0.7814 -1.2549
15566TIP3   OH268112   5.214   3.062  12.490 -0.3850 -0.3590 -0.3319
15566TIP3    H168113   5.215   3.015  12.406 -0.8708  0.7351 -0.9616
15566TIP3    H268114   5.306   3.063  12.517 -0.3527 -1.5536 -0.3679
15567TIP3   OH268115   6.731   5.357   1.669 -0.5892  0.8950 -0.1204
15567TIP3    H168116   6.643   5.327   1.691 -1.9632  4.0973 -0.9350
15567TIP3    H268117   6.782   5.343   1.749 -1.6807 -1.4425  0.1969
15568TIP3   OH268118   4.046   5.246  11.922  0.0254  0.2678  0.8249
15568TIP3    H168119   4.090   5.262  11.839 -1.0443 -2.0065 -0.2202
15568TIP3    H268120   4.117   5.246  11.987  1.0065  0.9042 -0.2221
15569TIP3   OH268121   3.607   4.126   2.944 -0.2568  0.3151  0.5928
15569TIP3    H168122   3.578   4.071   2.871  1.5490  0.3076 -0.1356
15569TIP3    H268123   3.526   4.163   2.980 -1.4963 -2.7850  1.0946
15570TIP3   OH268124   4.782   2.426  12.449 -0.5986  0.6529  0.4468
15570TIP3    H168125   4.695   2.465  12.439 -0.9882 -0.5640 -1.1482
15570TIP3    H268126   4.776   2.342  12.404  0.2329 -1.3047  3.8486
15571TIP3   OH268127   4.547   2.243  11.953 -0.1689  0.2992  0.2628
15571TIP3    H168128   4.460   2.254  11.992  0.0121  0.9002  0.4920
15571TIP3    H268129   4.601   2.310  11.994  0.2201  0.4094 -0.4272
15572TIP3   OH268130   5.135   1.259  12.982  0.8788  0.3580  0.5233
15572TIP3    H168131   5.089   1.308  12.915  0.0330  0.8624  1.4659
15572TIP3    H268132   5.097   1.171  12.979  2.6017 -0.3622 -1.3689
15573TIP3   OH268133   0.858   6.581  16.195  0.4062 -0.2080 -0.4361
15573TIP3    H168134   0.776   6.609  16.154  0.6296  0.5598 -0.3662
15573TIP3    H268135   0.832   6.510  16.253  0.0586 -1.1708 -1.7628
15574TIP3   OH268136   6.137   6.075   5.001 -0.6943  0.0447 -0.5556
15574TIP3    H168137   6.063   6.066   5.062 -0.5695  1.4420 -0.1687
15574TIP3    H268138   6.114   6.152   4.948  1.0694  1.2513  0.4098
15575TIP3   OH268139   3.096   3.341   3.912  0.0709  0.0760 -0.0153
15575TIP3    H168140   3.002   3.351   3.898  0.0565 -2.0506 -1.7532
15575TIP3    H268141   3.103   3.258   3.960  1.1172 -0.4874 -1.1195
15576TIP3   OH268142   1.313   2.781   0.237  0.1434 -0.0442 -0.0917
15576TIP3    H168143   1.306   2.852   0.172 -4.3417  2.1129  2.5537
15576TIP3    H268144   1.322   2.702   0.184  1.5097  2.0490 -3.2051
15577TIP3   OH268145   4.057   4.804   1.369  0.1885 -0.2566  0.4977
15577TIP3    H168146   4.107   4.822   1.290 -2.6988 -0.2333 -1.4192
15577TIP3    H268147   3.994   4.875   1.375 -0.1886 -0.7158  2.3499
15578TIP3   OH268148   3.772   5.020   1.112 -0.0866  0.4658  0.3498
15578TIP3    H168149   3.836   5.057   1.051 -1.1823  1.0523 -0.4605
15578TIP3    H268150   3.772   5.082   1.186  0.2135  0.5101  0.3142
15579TIP3   OH268151   4.843   6.746   2.890  0.4121  0.7373  0.1812
15579TIP3    H168152   4.837   6.768   2.797 -0.7194  2.1367  0.5645
15579TIP3    H268153   4.934   6.761   2.913  0.4574  1.4258 -0.4533
15580TIP3   OH268154   0.938   5.602   1.699  0.6711 -0.9133  0.1223
15580TIP3    H168155   0.942   5.525   1.642 -0.9652 -0.9152 -0.0423
15580TIP3    H268156   0.844   5.621   1.706  1.0224  0.8707  0.4159
15581TIP3   OH268157   1.738   3.704  16.717 -0.7260  0.3010  0.2841
15581TIP3    H168158   1.699   3.782  16.677  0.4708  1.4243  1.2449
15581TIP3    H268159   1.832   3.713  16.699 -0.4415 -0.3182  1.4182
15582TIP3   OH268160   5.523   5.639  15.779  0.0251 -0.2830 -0.8293
15582TIP3    H168161   5.497   5.650  15.871  0.1701  0.2234 -0.8477
15582TIP3    H268162   5.451   5.678  15.729  0.0545 -0.3539 -0.9276
15583TIP3   OH268163   2.944   2.244  14.236  0.1733  0.1403 -0.6515
15583TIP3    H168164   2.962   2.187  14.311  1.6134  0.1431 -0.9894
15583TIP3    H268165   2.911   2.186  14.168 -1.5589  0.1941  0.1016
15584TIP3   OH268166   6.418   2.161   4.274 -0.0745  0.6262 -0.2398
15584TIP3    H168167   6.417   2.172   4.369  1.1939 -0.8053 -0.0303
15584TIP3    H268168   6.377   2.240   4.240  1.2051  2.0458  1.4345
15585TIP3   OH268169   3.933   0.432  15.007 -0.0825 -0.0067 -0.5341
15585TIP3    H168170   3.922   0.417  15.101 -0.7823  1.7123 -0.3143
15585TIP3    H268171   4.005   0.495  15.001  2.0422 -2.4657 -1.3443
15586TIP3   OH268172   2.358   4.151   4.480 -0.0587  0.0550 -0.1304
15586TIP3    H168173   2.348   4.057   4.497 -0.0387  0.3155  1.4710
15586TIP3    H268174   2.281   4.191   4.521  0.3207  0.7920 -0.1356
15587TIP3   OH268175   5.600   5.346  13.121  0.5074 -0.4325 -0.2841
15587TIP3    H168176   5.578   5.362  13.029  1.2055 -0.3678 -0.4428
15587TIP3    H268177   5.673   5.405  13.139 -0.4546  0.4870  0.6802
15588TIP3   OH268178   2.960   4.383   1.508  0.1578  0.6230  0.2824
15588TIP3    H168179   2.976   4.289   1.497  0.3688  0.5585  1.1143
15588TIP3    H268180   2.963   4.418   1.419  0.8255 -0.0395  0.0338
15589TIP3   OH268181   4.634   5.942   0.642  0.0939  0.1036 -0.4051
15589TIP3    H168182   4.617   5.860   0.688  0.3581 -0.3527 -1.1043
15589TIP3    H268183   4.557   5.996   0.660  0.1206 -0.1293  0.4247
15590TIP3   OH268184   0.071   4.536  12.392  0.2019 -0.0252  0.8020
15590TIP3    H168185   0.070   4.458  12.336 -2.2296 -0.1249  0.9582
15590TIP3    H268186   0.108   4.506  12.475 -0.8804 -1.0640  0.9197
15591TIP3   OH268187   2.845   5.068   6.319  0.3955 -0.4022  0.1003
15591TIP3    H168188   2.927   5.067   6.369  1.4591  0.4569 -1.5888
15591TIP3    H268189   2.801   5.149   6.346  0.7680 -0.1566 -0.0229
15592TIP3   OH268190   5.122   4.980  15.736 -0.6545  0.4288  0.0954
15592TIP3    H168191   5.170   4.903  15.766 -0.0632  1.2632  1.3573
15592TIP3    H268192   5.040   4.977  15.785 -0.1229  1.2360  1.0610
15593TIP3   OH268193   4.429   4.927   1.779 -0.1776  0.4411 -0.5835
15593TIP3    H168194   4.501   4.927   1.717 -1.6194 -0.7510 -2.3161
15593TIP3    H268195   4.431   5.014   1.819  1.3379  0.8976 -1.6230
15594TIP3   OH268196   1.181   2.921   4.521  0.0471  0.1876  0.1797
15594TIP3    H168197   1.247   2.878   4.466 -0.6747  0.6665 -1.0624
15594TIP3    H268198   1.216   2.913   4.610  0.6209 -1.7021 -0.1874
15595TIP3   OH268199   5.855   5.241  13.609 -0.0089 -0.0287 -0.1320
15595TIP3    H168200   5.768   5.203  13.603  0.1519 -0.0977 -2.1846
15595TIP3    H268201   5.871   5.249  13.703 -1.5768 -1.4763  0.2716
15596TIP3   OH268202   4.723   3.852   5.281  0.1118 -0.3726  0.3718
15596TIP3    H168203   4.723   3.794   5.357 -0.3002 -0.3273  0.4075
15596TIP3    H268204   4.633   3.850   5.249  0.5476 -1.3776 -0.8649
15597TIP3   OH268205   6.600   2.079   1.994 -0.3150 -0.3740 -0.3628
15597TIP3    H168206   6.689   2.114   1.987 -0.3355 -0.1478  0.4594
15597TIP3    H268207   6.546   2.143   1.949  0.0099 -0.7911 -1.3448
15598TIP3   OH268208   2.309   1.940   0.255  0.5343  0.3288  0.0223
15598TIP3    H168209   2.340   1.882   0.185  2.8146  1.8465 -0.2503
15598TIP3    H268210   2.380   1.941   0.319 -1.2343 -0.4621  2.0600
15599TIP3   OH268211   3.740   2.628   5.612  1.2505 -0.1146  0.0819
15599TIP3    H168212   3.756   2.638   5.518  2.1299 -0.3074  0.2100
15599TIP3    H268213   3.654   2.585   5.616  0.8937  0.5133 -0.6147
15600TIP3   OH268214   5.188   3.850  14.276 -0.3143 -0.3295  0.0384
15600TIP3    H168215   5.123   3.780  14.272  0.8140 -1.2962 -2.4938
15600TIP3    H268216   5.248   3.823  14.345 -0.0684 -1.7365 -0.7009
15601TIP3   OH268217   0.594   0.914   1.718 -0.7299 -0.2650 -0.9141
15601TIP3    H168218   0.634   0.900   1.804 -1.4380 -2.6807 -0.9540
15601TIP3    H268219   0.660   0.886   1.655 -1.3786 -1.5062 -1.0562
15602TIP3   OH268220   5.752   3.445  16.813  0.2223 -0.3246 -0.1548
15602TIP3    H168221   5.682   3.438  16.879  0.3677 -1.4952 -0.1204
15602TIP3    H268222   5.718   3.510  16.751  0.0170  0.6821  0.9755
15603TIP3   OH268223   3.444   1.834   3.542  0.0166 -0.3721  0.5639
15603TIP3    H168224   3.518   1.871   3.494 -0.6002 -0.1788 -0.2610
15603TIP3    H268225   3.461   1.855   3.633  0.7253  0.1126  0.3259
15604TIP3   OH268226   2.494   2.963   2.464  0.3943 -0.3798 -0.1207
15604TIP3    H168227   2.412   3.012   2.455  1.2975  0.9646 -1.3535
15604TIP3    H268228   2.550   2.999   2.396  1.8044 -1.7262  0.3099
15605TIP3   OH268229   4.099   5.990  13.235 -0.5533 -0.0216  0.0702
15605TIP3    H168230   4.161   5.964  13.304 -0.2718 -1.0455 -0.5551
15605TIP3    H268231   4.154   6.020  13.163 -0.7699 -0.9629 -0.4995
15606TIP3   OH268232   0.537   3.378   3.527  0.0035 -0.0121 -0.5126
15606TIP3    H168233   0.566   3.468   3.546 -0.5203 -0.0179  0.3301
15606TIP3    H268234   0.593   3.350   3.455  2.3212 -0.1055  1.2272
15607TIP3   OH268235   0.289   6.278  13.575  0.1774 -0.3300  0.5088
15607TIP3    H168236   0.340   6.357  13.557  1.3370 -1.2356 -0.3285
15607TIP3    H268237   0.263   6.246  13.488 -0.8891 -0.4809  0.8756
15608TIP3   OH268238   6.634   1.016  16.685  0.6576  0.1423 -0.0533
15608TIP3    H168239   6.595   1.103  16.675  0.5169 -0.0269 -0.9686
15608TIP3    H268240   6.601   0.966  16.611  0.9444 -0.6234  0.3321
15609TIP3   OH268241   1.415   4.543   3.125  0.2177 -0.1017  0.2509
15609TIP3    H168242   1.483   4.585   3.177 -1.0007  1.1654  0.8348
15609TIP3    H268243   1.423   4.450   3.146  1.0481  0.1693  1.1644
15610TIP3   OH268244   4.940   0.468   4.098  0.4354 -0.0319 -0.5082
15610TIP3    H168245   4.879   0.456   4.025 -2.3436 -0.3652  1.7806
15610TIP3    H268246   5.004   0.398   4.087 -1.2427 -1.4721 -1.3953
15611TIP3   OH268247   5.312   1.949  13.471  0.3629 -0.0186 -0.1606
15611TIP3    H168248   5.223   1.938  13.505  0.5647  0.9367  0.7026
15611TIP3    H268249   5.302   2.009  13.397  0.2811  0.0888 -0.0629
15612TIP3   OH268250   4.197   6.576  11.077  0.3761  0.2813 -0.8962
15612TIP3    H168251   4.180   6.659  11.121  1.3405 -1.5218  3.1466
15612TIP3    H268252   4.118   6.560  11.025 -1.3875  1.9918  1.1622
15613TIP3   OH268253   4.141   4.270  17.032  0.0594 -0.2261 -0.1603
15613TIP3    H168254   4.094   4.200  16.987  1.1891 -0.3585 -1.1897
15613TIP3    H268255   4.231   4.261  17.000  0.4819  0.8695  0.7183
15614TIP3   OH268256   4.962   0.753  12.506 -0.4845 -0.3517  0.0130
15614TIP3    H168257   4.990   0.725  12.419  0.0015 -0.9768  0.3646
15614TIP3    H268258   4.964   0.848  12.503 -2.9372 -0.3193 -1.4612
15615TIP3   OH268259   5.617   4.563  14.988 -0.1643 -0.4715 -0.1806
15615TIP3    H168260   5.669   4.642  15.002 -1.0400 -0.5267  4.0660
15615TIP3    H268261   5.681   4.492  14.994 -0.1719 -0.3504  1.5468
15616TIP3   OH268262   6.767   4.407  15.965  0.7844 -0.2635 -0.1373
15616TIP3    H168263   6.858   4.423  15.942  0.7495 -0.0299 -0.1085
15616TIP3    H268264   6.767   4.318  16.002  1.6231  1.0560  3.2312
15617TIP3   OH268265   2.944   1.513  12.939 -0.5813  0.0896 -0.4429
15617TIP3    H168266   2.994   1.577  12.889 -0.8724  0.4934 -0.2137
15617TIP3    H268267   2.961   1.430  12.895  1.4481 -0.0122  0.4668
15618TIP3   OH268268   1.764   6.129  10.933  0.0463 -0.1278 -0.7222
15618TIP3    H168269   1.828   6.058  10.924 -0.1815 -0.3561 -0.5697
15618TIP3    H268270   1.802   6.202  10.885  0.3700 -0.2969 -0.7273
15619TIP3   OH268271   0.966   1.263   2.190  0.6374  0.1844  0.1793
15619TIP3    H168272   0.894   1.263   2.126  0.2239 -0.7413  0.6321
15619TIP3    H268273   1.032   1.204   2.152  0.5210 -0.1264  0.4515
15620TIP3   OH268274   1.720   5.045   5.621  0.3738 -0.1149 -0.5152
15620TIP3    H168275   1.672   4.979   5.671 -0.3684  2.0412  1.7342
15620TIP3    H268276   1.653   5.110   5.599  1.4735  0.8817 -0.9138
15621TIP3   OH268277   4.975   1.369   0.635 -0.6388 -0.7710  0.5746
15621TIP3    H168278   4.883   1.393   0.631 -0.6614 -0.7120  1.4328
15621TIP3    H268279   4.975   1.274   0.622 -0.7931 -0.7242  0.2321
15622TIP3   OH268280   3.835   1.616   1.339 -0.3398  0.0086 -0.4147
15622TIP3    H168281   3.916   1.571   1.314 -0.4929  0.0719 -1.0465
15622TIP3    H268282   3.853   1.708   1.324 -0.8476 -0.0554 -1.5023
15623TIP3   OH268283   5.299   6.513  13.506 -0.3963 -0.2485 -0.0317
15623TIP3    H168284   5.301   6.489  13.414  0.4929  2.2247 -0.7118
15623TIP3    H268285   5.283   6.608  13.505  0.7646  0.0131  2.3019
15624TIP3   OH268286   0.434   6.154  14.018 -0.0091 -0.3487  0.8403
15624TIP3    H168287   0.463   6.063  14.017  2.0574  0.2944 -1.1571
15624TIP3    H268288   0.444   6.184  13.928 -2.4668  1.3313  1.0621
15625TIP3   OH268289   5.765   6.193  15.951  0.1482 -0.2547 -0.4015
15625TIP3    H168290   5.835   6.131  15.933 -0.5016 -1.1748  0.2052
15625TIP3    H268291   5.694   6.167  15.893  0.8955  1.7514 -2.2901
15626TIP3   OH268292   0.295   1.485   1.897 -0.1088 -0.5515  0.6515
15626TIP3    H168293   0.235   1.557   1.913  0.8158  0.3373  0.1628
15626TIP3    H268294   0.247   1.425   1.841 -0.6327  0.0239  0.4799
15627TIP3   OH268295   5.800   4.200  15.991 -0.4328  0.2585  0.5262
15627TIP3    H168296   5.835   4.284  16.020  0.8166  0.7980 -2.3984
15627TIP3    H268297   5.868   4.136  16.012 -0.1651  0.4268  0.1831
15628TIP3   OH268298   4.802   3.682  15.156 -0.6667  0.3374  0.7326
15628TIP3    H168299   4.763   3.595  15.162  0.7176 -0.6653 -3.2178
15628TIP3    H268300   4.728   3.739  15.134 -0.8912 -0.6594 -1.2857
15629TIP3   OH268301   2.618   4.097  12.409 -0.3099  0.0214 -0.2750
15629TIP3    H168302   2.600   4.174  12.463 -1.1417 -0.7319  0.5278
15629TIP3    H268303   2.595   4.124  12.320  0.9877  1.2412 -0.2602
15630TIP3   OH268304   3.783   3.670   5.172 -0.1689 -0.3140  0.7388
15630TIP3    H168305   3.865   3.670   5.123  0.7145  1.7607  2.1849
15630TIP3    H268306   3.734   3.596   5.136  0.5050  1.0445 -3.1603
15631TIP3   OH268307   3.245   1.725  15.533 -0.2131 -0.4228  0.5994
15631TIP3    H168308   3.205   1.688  15.612 -1.7536  0.0279  0.0452
15631TIP3    H268309   3.331   1.685  15.529  0.1922  0.1101  2.9340
15632TIP3   OH268310   4.272   3.196   0.411 -0.0605  0.2436 -0.1973
15632TIP3    H168311   4.344   3.133   0.407  0.7729  0.9256  2.9535
15632TIP3    H268312   4.309   3.277   0.378 -0.0022  0.0878 -0.5212
15633TIP3   OH268313   1.321   4.172  16.429 -0.2277  0.3892  0.0698
15633TIP3    H168314   1.246   4.189  16.486  0.2065  2.5467  0.0233
15633TIP3    H268315   1.291   4.196  16.341  0.5969  1.5554  0.0988
15634TIP3   OH268316   1.169   1.508  13.368  0.3759 -0.4598 -0.1386
15634TIP3    H168317   1.140   1.564  13.440  1.6715 -0.2687  0.2644
15634TIP3    H268318   1.228   1.563  13.317  0.7673 -1.0961 -0.3867
15635TIP3   OH268319   4.447   4.724  16.389 -0.3296  0.1004 -0.2627
15635TIP3    H168320   4.506   4.657  16.355  2.1212  1.4826  1.1787
15635TIP3    H268321   4.362   4.704  16.348  0.8981 -2.4452 -1.6605
15636TIP3   OH268322   3.946   1.569  16.005  0.4084  0.0247  0.1834
15636TIP3    H168323   3.981   1.482  16.020  0.9458  0.4037  1.1818
15636TIP3    H268324   3.859   1.554  15.967 -0.4465 -0.9532  2.4883
15637TIP3   OH268325   2.211   1.104   6.640  0.2922  0.0247 -0.2677
15637TIP3    H168326   2.286   1.114   6.582 -0.4269 -1.6251 -1.5087
15637TIP3    H268327   2.242   1.045   6.709  0.3323 -0.1409 -0.4276
15638TIP3   OH268328   1.327   4.104   3.715 -0.4069 -0.4941 -0.5249
15638TIP3    H168329   1.374   4.157   3.780 -0.8785  1.1189 -1.4639
15638TIP3    H268330   1.368   4.018   3.720  1.3652  0.3563  0.0283
15639TIP3   OH268331   0.095   6.558  15.458 -0.3474 -0.3853 -0.1651
15639TIP3    H168332   0.150   6.636  15.450 -0.6342 -0.1761 -0.1215
15639TIP3    H268333   0.038   6.578  15.533 -0.7826 -0.4151 -0.4876
15640TIP3   OH268334   2.208   2.401  10.912  0.5177 -0.1320  0.1927
15640TIP3    H168335   2.153   2.469  10.952  3.0425  1.7226  0.6658
15640TIP3    H268336   2.182   2.400  10.820  0.0591  1.1158  0.3004
15641TIP3   OH268337   0.252   4.516  15.890 -0.2312  0.3436  0.1258
15641TIP3    H168338   0.285   4.429  15.912  0.1305 -0.0732 -1.9276
15641TIP3    H268339   0.331   4.570  15.882 -0.2034  0.0758 -1.7431
15642TIP3   OH268340   2.269   6.056  11.219  0.6633  0.0960  0.0002
15642TIP3    H168341   2.362   6.041  11.235  0.4415 -0.8326  0.4535
15642TIP3    H268342   2.225   5.982  11.260 -0.4204  1.5143  1.4791
15643TIP3   OH268343   4.500   6.071  15.190 -0.1563  0.3664 -0.4820
15643TIP3    H168344   4.468   6.161  15.196 -0.9289  0.1356 -1.0464
15643TIP3    H268345   4.581   6.077  15.140 -0.0780  0.7774 -0.3030
15644TIP3   OH268346   4.296   2.662  12.417 -0.2156 -0.0426  0.2256
15644TIP3    H168347   4.321   2.662  12.510  1.6131  0.1690 -0.2392
15644TIP3    H268348   4.239   2.586  12.408 -0.9030  0.2823  1.6450
15645TIP3   OH268349   3.382   0.840   0.482  0.0763 -0.5910  0.0308
15645TIP3    H168350   3.359   0.843   0.575  2.8470 -1.4669  0.7647
15645TIP3    H268351   3.345   0.921   0.446 -2.2794 -0.9358  1.5613
15646TIP3   OH268352   5.675   3.202   3.240 -0.2456 -0.3455  0.3575
15646TIP3    H168353   5.646   3.292   3.252  1.0208  0.2106 -0.6129
15646TIP3    H268354   5.598   3.149   3.258 -0.5100  0.8279  2.8199
15647TIP3   OH268355   2.223   2.835  15.679 -0.8398  0.1349 -0.4103
15647TIP3    H168356   2.216   2.920  15.723 -0.3823  0.5757 -1.1879
15647TIP3    H268357   2.137   2.822  15.639 -0.3773  1.0426 -1.7479
15648TIP3   OH268358   5.912   0.317   0.107 -0.0342 -0.4375  0.4519
15648TIP3    H168359   5.972   0.364   0.165  1.5150  0.1777 -1.6174
15648TIP3    H268360   5.954   0.232   0.093  0.2201 -0.0998 -0.8029
15649TIP3   OH268361   1.480   1.524   4.205  0.1641  0.3523 -0.8200
15649TIP3    H168362   1.470   1.451   4.266 -1.3365  1.1159 -0.1454
15649TIP3    H268363   1.532   1.487   4.133 -0.0073 -1.1906 -0.1839
15650TIP3   OH268364   3.586   2.105   2.869 -0.0375 -0.2552 -0.3029
15650TIP3    H168365   3.599   2.078   2.960  1.1269  0.0172 -0.3801
15650TIP3    H268366   3.565   2.198   2.874 -0.7266 -0.4045 -0.2734
15651TIP3   OH268367   3.719   4.306   1.570 -0.1993 -1.1312 -0.5119
15651TIP3    H168368   3.773   4.364   1.516 -0.2257 -1.1580 -0.5671
15651TIP3    H268369   3.782   4.254   1.620 -0.1448  1.3508  2.1413
15652TIP3   OH268370   6.240   0.014   6.020 -0.5141 -0.1646  0.2062
15652TIP3    H168371   6.253   0.064   5.940 -0.7022  0.2997  0.4641
15652TIP3    H268372   6.225   0.080   6.088  0.4428 -0.5276  0.7740
15653TIP3   OH268373   1.414   0.590   0.341  0.0797 -0.2923 -0.2114
15653TIP3    H168374   1.349   0.634   0.397 -1.0856 -2.5326  0.2889
15653TIP3    H268375   1.431   0.507   0.386 -0.4205 -1.8856 -2.8522
15654TIP3   OH268376   4.999   3.853   1.830 -0.2933 -0.3296 -0.8550
15654TIP3    H168377   4.928   3.791   1.812  1.4288 -2.6092 -0.0775
15654TIP3    H268378   4.991   3.873   1.923  0.7535 -1.5215 -0.4899
15655TIP3   OH268379   2.744   6.722  16.103 -0.1536  0.0519 -0.0671
15655TIP3    H168380   2.692   6.697  16.179 -0.4554  0.8844  0.0094
15655TIP3    H268381   2.703   6.802  16.070  0.9731  0.6322 -0.1109
15656TIP3   OH268382   1.888   5.190   3.332  0.1982  0.3384 -0.1320
15656TIP3    H168383   1.969   5.232   3.302 -0.9923  1.7966 -1.4165
15656TIP3    H268384   1.896   5.099   3.302  0.8736  0.7529 -1.2517
15657TIP3   OH268385   2.218   1.928   1.757  0.2035 -0.0531 -0.3125
15657TIP3    H168386   2.303   1.957   1.725 -0.0328  2.1947  0.9302
15657TIP3    H268387   2.156   1.993   1.723 -0.8436 -1.0014 -0.2498
15658TIP3   OH268388   5.843   5.783   4.211  0.0447  0.3905  0.1604
15658TIP3    H168389   5.899   5.817   4.142  0.5541  0.8749  0.8085
15658TIP3    H268390   5.839   5.853   4.276 -1.7321  0.5651 -0.1149
15659TIP3   OH268391   4.158   3.421   0.134  0.1858  0.0968  0.1791
15659TIP3    H168392   4.178   3.498   0.188  0.2438  1.9071 -2.3147
15659TIP3    H268393   4.244   3.388   0.107  0.1274 -0.2021  0.3539
15660TIP3   OH268394   1.993   2.419  11.356  0.7700 -0.3651 -0.0883
15660TIP3    H168395   1.912   2.432  11.306  1.0344  0.1583 -0.3838
15660TIP3    H268396   2.026   2.335  11.326  0.3399 -0.5770  0.0254
15661TIP3   OH268397   0.275   3.097   5.470 -0.4603  0.0443  0.3701
15661TIP3    H168398   0.349   3.154   5.493 -0.9651  0.0571  2.0398
15661TIP3    H268399   0.203   3.130   5.524 -1.6881  0.0282 -1.2446
15662TIP3   OH268400   0.448   0.254   5.119  0.7151 -0.6879 -0.3396
15662TIP3    H168401   0.391   0.201   5.064  1.1404 -1.9350  0.4143
15662TIP3    H268402   0.511   0.192   5.155 -0.8881 -0.2543  3.3346
15663TIP3   OH268403   4.970   5.194   4.494  0.5010  0.4750 -0.2751
15663TIP3    H168404   4.891   5.163   4.536  0.9009 -1.0249 -0.6107
15663TIP3    H268405   4.974   5.146   4.411  1.2460  1.2575 -0.7037
15664TIP3   OH268406   5.202   4.018   3.943 -0.5962 -0.1526 -0.1293
15664TIP3    H168407   5.133   4.068   3.899  0.9203  1.4303 -0.7772
15664TIP3    H268408   5.166   3.999   4.030 -2.3125 -0.4002 -0.8759
15665TIP3   OH268409   5.162   1.744  13.734  0.0305 -0.4656  0.4085
15665TIP3    H168410   5.150   1.658  13.695  0.7056 -0.4907  0.2597
15665TIP3    H268411   5.241   1.736  13.787  0.3667  0.1914  0.0201
15666TIP3   OH268412   3.795   0.459   0.657 -0.1937  0.2567  0.7133
15666TIP3    H168413   3.700   0.466   0.663 -0.1902  1.0633 -0.1318
15666TIP3    H268414   3.815   0.475   0.565  0.8143  0.7289  1.0026
15667TIP3   OH268415   6.334   0.659  14.482 -0.0302 -0.3157 -0.1441
15667TIP3    H168416   6.266   0.721  14.508  1.3391  0.0333  2.8289
15667TIP3    H268417   6.290   0.574  14.483 -0.6803  0.0207  0.7517
15668TIP3   OH268418   3.990   3.697   4.988  0.4856 -0.0254  0.2180
15668TIP3    H168419   4.072   3.692   5.036  0.1867  2.4235  1.0261
15668TIP3    H268420   3.986   3.786   4.954 -1.2898 -0.4541 -0.8097
15669TIP3   OH268421   0.071   4.746   5.830 -0.8953 -0.5917 -0.1628
15669TIP3    H168422   0.051   4.671   5.887 -0.3247 -0.3623  0.3458
15669TIP3    H268423   0.021   4.819   5.868  0.4819 -0.1415  0.8012
15670TIP3   OH268424   3.510   3.172   5.540 -0.3018 -0.5003  0.0068
15670TIP3    H168425   3.463   3.193   5.620  2.4072  1.3640  1.1664
15670TIP3    H268426   3.579   3.112   5.567  0.1350 -0.4983 -1.0571
15671TIP3   OH268427   4.969   2.644   3.402  0.6360 -0.6629 -0.3418
15671TIP3    H168428   4.930   2.649   3.315  1.9413  0.5857 -0.8895
15671TIP3    H268429   5.062   2.663   3.387  0.8244 -0.1749  1.3484
15672TIP3   OH268430   6.467   4.646   4.018  0.4972  0.3395  0.0630
15672TIP3    H168431   6.478   4.675   3.928  0.4412  0.5474  0.1245
15672TIP3    H268432   6.528   4.699   4.068 -2.3041  3.0596  0.7255
15673TIP3   OH268433   1.226   0.282   5.861  1.1445  0.8911  0.4547
15673TIP3    H168434   1.299   0.343   5.848  0.3215  2.3575  2.4496
15673TIP3    H268435   1.219   0.272   5.956  0.2303 -1.0727  0.2064
15674TIP3   OH268436   3.684   6.125  13.447  0.1967 -0.0101 -0.2003
15674TIP3    H168437   3.673   6.196  13.384  0.9955  0.6902  0.4270
15674TIP3    H268438   3.778   6.124  13.467  0.5362 -2.5581 -1.6989
15675TIP3   OH268439   0.941   1.116   5.734  0.4193 -0.6663  0.4820
15675TIP3    H168440   0.991   1.148   5.810 -1.0301 -0.2045  1.2620
15675TIP3    H268441   0.868   1.067   5.773 -1.1853  0.8421 -0.5701
15676TIP3   OH268442   0.032   4.915  13.930  0.2786 -0.2718  0.0167
15676TIP3    H168443  -0.060   4.906  13.906 -0.0649 -0.4415  1.3365
15676TIP3    H268444   0.038   5.002  13.970  0.3473 -0.8820  1.3744
15677TIP3   OH268445   1.477   1.955  12.311 -0.1933  0.3754  0.1586
15677TIP3    H168446   1.558   1.907  12.328  0.4475  1.6468  0.7267
15677TIP3    H268447   1.421   1.933  12.385  0.3499  1.0482  0.7699
15678TIP3   OH268448   3.395   0.093   1.938 -0.0654 -0.4190 -0.4017
15678TIP3    H168449   3.471   0.077   1.882 -0.7631  1.1555 -1.8256
15678TIP3    H268450   3.319   0.087   1.879 -0.9118 -0.1553  0.6385
15679TIP3   OH268451   2.759   4.628   1.850  0.5238 -0.0005  0.0040
15679TIP3    H168452   2.829   4.588   1.902  1.1611  0.3280 -0.5919
15679TIP3    H268453   2.726   4.558   1.794  0.7679 -0.0111 -0.1256
15680TIP3   OH268454   3.734   2.133   0.976 -0.8436  0.7089 -0.1729
15680TIP3    H168455   3.724   2.040   0.996  1.3190  0.6295  0.7359
15680TIP3    H268456   3.744   2.136   0.881 -1.5802  0.0916 -0.2784
15681TIP3   OH268457   1.424   2.936  11.850 -0.5951  0.2040 -0.1464
15681TIP3    H168458   1.460   2.931  11.762 -0.5266 -1.1358 -0.0484
15681TIP3    H268459   1.486   2.990  11.898  1.1408 -1.7970 -0.0629
15682TIP3   OH268460   4.143   4.867  16.735  0.2644  0.0562  0.2613
15682TIP3    H168461   4.184   4.822  16.809 -1.0779 -0.9354  0.4287
15682TIP3    H268462   4.102   4.944  16.775  1.8875  1.0182  0.1030
15683TIP3   OH268463   1.857   0.825  12.077 -0.1171  0.2140  0.3159
15683TIP3    H168464   1.843   0.899  12.137 -0.9764 -0.2395  0.6756
15683TIP3    H268465   1.916   0.767  12.125 -0.9344 -0.2275  0.7925
15684TIP3   OH268466   1.145   1.222  15.825  0.4894 -0.2152 -0.5851
15684TIP3    H168467   1.109   1.230  15.736  0.4732  2.6655 -0.3841
15684TIP3    H268468   1.239   1.207  15.812  0.7265  1.6166 -1.1184
15685TIP3   OH268469   3.747   0.005  15.791 -0.0206 -0.2512 -0.1520
15685TIP3    H168470   3.821  -0.040  15.833  0.6033 -0.7366 -1.7299
15685TIP3    H268471   3.669  -0.031  15.833  0.6294  0.2631  1.5279
15686TIP3   OH268472   0.340   6.627  13.033  0.0773  0.6858  0.3228
15686TIP3    H168473   0.250   6.624  13.003  0.3078 -0.1890 -0.2974
15686TIP3    H268474   0.359   6.537  13.062  1.3377  0.3881 -1.3456
15687TIP3   OH268475   3.974   3.263   1.355  0.2037 -0.0600 -0.5119
15687TIP3    H168476   3.968   3.342   1.302 -0.5481  0.8396  0.8767
15687TIP3    H268477   3.931   3.195   1.302 -1.9203  1.1684 -0.4283
15688TIP3   OH268478   6.616   0.637  15.821  0.2472 -0.5618  0.5204
15688TIP3    H168479   6.689   0.594  15.865  0.3726 -0.2228  0.6439
15688TIP3    H268480   6.624   0.609  15.729  1.4607  0.7143  0.2140
15689TIP3   OH268481   5.997   4.444  15.442  0.0819 -0.4773  0.0583
15689TIP3    H168482   6.076   4.497  15.434 -2.6559  4.4714  3.2334
15689TIP3    H268483   6.004   4.401  15.527 -1.2444  1.1302  0.9974
15690TIP3   OH268484   0.551   4.383  16.467 -0.2949  0.3193 -0.4153
15690TIP3    H168485   0.627   4.440  16.454 -0.8570  0.8672 -1.3788
15690TIP3    H268486   0.489   4.410  16.399 -1.5487  0.2204  0.6800
15691TIP3   OH268487   3.379   3.708   4.693 -0.1399 -0.1362 -0.4182
15691TIP3    H168488   3.447   3.769   4.667  0.4178 -0.7863 -0.5072
15691TIP3    H268489   3.379   3.641   4.625 -1.3818  0.2443 -0.8138
15692TIP3   OH268490   5.892   0.559   1.079 -0.0291  0.2344  0.3197
15692TIP3    H168491   5.802   0.526   1.074  0.2318 -0.2596 -1.6943
15692TIP3    H268492   5.917   0.546   1.170 -1.8478 -0.0365  0.8042
15693TIP3   OH268493   3.017   5.029   5.074  0.6315  0.0142  0.0916
15693TIP3    H168494   3.012   5.013   5.168  0.2277 -0.3447  0.0089
15693TIP3    H268495   3.088   5.093   5.065  0.2000  0.5973  0.7032
15694TIP3   OH268496   6.768   2.298   1.457 -0.2720  0.2443  0.4696
15694TIP3    H168497   6.744   2.389   1.476 -1.1956  0.2875 -0.7907
15694TIP3    H268498   6.836   2.305   1.389 -1.1932 -0.0148 -0.4967
15695TIP3   OH268499   5.611   4.782  16.780 -0.4798  0.3668 -0.3000
15695TIP3    H168500   5.524   4.807  16.749 -0.8740  0.3865  0.7974
15695TIP3    H268501   5.604   4.689  16.801 -0.5282  0.5913  0.7286
15696TIP3   OH268502   0.417   4.255  11.903  0.4122  0.2317 -0.5054
15696TIP3    H168503   0.476   4.296  11.840  1.2520  1.3219  0.9850
15696TIP3    H268504   0.464   4.177  11.933  1.4166  1.4791  1.2100
15697TIP3   OH268505   4.587   1.816   0.776  0.3596  0.2791  0.2437
15697TIP3    H168506   4.567   1.907   0.795 -2.5397 -0.1437 -0.4918
15697TIP3    H268507   4.633   1.818   0.692 -1.3390  0.9558 -0.6882
15698TIP3   OH268508   1.411   0.750   6.524 -0.2594 -0.1450  0.5817
15698TIP3    H168509   1.342   0.721   6.465  0.0653  0.7256 -0.2439
15698TIP3    H268510   1.435   0.672   6.573 -0.8699 -0.7690 -0.1033
15699TIP3   OH268511   2.424   5.859   0.133  0.0800  0.0872  0.4799
15699TIP3    H168512   2.431   5.779   0.185  0.1351 -0.2116  0.0179
15699TIP3    H268513   2.332   5.864   0.109 -0.0199  0.4402  0.9487
15700TIP3   OH268514   5.518   1.920  16.174 -0.0470 -0.6235  0.3719
15700TIP3    H168515   5.510   1.829  16.145  2.0131 -1.8805  3.4355
15700TIP3    H268516   5.604   1.924  16.217  0.3899  3.0872 -0.6370
15701TIP3   OH268517   4.765   1.658   3.507  0.0474 -0.2233  0.2103
15701TIP3    H168518   4.671   1.677   3.514  0.4280  1.9723 -0.4369
15701TIP3    H268519   4.783   1.600   3.582 -1.4074  0.9583  1.5056
15702TIP3   OH268520   1.082   2.178  13.905  0.0003  0.0980  0.1302
15702TIP3    H168521   1.089   2.084  13.918  0.9500  0.1720  0.2435
15702TIP3    H268522   0.999   2.202  13.945  0.0066 -0.6168  0.5809
15703TIP3   OH268523   0.774   2.256  15.869 -0.1724  0.5308 -0.3611
15703TIP3    H168524   0.706   2.243  15.935  1.4106 -0.0712  1.1949
15703TIP3    H268525   0.754   2.193  15.800 -0.7413 -0.1839  0.4478
15704TIP3   OH268526   0.466   4.361  13.596  0.3818  0.2707  0.0424
15704TIP3    H168527   0.439   4.432  13.655 -0.2611  0.7156 -0.7790
15704TIP3    H268528   0.552   4.335  13.629 -0.4640 -0.2888  1.9038
15705TIP3   OH268529   5.973   0.018   1.391 -0.3352 -0.0187 -0.2734
15705TIP3    H168530   5.970   0.114   1.387  2.9903  0.1509 -0.2060
15705TIP3    H268531   5.950  -0.002   1.481  2.3851  0.9852  0.7005
15706TIP3   OH268532   6.311   5.366   0.548  0.2368  0.2969 -0.7601
15706TIP3    H168533   6.327   5.400   0.460  2.2010  0.2800 -0.4146
15706TIP3    H268534   6.318   5.443   0.604  1.5982 -0.1256 -0.3320
15707TIP3   OH268535   5.160   1.848   4.309  0.5744 -0.4870 -0.1552
15707TIP3    H168536   5.187   1.806   4.227  0.3506 -0.2118 -0.3724
15707TIP3    H268537   5.134   1.775   4.366 -2.2796 -0.5421 -1.4187
15708TIP3   OH268538   1.238   6.617   5.815 -0.0578  0.3447 -0.2221
15708TIP3    H168539   1.183   6.575   5.749 -1.5181  1.3346  0.3401
15708TIP3    H268540   1.194   6.599   5.898  0.9617  0.3825  0.3402
15709TIP3   OH268541   3.494   3.883  14.611  0.0554  0.1570 -0.1357
15709TIP3    H168542   3.485   3.977  14.624 -0.6986  0.0710 -0.0075
15709TIP3    H268543   3.542   3.853  14.689  1.7333  0.6556 -0.9506
15710TIP3   OH268544   6.690   0.069  12.094  0.2646  0.4624  0.2271
15710TIP3    H168545   6.729   0.103  12.174 -0.6183  0.1142  0.8098
15710TIP3    H268546   6.731   0.121  12.024  0.2879  1.4645  0.9683
15711TIP3   OH268547   4.447   0.157   0.223 -0.4789 -0.1387  0.1571
15711TIP3    H168548   4.542   0.171   0.222 -0.7690  1.9668  0.1265
15711TIP3    H268549   4.432   0.096   0.151  1.0277 -1.9196  1.2741
15712TIP3   OH268550   2.786   2.508  13.035  0.2247  0.3164 -0.0140
15712TIP3    H168551   2.844   2.582  13.020  1.5984 -1.0618 -1.6012
15712TIP3    H268552   2.813   2.442  12.972 -0.6187 -1.7669  1.7222
15713TIP3   OH268553   1.026   1.653  17.207 -0.1996 -0.2039  0.0938
15713TIP3    H168554   0.996   1.569  17.174 -1.4833  1.2173 -2.4553
15713TIP3    H268555   0.949   1.710  17.202  1.1790  1.6757 -0.2086
15714TIP3   OH268556   2.350   0.267  15.551 -0.9874 -0.4477 -0.4268
15714TIP3    H168557   2.259   0.251  15.575 -0.7688 -0.0229  0.7287
15714TIP3    H268558   2.377   0.188  15.504 -1.5733 -1.1027  0.3277
15715TIP3   OH268559   3.771   5.845   2.304 -0.2134  0.1745 -0.0497
15715TIP3    H168560   3.835   5.788   2.264 -2.8060 -2.2948 -0.8490
15715TIP3    H268561   3.823   5.910   2.353  2.8589 -0.0400 -2.8936
15716TIP3   OH268562   3.466   6.316  14.968 -0.2774  0.2147  0.1150
15716TIP3    H168563   3.561   6.307  14.972 -0.2334  1.6563  3.7008
15716TIP3    H268564   3.434   6.227  14.950  1.6442 -0.5273  0.2540
15717TIP3   OH268565   1.174   6.692   0.387 -0.3165  0.5246  0.1122
15717TIP3    H168566   1.207   6.603   0.374  0.3019  0.5973  1.0860
15717TIP3    H268567   1.082   6.680   0.410 -0.6729  0.2434 -1.4342
15718TIP3   OH268568   6.469   4.288  14.422 -0.1379 -0.0089 -0.7931
15718TIP3    H168569   6.428   4.263  14.339  1.3780  1.0508 -1.8916
15718TIP3    H268570   6.494   4.379  14.410 -0.6343  0.3987  1.1473
15719TIP3   OH268571   4.315   6.537   3.389  0.2343 -0.7402 -0.5590
15719TIP3    H168572   4.248   6.475   3.418  0.8218 -1.0579  0.1333
15719TIP3    H268573   4.394   6.484   3.380  1.2645  0.2942  2.1196
15720TIP3   OH268574   3.984   2.633   3.498  0.1586 -0.1607 -0.2451
15720TIP3    H168575   4.054   2.657   3.437  0.6650  0.1062  0.4304
15720TIP3    H268576   4.028   2.628   3.583 -0.8911  1.1874  0.3806
15721TIP3   OH268577   6.183   4.772   0.656 -0.2836  0.1100 -0.2539
15721TIP3    H168578   6.132   4.853   0.647 -1.4958 -0.8943 -3.2995
15721TIP3    H268579   6.270   4.801   0.684 -0.8003  2.4679 -0.9819
15722TIP3   OH268580   4.765   5.392   4.214  0.0931  0.1583  0.4471
15722TIP3    H168581   4.745   5.330   4.144 -0.6550  1.6686 -0.6885
15722TIP3    H268582   4.814   5.462   4.171  2.9621 -0.7040  2.1350
15723TIP3   OH268583   3.479   4.094   4.889  0.1659 -0.1182 -0.6284
15723TIP3    H168584   3.506   4.049   4.809 -0.1463 -0.0495 -0.7731
15723TIP3    H268585   3.548   4.073   4.952  0.4087 -0.1799 -0.9120
15724TIP3   OH268586   5.819   0.328   5.745  0.9609  0.4188 -0.2041
15724TIP3    H168587   5.796   0.420   5.756 -1.9115 -0.2479 -0.0840
15724TIP3    H268588   5.780   0.284   5.821 -0.7127 -1.3406 -2.0068
15725TIP3   OH268589   5.298   1.552   1.089 -0.5406 -0.6277 -0.1442
15725TIP3    H168590   5.347   1.618   1.138  0.3306 -0.9413 -0.5821
15725TIP3    H268591   5.277   1.595   1.006  0.1087 -0.9281 -0.4667
15726TIP3   OH268592   3.696   5.568   3.826 -0.2472  0.3572  0.5989
15726TIP3    H168593   3.680   5.473   3.827  0.2292  0.2621 -0.3019
15726TIP3    H268594   3.621   5.604   3.779 -0.1556  0.3713  0.4630
15727TIP3   OH268595   4.159   4.501   1.976  0.4782 -0.3820 -0.3578
15727TIP3    H168596   4.203   4.573   1.931 -1.4735  0.5249 -0.8577
15727TIP3    H268597   4.072   4.497   1.937  0.3559 -2.6528  0.0642
15728TIP3   OH268598   3.691   6.107   4.410  0.1745 -0.0219  0.4683
15728TIP3    H168599   3.618   6.082   4.352  0.4830 -0.2635  0.1758
15728TIP3    H268600   3.660   6.183   4.458  0.0061  0.3414 -0.2121
15729TIP3   OH268601   2.304   0.671  13.570  0.1875  0.0557 -0.8581
15729TIP3    H168602   2.374   0.722  13.530  1.3878 -2.0517 -1.5256
15729TIP3    H268603   2.334   0.653  13.659 -0.0702  0.2299 -0.7362
15730TIP3   OH268604   1.289   5.269  11.793  0.2567  0.3091  0.1990
15730TIP3    H168605   1.286   5.363  11.810  1.0562  0.3384  0.2217
15730TIP3    H268606   1.288   5.262  11.698  1.3067  0.4003  0.1698
15731TIP3   OH268607   5.423   5.302   4.496 -0.2817  0.4086  0.4740
15731TIP3    H168608   5.518   5.310   4.504 -0.0856 -0.2025 -1.1292
15731TIP3    H268609   5.410   5.224   4.443 -1.5949  2.1392 -1.8582
15732TIP3   OH268610   3.320   5.815   2.792  0.1717  0.1518 -0.6882
15732TIP3    H168611   3.366   5.841   2.872 -0.3431  0.4305 -0.4801
15732TIP3    H268612   3.252   5.754   2.822 -0.2132  0.4850 -0.8723
15733TIP3   OH268613   2.091   6.778   5.315  0.2656 -0.5478 -0.3275
15733TIP3    H168614   2.110   6.773   5.409  0.2983 -3.0421 -0.4151
15733TIP3    H268615   1.997   6.795   5.310  0.5743  1.3067  0.1506
15734TIP3   OH268616   1.002   3.050   0.807 -1.2529  0.0252  0.0239
15734TIP3    H168617   1.047   3.027   0.888 -1.8336 -2.0517 -0.2257
15734TIP3    H268618   1.027   2.981   0.745 -3.2489 -0.0910 -0.6656
15735TIP3   OH268619   2.991   5.266  15.608 -0.9169  0.6598 -0.1326
15735TIP3    H168620   3.050   5.313  15.668 -0.2655  1.1254 -1.1190
15735TIP3    H268621   2.907   5.264  15.654  0.4797 -2.4188  2.5585
15736TIP3   OH268622   6.477   0.122  11.324 -0.3387 -0.1927  0.3065
15736TIP3    H168623   6.451   0.206  11.287  1.9459  0.8235  0.9053
15736TIP3    H268624   6.509   0.072  11.249  0.5583  0.3903  0.2863
15737TIP3   OH268625   2.720   3.958   2.072 -0.3301  0.3162  0.1348
15737TIP3    H168626   2.628   3.960   2.046 -0.3817 -1.0473  0.1657
15737TIP3    H268627   2.767   3.938   1.991 -0.1711 -0.2281  0.3593
15738TIP3   OH268628   4.475   1.130   5.492  0.5489  0.4073 -0.5036
15738TIP3    H168629   4.548   1.167   5.542  1.1405 -0.1175 -0.9583
15738TIP3    H268630   4.518   1.075   5.426 -0.2972 -0.6244 -0.2026
15739TIP3   OH268631   0.254   4.314  13.432 -0.5341  0.3333  0.1255
15739TIP3    H168632   0.279   4.334  13.522 -1.2451 -1.3020  0.7101
15739TIP3    H268633   0.182   4.252  13.441 -2.3382  2.0963 -1.5461
15740TIP3   OH268634   2.990   5.883   1.450  0.1932 -0.2358 -0.8418
15740TIP3    H168635   3.025   5.911   1.534  0.7294 -0.2087 -1.0730
15740TIP3    H268636   3.052   5.915   1.385  0.8119 -1.9200 -1.1116
15741TIP3   OH268637   6.281   6.697  14.664 -0.0551 -0.3321 -0.4671
15741TIP3    H168638   6.365   6.742  14.653  0.2417 -0.5792  0.6954
15741TIP3    H268639   6.304   6.604  14.668 -0.0641 -0.2440  2.6263
15742TIP3   OH268640   3.180   6.785   3.668 -0.2978  0.0927 -0.0864
15742TIP3    H168641   3.247   6.825   3.725 -0.1275 -0.5192  0.1580
15742TIP3    H268642   3.148   6.710   3.719 -1.4383  0.5995 -0.0534
15743TIP3   OH268643   2.300   5.356   4.959 -0.4647  0.3426 -0.2734
15743TIP3    H168644   2.309   5.343   4.864  1.3187 -1.5343  0.1418
15743TIP3    H268645   2.389   5.350   4.993 -1.1045  0.9303  1.5637
15744TIP3   OH268646   3.331   6.782  16.734 -0.3146 -0.3959  0.4234
15744TIP3    H168647   3.279   6.828  16.800  2.0909  1.7845  0.9059
15744TIP3    H268648   3.358   6.700  16.776 -1.3578 -0.4290  1.0284
15745TIP3   OH268649   0.628   3.154  10.602 -0.0608  0.3295 -0.2250
15745TIP3    H168650   0.680   3.231  10.625  0.8740 -0.0735 -0.9925
15745TIP3    H268651   0.537   3.187  10.602  0.3825  1.6082 -1.2187
15746TIP3   OH268652   4.892   1.257   1.452  0.2040  0.3921  0.3836
15746TIP3    H168653   4.891   1.200   1.374  1.0909 -0.1667  0.7718
15746TIP3    H268654   4.816   1.229   1.502  0.1030  0.1803  0.1161
15747TIP3   OH268655   5.258   5.892  17.022  0.7136  0.0783  0.0790
15747TIP3    H168656   5.164   5.906  17.008  0.7705  0.7470  0.3401
15747TIP3    H268657   5.301   5.949  16.959  0.9521  0.9940  1.0558
15748TIP3   OH268658   2.221   2.685  16.569  0.4034  0.2653 -0.1516
15748TIP3    H168659   2.218   2.642  16.484 -0.2840 -1.0089  0.4907
15748TIP3    H268660   2.181   2.621  16.629 -0.0952  1.5705  0.9331
15749TIP3   OH268661   6.355   1.445   5.733 -0.3637  0.1155 -0.9624
15749TIP3    H168662   6.417   1.372   5.740 -1.3527 -0.7249 -0.7525
15749TIP3    H268663   6.371   1.498   5.811  0.2273  0.0022 -1.0093
15750TIP3   OH268664   2.256   5.619  14.226  0.3385 -0.6268 -0.8572
15750TIP3    H168665   2.259   5.554  14.157  0.8144 -1.9053  0.3454
15750TIP3    H268666   2.299   5.696  14.189 -0.7472 -0.7862 -2.4841
15751TIP3   OH268667   5.176   2.146  11.937 -0.1287 -0.1164 -0.0784
15751TIP3    H168668   5.138   2.227  11.972 -1.8617  0.2997 -2.7936
15751TIP3    H268669   5.270   2.154  11.955 -0.3393  2.3000  0.0730
15752TIP3   OH268670   5.073   5.329   0.185 -0.0465 -0.0328  0.0466
15752TIP3    H168671   5.055   5.240   0.155  0.6470 -0.6056  1.3122
15752TIP3    H268672   5.007   5.383   0.141  0.0653 -1.0423 -1.3980
15753TIP3   OH268673   5.737   4.713   4.811  0.3223 -0.0300 -0.3397
15753TIP3    H168674   5.685   4.751   4.881 -0.8213 -0.1838 -1.1049
15753TIP3    H268675   5.816   4.681   4.855  0.0029  0.6449  0.7384
15754TIP3   OH268676   6.593   3.774   2.118  0.3127  0.4405 -0.1775
15754TIP3    H168677   6.604   3.690   2.162  0.1944 -0.0849 -1.1359
15754TIP3    H268678   6.528   3.757   2.050 -0.7671  1.6550  0.5316
15755TIP3   OH268679   3.114   6.008  12.113 -0.0872 -0.0577 -0.1557
15755TIP3    H168680   3.177   5.951  12.068 -0.9682 -0.8102 -0.4451
15755TIP3    H268681   3.114   5.976  12.204  2.4186  2.0834  0.6588
15756TIP3   OH268682   2.681   4.281   3.131 -0.2600 -0.1249  0.3259
15756TIP3    H168683   2.739   4.237   3.193  0.1342 -0.5594 -0.3394
15756TIP3    H268684   2.636   4.210   3.086  0.0982  0.1576 -0.4880
15757TIP3   OH268685   5.393   6.776  16.309  0.8089 -0.2361  0.3242
15757TIP3    H168686   5.476   6.759  16.264 -0.8076 -4.8063 -1.2277
15757TIP3    H268687   5.333   6.803  16.239 -0.1558 -1.3870  0.6928
15758TIP3   OH268688   3.623   0.809  12.438 -0.0349 -0.0079  0.1568
15758TIP3    H168689   3.621   0.721  12.476 -0.0691  0.3798  1.0793
15758TIP3    H268690   3.600   0.796  12.346  0.6830 -1.0497  0.1076
15759TIP3   OH268691   0.957   3.007  10.778  0.4035 -0.1425  0.5685
15759TIP3    H168692   0.958   2.939  10.711  0.2900  0.1579  0.2589
15759TIP3    H268693   1.013   3.076  10.743 -0.6306  0.5325  0.2333
15760TIP3   OH268694   3.452   1.250  15.006  0.0045  0.1564  0.0195
15760TIP3    H168695   3.431   1.226  14.916 -2.9449 -0.2023  0.7513
15760TIP3    H268696   3.391   1.320  15.028 -0.8931 -1.2914  2.4371
15761TIP3   OH268697   3.774   5.587   2.607  0.3065 -0.3301  0.3857
15761TIP3    H168698   3.758   5.593   2.701 -0.6835 -2.2906  0.3910
15761TIP3    H268699   3.730   5.505   2.581  0.8984 -0.0181 -1.7009
15762TIP3   OH268700   0.645   1.298  16.080  0.0063  0.0062 -0.0756
15762TIP3    H168701   0.692   1.345  16.012  1.2482 -0.4992  0.4066
15762TIP3    H268702   0.561   1.274  16.040  0.6818 -0.2120 -1.3921
15763TIP3   OH268703   5.400   0.637  15.300 -0.0664  0.0421 -0.3518
15763TIP3    H168704   5.487   0.602  15.316  0.8410  2.1912 -0.3163
15763TIP3    H268705   5.360   0.643  15.387 -0.1032 -0.6240 -0.3272
15764TIP3   OH268706   2.940   4.931  12.442 -0.4437  0.0923 -0.7867
15764TIP3    H168707   2.926   5.025  12.449  0.1512  0.1885 -0.8874
15764TIP3    H268708   3.033   4.921  12.422  0.0340 -0.6192  1.5639
15765TIP3   OH268709   3.737   0.856  14.991 -0.2942  0.3648  0.3306
15765TIP3    H168710   3.802   0.787  14.997 -0.6407 -0.1156 -1.3011
15765TIP3    H268711   3.699   0.861  15.079  1.1337 -0.1244  0.9835
15766TIP3   OH268712   1.165   2.747   5.167  0.2480  0.3147 -0.0373
15766TIP3    H168713   1.216   2.808   5.220 -0.9559  1.1091  0.2321
15766TIP3    H268714   1.093   2.720   5.224 -0.5437  0.4764 -0.9401
15767TIP3   OH268715   0.398   6.318  11.098  0.1548 -0.2795 -0.0813
15767TIP3    H168716   0.446   6.268  11.164  1.0016 -0.8788 -1.1388
15767TIP3    H268717   0.465   6.360  11.045 -0.5303  0.7241 -0.1739
15768TIP3   OH268718   0.693   3.737  15.926 -0.4297 -0.1325  0.6958
15768TIP3    H168719   0.604   3.770  15.942 -0.6025 -0.3785  0.2598
15768TIP3    H268720   0.697   3.726  15.832  0.6079  1.3759  0.5520
15769TIP3   OH268721   5.786   2.274   2.216  0.4196  0.1323  0.2525
15769TIP3    H168722   5.824   2.216   2.150  0.1648  0.8896 -0.5685
15769TIP3    H268723   5.802   2.229   2.299  1.6561 -0.3485 -0.2240
15770TIP3   OH268724   5.030   5.251  15.384  0.4319 -0.3765 -0.0773
15770TIP3    H168725   5.050   5.311  15.311 -1.0944  1.3412  0.8903
15770TIP3    H268726   5.108   5.255  15.439  1.1696 -0.8673 -1.0666
15771TIP3   OH268727   0.323   5.169   3.787 -0.1142 -0.2954  0.0343
15771TIP3    H168728   0.398   5.123   3.822  0.3124  1.3757  1.3909
15771TIP3    H268729   0.333   5.259   3.818 -2.7314 -0.0630  0.3791
15772TIP3   OH268730   3.880   3.971   0.609  0.1448  0.7215  0.0178
15772TIP3    H168731   3.859   4.055   0.650  0.5853  0.8354  0.0102
15772TIP3    H268732   3.975   3.962   0.619 -0.2104 -0.9423  2.2561
15773TIP3   OH268733   3.118   0.513  15.389 -0.2809 -0.0443 -0.6248
15773TIP3    H168734   3.118   0.422  15.417  0.6206  0.5416  1.3641
15773TIP3    H268735   3.035   0.548  15.420 -0.0291  0.1537 -0.1590
15774TIP3   OH268736   4.055   1.917   3.760 -0.2487 -0.4414  0.2955
15774TIP3    H168737   4.091   1.895   3.846  1.4557  0.5590 -0.1297
15774TIP3    H268738   4.093   1.852   3.701  1.6883  1.2006 -0.3155
15775TIP3   OH268739   0.624   4.677  15.904 -0.2280 -0.1239 -0.0100
15775TIP3    H168740   0.541   4.692  15.858 -1.6181  0.6469  2.6727
15775TIP3    H268741   0.672   4.760  15.895  0.0142 -0.3569 -0.9994
15776TIP3   OH268742   0.452   4.117   5.119  0.0742  0.1069 -0.4039
15776TIP3    H168743   0.402   4.187   5.078 -0.7475  0.6897  1.5401
15776TIP3    H268744   0.516   4.090   5.052 -0.1726  2.1039 -1.4681
15777TIP3   OH268745   5.165   2.385  13.128  0.3622 -0.5966  0.1494
15777TIP3    H168746   5.147   2.293  13.111 -0.2543 -0.4824  0.1665
15777TIP3    H268747   5.079   2.424  13.146  0.6236 -0.0357  0.2226
15778TIP3   OH268748   5.689   3.652  14.125 -0.0462 -0.7303 -0.5148
15778TIP3    H168749   5.775   3.678  14.158 -0.5670  0.2114  0.1695
15778TIP3    H268750   5.631   3.660  14.202 -0.5465 -2.3838 -0.6975
15779TIP3   OH268751   1.034   0.477   5.138 -0.1010 -0.3664  0.2655
15779TIP3    H168752   1.114   0.429   5.120 -0.7189 -1.2364 -0.1786
15779TIP3    H268753   1.020   0.532   5.061  0.6155  0.5499  0.7817
15780TIP3   OH268754   0.659   4.951   1.430 -0.0624 -0.2345 -0.2131
15780TIP3    H168755   0.615   4.990   1.505  0.7361  0.7570 -0.2371
15780TIP3    H268756   0.588   4.913   1.377 -0.7323  0.0558  0.4696
15781TIP3   OH268757   0.424   4.994  11.958  0.4548  0.3131  0.2453
15781TIP3    H168758   0.366   4.979  12.032 -0.9844  0.3302 -0.8409
15781TIP3    H268759   0.472   5.074  11.979 -0.2749  0.5628  0.9509
15782TIP3   OH268760   5.899   2.070  14.475 -0.8395 -0.1626 -0.1150
15782TIP3    H168761   5.920   2.070  14.382 -1.0195 -1.0486 -0.1597
15782TIP3    H268762   5.932   2.154  14.507 -0.6134  0.0675 -0.9383
15783TIP3   OH268763   1.796   6.444   4.975 -0.1448 -0.4787  0.5276
15783TIP3    H168764   1.745   6.430   4.895 -0.0198 -0.4177  0.4368
15783TIP3    H268765   1.882   6.407   4.956  0.4592  1.1853 -0.0243
15784TIP3   OH268766   0.054   1.283  16.125  0.1483  0.4197  0.0054
15784TIP3    H168767   0.083   1.192  16.115  1.5806  0.6763  1.6214
15784TIP3    H268768   0.023   1.308  16.039  1.9268 -0.8589 -1.0345
15785TIP3   OH268769   2.292   3.864   5.079 -0.6418 -0.4174 -0.5241
15785TIP3    H168770   2.277   3.809   5.156 -0.6312 -1.2441 -1.1061
15785TIP3    H268771   2.324   3.947   5.114 -1.4142 -0.5101  0.4101
15786TIP3   OH268772   1.673   1.100   4.711 -0.5275 -0.3828 -0.6874
15786TIP3    H168773   1.601   1.135   4.659 -0.5153 -2.0154 -1.8552
15786TIP3    H268774   1.673   1.006   4.692  1.6257 -0.4750 -0.3640
15787TIP3   OH268775   0.009   6.223   3.953  0.1678  0.4643  0.0178
15787TIP3    H168776  -0.042   6.226   3.872 -1.5971 -0.6509  1.0499
15787TIP3    H268777  -0.040   6.278   4.014  0.6202  0.0024  0.8047
15788TIP3   OH268778   2.899   1.507   0.487 -0.1370 -0.5440  0.3523
15788TIP3    H168779   2.991   1.487   0.473  0.0085 -0.6173  1.3386
15788TIP3    H268780   2.884   1.485   0.580 -1.3229 -1.2429  0.0055
15789TIP3   OH268781   0.659   2.621   3.078 -0.3369 -0.1832  0.1469
15789TIP3    H168782   0.608   2.549   3.115  3.2651 -2.9570  0.0322
15789TIP3    H268783   0.714   2.651   3.151 -0.3815  1.1039 -0.3381
15790TIP3   OH268784   0.326   1.450   5.334  0.3075 -0.9323  0.0971
15790TIP3    H168785   0.326   1.369   5.284  2.7689 -1.6049  1.1435
15790TIP3    H268786   0.362   1.515   5.274 -0.9018 -0.7573 -0.4635
15791TIP3   OH268787   3.747   4.676  14.829  0.0711 -0.5477 -0.1738
15791TIP3    H168788   3.733   4.625  14.748 -1.6252  0.9387 -0.8459
15791TIP3    H268789   3.776   4.762  14.798 -0.6670  0.0549  0.7786
15792TIP3   OH268790   3.360   2.020  11.497  0.5487 -0.2243 -0.5191
15792TIP3    H168791   3.412   2.070  11.434 -0.0667 -2.1381 -2.6069
15792TIP3    H268792   3.411   1.940  11.512  1.2206  0.6536  2.2963
15793TIP3   OH268793   1.650   6.347   6.298  0.4986  0.1453 -0.3688
15793TIP3    H168794   1.666   6.441   6.301 -0.1416  0.2548 -0.1733
15793TIP3    H268795   1.554   6.339   6.304  0.6117 -0.5635  0.7391
15794TIP3   OH268796   3.629   0.577  12.023  0.7280 -0.1460 -0.6475
15794TIP3    H168797   3.723   0.555  12.023  0.3196 -2.0244  0.4049
15794TIP3    H268798   3.585   0.492  12.016 -0.9018  0.6651 -0.3190
15795TIP3   OH268799   3.726   2.839   5.822  0.4383  0.4079  0.0922
15795TIP3    H168800   3.722   2.753   5.780 -0.6750  0.7112 -0.4339
15795TIP3    H268801   3.781   2.825   5.899  1.6197 -0.3944 -0.8683
15796TIP3   OH268802   5.376   1.243  16.752  0.3490 -0.4312 -0.5306
15796TIP3    H168803   5.283   1.224  16.739  0.3103 -0.1375 -0.6752
15796TIP3    H268804   5.420   1.161  16.729  0.0158 -1.0923  1.1147
15797TIP3   OH268805   5.341   0.731  14.274  0.0549 -0.1658 -0.9418
15797TIP3    H168806   5.371   0.783  14.199 -3.9773  1.8019 -1.3067
15797TIP3    H268807   5.268   0.680  14.240  0.9956 -2.6647  0.6240
15798TIP3   OH268808   6.322   3.451  16.024 -0.0113  0.3314 -0.6387
15798TIP3    H168809   6.289   3.541  16.021 -0.0730  0.3482  0.3708
15798TIP3    H268810   6.268   3.404  15.961  1.5288  1.4790 -2.8756
15799TIP3   OH268811   4.883   0.809   3.811 -0.1583 -0.0644  0.6791
15799TIP3    H168812   4.952   0.862   3.770 -0.3601  0.0743  0.5168
15799TIP3    H268813   4.892   0.826   3.904 -1.1181  1.3685  0.5362
15800TIP3   OH268814   0.487   4.936   5.011  0.2732 -0.3116 -0.1462
15800TIP3    H168815   0.568   4.907   5.051 -0.1698 -2.9003 -1.0031
15800TIP3    H268816   0.513   5.003   4.947  1.6033 -0.4864  0.2110
15801TIP3   OH268817   1.482   2.361  10.489 -0.9873 -0.3789  0.6231
15801TIP3    H168818   1.390   2.388  10.482 -1.1226 -0.5641  1.6595
15801TIP3    H268819   1.477   2.267  10.508 -0.6167 -0.1030  2.1285
15802TIP3   OH268820   1.161   5.677   3.011  0.6627 -0.7062 -0.0056
15802TIP3    H168821   1.243   5.638   3.042  2.2267  0.5308 -2.4263
15802TIP3    H268822   1.173   5.687   2.916 -2.2081 -0.2758 -0.3855
15803TIP3   OH268823   1.003   6.685  12.981 -0.0096 -0.0090 -1.0165
15803TIP3    H168824   0.961   6.695  12.896  0.7946  1.0360 -1.2971
15803TIP3    H268825   1.043   6.770  12.999 -1.3949  0.2562  1.0701
15804TIP3   OH268826   4.989   4.915   0.466 -0.1772  0.2357 -0.8348
15804TIP3    H168827   4.906   4.871   0.448 -0.2502  1.1825 -2.8517
15804TIP3    H268828   5.003   4.973   0.392  1.3246  1.5464  0.4372
15805TIP3   OH268829   3.508   1.753  12.938 -0.3497  0.0732  0.7584
15805TIP3    H168830   3.476   1.716  12.855 -0.4573  1.3317  0.2297
15805TIP3    H268831   3.508   1.848  12.923 -2.4200  0.4628  2.9413
15806TIP3   OH268832   0.818   4.838   1.804 -0.1311  0.6126 -0.1355
15806TIP3    H168833   0.862   4.781   1.867 -0.5350  1.1609  0.6566
15806TIP3    H268834   0.776   4.777   1.743  0.3804  0.0734  0.0403
15807TIP3   OH268835   5.672   6.750   0.392  0.9968  0.2851 -0.4514
15807TIP3    H168836   5.719   6.696   0.456 -1.0593  1.0250  1.7470
15807TIP3    H268837   5.701   6.840   0.410 -0.6287  0.6580  0.4027
15808TIP3   OH268838   3.370   2.678  16.437  0.7200 -0.0031 -0.6319
15808TIP3    H168839   3.298   2.682  16.500  1.3266  1.3516  0.0125
15808TIP3    H268840   3.421   2.602  16.464 -0.0983 -0.5836 -0.6871
15809TIP3   OH268841   2.636   2.957  14.014 -0.1510  0.8066 -0.3457
15809TIP3    H168842   2.545   2.934  13.992  1.1143 -1.5200 -3.5035
15809TIP3    H268843   2.670   2.999  13.935  2.5071 -1.4706 -0.4958
15810TIP3   OH268844   5.809   6.082   3.488  0.0581 -0.4294  0.1668
15810TIP3    H168845   5.826   6.006   3.433 -3.4767 -0.0955 -1.5411
15810TIP3    H268846   5.733   6.058   3.541 -1.0167  1.7939 -0.2876
15811TIP3   OH268847   0.460   0.193  14.470 -0.3073 -0.1177  0.0242
15811TIP3    H168848   0.526   0.217  14.536 -1.8799  0.3179  1.4640
15811TIP3    H268849   0.452   0.098  14.478 -0.9081 -0.0045  0.8880
15812TIP3   OH268850   5.000   1.090   4.981 -0.1425  0.2958  0.0709
15812TIP3    H168851   5.057   1.154   4.939  0.5600 -0.0074  0.5381
15812TIP3    H268852   4.952   1.140   5.047  1.0710  0.1783  1.0564
15813TIP3   OH268853   5.968   3.533   4.325  0.0154 -0.0073  0.4895
15813TIP3    H168854   5.925   3.466   4.273 -0.7855  0.7140  0.2024
15813TIP3    H268855   5.897   3.591   4.352  0.6470  0.5185  1.0460
15814TIP3   OH268856   0.448   1.521  13.767  0.1946 -0.2979  0.9545
15814TIP3    H168857   0.409   1.442  13.803 -3.9170  0.3435 -1.7177
15814TIP3    H268858   0.403   1.593  13.812  0.3071  0.4819 -0.1502
15815TIP3   OH268859   6.306   4.501   0.772 -0.2602 -0.4076  0.5709
15815TIP3    H168860   6.395   4.489   0.807 -0.5099  0.8446  1.6956
15815TIP3    H268861   6.311   4.582   0.721 -0.8510 -0.1017  0.9915
15816TIP3   OH268862   3.177   6.534  15.603 -0.5101  0.2027 -0.5843
15816TIP3    H168863   3.183   6.560  15.511  0.1509 -1.8063 -1.1388
15816TIP3    H268864   3.096   6.484  15.608 -0.1496 -0.3498 -0.2572
15817TIP3   OH268865   5.881   1.161   5.897  0.3985  0.4653 -0.5010
15817TIP3    H168866   5.942   1.218   5.943  1.1863 -0.8987  0.1687
15817TIP3    H268867   5.856   1.095   5.962 -0.1280 -0.2405 -1.4104
15818TIP3   OH268868   3.194   2.097   5.423 -0.0673  0.0439 -0.3988
15818TIP3    H168869   3.238   2.164   5.370  0.4494  0.9475  1.1523
15818TIP3    H268870   3.252   2.084   5.498 -0.1554 -2.1780 -0.6837
15819TIP3   OH268871   3.703   2.997   6.390 -0.5348  0.0396 -0.2531
15819TIP3    H168872   3.641   3.046   6.444 -1.1769  0.3524 -1.2518
15819TIP3    H268873   3.661   2.991   6.304  0.5279 -0.3135 -0.7652
15820TIP3   OH268874   1.262   3.076  12.469 -0.2729  0.1037 -0.3769
15820TIP3    H168875   1.247   3.084  12.375 -0.2330  0.4391 -0.3561
15820TIP3    H268876   1.349   3.036  12.476 -1.1281 -1.8320 -0.4935
15821TIP3   OH268877   5.687   5.705  11.592  0.1671  0.4870  0.1318
15821TIP3    H168878   5.733   5.697  11.508 -0.4006 -1.8924 -0.0005
15821TIP3    H268879   5.609   5.756  11.571  0.2995  0.3789 -0.6661
15822TIP3   OH268880   1.264   5.146  12.362  0.0167 -0.1744 -0.1319
15822TIP3    H168881   1.190   5.087  12.346 -1.0889  0.5971  1.9278
15822TIP3    H268882   1.272   5.197  12.282 -1.7194 -0.2365 -0.3625
15823TIP3   OH268883   0.428   1.625   4.367 -0.2272  0.0101 -0.3486
15823TIP3    H168884   0.346   1.665   4.338 -0.7108  0.7955  2.0129
15823TIP3    H268885   0.448   1.668   4.450  1.7956 -1.2579 -0.1412
15824TIP3   OH268886   2.025   3.255   3.201 -0.6193  0.4721  0.0161
15824TIP3    H168887   2.044   3.309   3.124 -4.4516  1.6210 -0.2138
15824TIP3    H268888   2.023   3.318   3.273 -0.8437 -0.0252  0.4424
15825TIP3   OH268889   3.914   5.168   0.381 -0.0786 -0.2285  0.6923
15825TIP3    H168890   3.908   5.202   0.291 -1.1548 -0.7230  0.5642
15825TIP3    H268891   3.981   5.222   0.423 -2.7526  3.1440  0.9419
15826TIP3   OH268892   5.384   4.927  16.017 -0.4997 -0.3164  0.0237
15826TIP3    H168893   5.394   4.911  16.111  4.5358  0.2586 -0.2358
15826TIP3    H268894   5.397   4.841  15.977  2.8271  0.2421 -0.2790
15827TIP3   OH268895   6.318   5.156  13.327  0.2416  0.5944 -0.1174
15827TIP3    H168896   6.322   5.180  13.235 -0.2370  0.6573 -0.1236
15827TIP3    H268897   6.236   5.106  13.335 -0.4021  1.7305  0.5341
15828TIP3   OH268898   2.247   3.423  12.053 -0.1083 -0.3768  0.3996
15828TIP3    H168899   2.319   3.375  12.093 -0.4981  0.0473  1.6431
15828TIP3    H268900   2.288   3.485  11.994  0.5159 -0.3954  0.8181
15829TIP3   OH268901   2.580   1.028  11.872  0.4282  0.3836  0.1201
15829TIP3    H168902   2.673   1.008  11.889  0.2741 -0.8193 -0.3625
15829TIP3    H268903   2.576   1.123  11.869  1.6993  0.4469 -0.0682
15830TIP3   OH268904   5.701   5.254  16.365 -0.1879 -0.2342 -0.1281
15830TIP3    H168905   5.682   5.324  16.303 -0.3175 -0.2557 -0.1134
15830TIP3    H268906   5.635   5.187  16.346  0.4328 -0.6897 -0.6770
15831TIP3   OH268907   2.448   2.417   0.020 -0.1801  0.1091 -0.2234
15831TIP3    H168908   2.446   2.379   0.108  1.0752  0.6586  0.0572
15831TIP3    H268909   2.537   2.402  -0.011 -0.7994 -0.6484 -1.6720
15832TIP3   OH268910   2.802   6.581  15.465  0.4434  0.0854 -0.1124
15832TIP3    H168911   2.867   6.625  15.410  0.9064  0.3411  0.6288
15832TIP3    H268912   2.748   6.531  15.404  0.5154  0.9196 -0.8700
15833TIP3   OH268913   6.401   5.136   5.060 -0.4405  0.0011 -0.4928
15833TIP3    H168914   6.324   5.188   5.038 -1.5671 -1.3287  0.2947
15833TIP3    H268915   6.417   5.154   5.153 -0.3297 -0.4047 -0.4315
15834TIP3   OH268916   2.899   1.129   6.005 -0.1774  0.1477  0.6029
15834TIP3    H168917   2.855   1.072   5.942 -2.4485  0.8716  1.4670
15834TIP3    H268918   2.876   1.092   6.091  2.2503 -0.3903  1.0599
15835TIP3   OH268919   1.123   0.347   0.195  0.5543  0.0390 -0.0301
15835TIP3    H168920   1.115   0.256   0.165 -0.8648  0.3204 -0.5512
15835TIP3    H268921   1.212   0.372   0.171  0.7427 -1.0103 -0.4671
15836TIP3   OH268922   5.928   5.040   0.108 -0.2388 -0.3594  0.0571
15836TIP3    H168923   6.016   5.025   0.072  0.1024  0.5644  0.4733
15836TIP3    H268924   5.878   5.073   0.034  0.0300  0.0263  0.0450
15837TIP3   OH268925   4.136   3.696  12.287 -0.6921  0.4625  0.2624
15837TIP3    H168926   4.054   3.716  12.242 -0.4671 -0.3679 -0.5583
15837TIP3    H268927   4.174   3.625  12.235 -1.2457 -1.7508  2.7537
15838TIP3   OH268928   2.180   2.708  11.675  0.5061 -0.1798  0.6185
15838TIP3    H168929   2.131   2.694  11.594  1.4626  0.5694 -0.1010
15838TIP3    H268930   2.232   2.628  11.687  1.0465  0.0824  0.0101
15839TIP3   OH268931   3.515   4.856  13.473  0.0011 -0.3785 -0.0791
15839TIP3    H168932   3.544   4.778  13.521  2.0868  1.3456  1.5772
15839TIP3    H268933   3.466   4.907  13.538 -2.0595 -0.6475 -1.3731
15840TIP3   OH268934   1.643   1.707  11.472 -0.6516 -0.0290  0.4957
15840TIP3    H168935   1.675   1.620  11.448 -0.4865  0.4950 -1.2003
15840TIP3    H268936   1.707   1.768  11.437 -1.5885  0.8603  0.2888
15841TIP3   OH268937   4.039   5.902  13.665 -0.1302 -0.4080 -0.0251
15841TIP3    H168938   4.108   5.881  13.728  0.8926 -1.1382 -1.3522
15841TIP3    H268939   3.958   5.899  13.715  0.8091  0.7084  1.6285
15842TIP3   OH268940   4.543   4.772  10.478  0.1698  0.3918 -0.1684
15842TIP3    H168941   4.608   4.799  10.412  0.6866 -1.7444 -0.5582
15842TIP3    H268942   4.596   4.743  10.552 -0.3667 -0.3133 -0.0626
15843TIP3   OH268943   3.391   1.277   6.536  0.2997 -0.3344  0.3508
15843TIP3    H168944   3.403   1.300   6.629 -2.8527 -1.0414  0.9986
15843TIP3    H268945   3.310   1.226   6.535  0.0416  0.0751 -2.8713
15844TIP3   OH268946   6.273   2.677   1.332  0.3987  0.2468  0.0802
15844TIP3    H168947   6.297   2.731   1.257 -0.7490  0.8365  0.1236
15844TIP3    H268948   6.293   2.587   1.305  3.9568  0.7997  0.6441
15845TIP3   OH268949   3.519   0.327  12.990  0.6212  0.3052 -0.0876
15845TIP3    H168950   3.561   0.275  13.058 -0.4786 -1.6145 -0.8267
15845TIP3    H268951   3.591   0.371  12.946  1.5630 -0.3765  0.7432
15846TIP3   OH268952   4.081   2.641  15.903 -0.1465 -0.4190  0.4673
15846TIP3    H168953   4.030   2.617  15.826  0.8133 -2.1468  0.3655
15846TIP3    H268954   4.015   2.665  15.968 -0.9360  2.2239 -1.2234
15847TIP3   OH268955   3.419   6.192   3.247  0.2997  0.1453  0.4147
15847TIP3    H168956   3.361   6.123   3.215  1.1103 -0.7028  0.7357
15847TIP3    H268957   3.429   6.251   3.172  2.3715 -1.9471 -1.0568
15848TIP3   OH268958   0.075   1.807  12.757 -0.4872 -0.1364  0.1060
15848TIP3    H168959   0.106   1.729  12.712  1.0079  0.7979 -0.4837
15848TIP3    H268960   0.076   1.875  12.691  0.7007  0.9934  1.2633
15849TIP3   OH268961   0.621   1.172   4.975  0.0592 -0.0424  0.3597
15849TIP3    H168962   0.703   1.221   4.970  0.4830 -0.9749 -2.9803
15849TIP3    H268963   0.555   1.232   4.938 -0.3956 -0.1118  1.0365
15850TIP3   OH268964   4.599   1.101  16.607 -0.5026 -0.1369 -0.0277
15850TIP3    H168965   4.674   1.044  16.620  1.0071  1.8084  0.0391
15850TIP3    H268966   4.547   1.092  16.686  0.1903 -0.7218  0.3599
15851TIP3   OH268967   6.424   1.270  11.901  0.1751  0.0202  0.2805
15851TIP3    H168968   6.456   1.277  11.811 -0.2320 -0.1970  0.1180
15851TIP3    H268969   6.425   1.176  11.920 -0.1231  0.0334  0.3647
15852TIP3   OH268970   2.371   3.408  11.517  0.6381 -0.3849 -0.0432
15852TIP3    H168971   2.283   3.394  11.551  0.7661  1.2254  0.9505
15852TIP3    H268972   2.361   3.397  11.422 -0.8761  0.9745 -0.0676
15853TIP3   OH268973   1.253   1.529  11.619  0.2930 -0.3150  0.5841
15853TIP3    H168974   1.237   1.517  11.525 -0.6533  0.3902  0.6470
15853TIP3    H268975   1.167   1.518  11.660  0.1139  2.4704  1.0320
15854TIP3   OH268976   5.942   6.748   5.142 -0.1278  0.4227 -0.1207
15854TIP3    H168977   5.929   6.767   5.235 -0.3124  2.7544 -0.5915
15854TIP3    H268978   5.855   6.722   5.111 -0.7497  2.6086 -0.2799
15855TIP3   OH268979   6.625   0.455   1.332 -0.1838  0.1569 -0.4459
15855TIP3    H168980   6.617   0.501   1.248  0.2298  0.2301 -0.4465
15855TIP3    H268981   6.711   0.482   1.366  1.0875 -2.3545 -1.4877
15856TIP3   OH268982   0.770   4.582  16.212 -0.0626  0.0589 -0.4285
15856TIP3    H168983   0.810   4.563  16.297  0.0817  0.2991 -0.4406
15856TIP3    H268984   0.765   4.678  16.209  0.1333  0.0581 -0.7810
15857TIP3   OH268985   1.077   2.907   6.012  0.3560  0.4473  0.1723
15857TIP3    H168986   1.150   2.922   6.073  1.7981  0.2396 -1.4508
15857TIP3    H268987   1.057   2.994   5.977  0.6274  0.3448 -0.2496
15858TIP3   OH268988   3.984   1.099  15.480 -0.0786  0.3025 -0.7504
15858TIP3    H168989   3.956   1.152  15.555 -0.8287 -0.9430 -0.1299
15858TIP3    H268990   3.921   1.120  15.411 -0.3127  0.2990 -0.5387
15859TIP3   OH268991   0.741   4.979   5.760 -0.2322 -0.4831 -0.4389
15859TIP3    H168992   0.780   5.012   5.840 -0.9774 -0.5782 -0.0316
15859TIP3    H268993   0.774   4.890   5.752 -0.1041 -0.4500 -0.2748
15860TIP3   OH268994   4.711   3.119   4.487 -0.2264  0.1392  0.0423
15860TIP3    H168995   4.676   3.098   4.573 -0.7846 -1.6785 -0.6203
15860TIP3    H268996   4.638   3.158   4.439 -0.6494 -1.3045 -0.4913
15861TIP3   OH268997   4.918   4.606  16.902  0.9450 -0.2543  0.3628
15861TIP3    H168998   4.962   4.602  16.817 -0.5972  0.5989 -0.4807
15861TIP3    H268999   4.908   4.700  16.920  0.7264 -0.4352  1.2134
15862TIP3   OH269000   5.676   4.988   5.835  0.2116  0.4940  0.1738
15862TIP3    H169001   5.727   5.008   5.914  1.2835 -0.3578 -0.2920
15862TIP3    H269002   5.742   4.974   5.767 -0.6643 -0.1616 -0.5538
15863TIP3   OH269003   4.732   5.300   0.899  0.8570  0.2583 -0.2117
15863TIP3    H169004   4.702   5.212   0.878 -1.5511  0.7849  0.7686
15863TIP3    H269005   4.791   5.289   0.973  0.3473 -0.5150  0.0903
15864TIP3   OH269006   6.210   5.125  12.112  0.5203  0.4229  0.5270
15864TIP3    H169007   6.289   5.079  12.138 -1.6286 -4.9020 -1.7167
15864TIP3    H269008   6.145   5.099  12.177 -0.4108  1.4285  0.0152
15865TIP3   OH269009   6.370   2.756  11.819  0.1341 -0.1328  0.0703
15865TIP3    H169010   6.334   2.822  11.878  1.0598  1.4876 -1.1389
15865TIP3    H269011   6.296   2.728  11.765 -0.4199 -0.6427  1.0755
15866TIP3   OH269012   2.328   4.821   3.771 -0.5472  0.8543 -0.2711
15866TIP3    H169013   2.398   4.798   3.831 -0.2690 -1.2212 -1.3191
15866TIP3    H269014   2.248   4.813   3.823 -0.0699  2.8253  0.8118
15867TIP3   OH269015   1.870   4.568   2.201 -0.2556 -0.7487 -0.2244
15867TIP3    H169016   1.838   4.483   2.170  1.3047 -1.3581 -0.2625
15867TIP3    H269017   1.965   4.562   2.191 -0.1121  0.9447 -0.0404
15868TIP3   OH269018   3.337   5.406   2.729 -0.0291  0.3783 -0.2348
15868TIP3    H169019   3.279   5.388   2.655  0.5796  0.4794 -0.7454
15868TIP3    H269020   3.279   5.431   2.800 -0.6787 -0.5407 -0.4384
15869TIP3   OH269021   5.232   3.747  15.869 -0.1277  0.5506 -0.3378
15869TIP3    H169022   5.168   3.775  15.934 -0.5761  2.7410 -1.6731
15869TIP3    H269023   5.180   3.730  15.790  0.5837 -0.5793 -0.5655
15870TIP3   OH269024   0.245   2.666   3.074 -0.0367 -0.3042  0.1144
15870TIP3    H169025   0.179   2.719   3.029 -0.4378  1.5282  2.7938
15870TIP3    H269026   0.326   2.714   3.063 -0.2543  0.5040  1.8531
15871TIP3   OH269027   1.925   6.459  16.366  0.0556  0.4989  0.4660
15871TIP3    H169028   1.964   6.532  16.414 -1.1698  0.4638  1.5196
15871TIP3    H269029   1.994   6.392  16.367  1.7130  2.0803 -1.6893
15872TIP3   OH269030   5.417   3.488   2.903 -0.9802  0.5793  0.2261
15872TIP3    H169031   5.355   3.472   2.974 -0.5533 -0.3215  0.4035
15872TIP3    H269032   5.370   3.545   2.842 -2.6349 -1.5750 -0.5448
15873TIP3   OH269033   3.099   3.262   3.632 -0.2634 -0.4171  0.3073
15873TIP3    H169034   3.153   3.189   3.601  3.3168  2.1649  0.1003
15873TIP3    H269035   3.125   3.274   3.723 -1.2807  0.2023  0.5214
15874TIP3   OH269036   2.328   3.664   4.332  0.0900 -0.4761  0.4771
15874TIP3    H169037   2.388   3.636   4.401  0.0058  1.1375  1.2167
15874TIP3    H269038   2.368   3.742   4.295 -1.0097 -0.0211  0.2328
15875TIP3   OH269039   6.776   3.948  10.689 -0.1491  0.1894 -0.4562
15875TIP3    H169040   6.724   3.929  10.611 -0.3683  1.2960 -0.5913
15875TIP3    H269041   6.714   3.941  10.761 -0.3798  1.0722 -0.5729
15876TIP3   OH269042   6.759   6.596   2.511 -0.4344  0.1248  0.2543
15876TIP3    H169043   6.838   6.578   2.460  0.3606  2.6275  0.5382
15876TIP3    H269044   6.772   6.547   2.592  2.0289  2.4173  1.3404
15877TIP3   OH269045   4.046   1.490   1.237  0.2400 -0.0274 -0.2135
15877TIP3    H169046   4.137   1.510   1.215 -0.0295  1.1760 -0.2455
15877TIP3    H269047   4.018   1.427   1.170  0.7208  0.4207 -0.8360
15878TIP3   OH269048   2.823   5.161   3.561  0.0873 -0.1230  0.1690
15878TIP3    H169049   2.799   5.211   3.483  0.6020 -1.5223 -0.9000
15878TIP3    H269050   2.885   5.218   3.608 -0.6449  0.9534 -0.1425
15879TIP3   OH269051   3.766   0.632   3.559 -0.0674  0.0367  0.2202
15879TIP3    H169052   3.821   0.554   3.559 -0.6502 -0.3964 -1.0856
15879TIP3    H269053   3.806   0.690   3.623  1.8701 -0.3098 -0.6482
15880TIP3   OH269054   2.095   6.415  15.792 -0.4858 -0.1239  0.0837
15880TIP3    H169055   2.143   6.364  15.857  1.3415  0.5451 -0.6961
15880TIP3    H269056   2.059   6.489  15.840 -0.7390 -0.6321  0.6788
15881TIP3   OH269057   1.446   6.059   2.134 -0.1158 -0.3597 -0.1537
15881TIP3    H169058   1.411   6.012   2.059  0.9964  0.9887 -1.5539
15881TIP3    H269059   1.411   6.148   2.125  2.1165  0.5191 -0.5852
15882TIP3   OH269060   4.131   2.036  16.284  0.7647 -0.2269 -0.5606
15882TIP3    H169061   4.126   2.054  16.378 -1.5888 -0.1477 -0.6609
15882TIP3    H269062   4.157   2.120  16.246 -1.2059  0.5885 -0.2075
15883TIP3   OH269063   1.623   6.665   3.822 -0.0875 -0.1508  0.3827
15883TIP3    H169064   1.695   6.654   3.883 -0.7191  1.5127  1.4711
15883TIP3    H269065   1.664   6.676   3.737  0.8050 -2.4381  0.4661
15884TIP3   OH269066   4.738   4.200  11.229  0.0447 -0.2896 -1.2998
15884TIP3    H169067   4.682   4.257  11.282  1.4078  0.6886 -0.8734
15884TIP3    H269068   4.712   4.111  11.253  0.4002  0.1416  0.7546
15885TIP3   OH269069   0.494   0.224   5.812  0.0106 -0.3040 -0.5610
15885TIP3    H169070   0.562   0.245   5.747  1.7731 -2.3057  0.5836
15885TIP3    H269071   0.537   0.166   5.874 -1.5075  1.9371  2.7206
15886TIP3   OH269072   2.044   3.186  14.500  0.3145 -0.7610  0.0289
15886TIP3    H169073   2.052   3.249  14.572  0.0039 -0.8750  0.1619
15886TIP3    H269074   2.097   3.224  14.429 -3.1846  1.7680 -1.3838
15887TIP3   OH269075   1.114   4.824  16.567 -0.0507  0.2832  0.1823
15887TIP3    H169076   1.078   4.747  16.613  2.1252 -1.0241 -0.2385
15887TIP3    H269077   1.199   4.839  16.609  1.0430  0.3701 -2.0125
15888TIP3   OH269078   2.467   0.638   1.030  0.2828  0.1159 -0.3891
15888TIP3    H169079   2.441   0.718   0.985 -0.4262  0.8153  1.2201
15888TIP3    H269080   2.486   0.576   0.960 -0.1422  1.3805 -1.6442
15889TIP3   OH269081   6.547   1.400   2.739 -0.1597 -0.0974 -0.2365
15889TIP3    H169082   6.516   1.315   2.770  0.0303 -0.8381 -2.0120
15889TIP3    H269083   6.634   1.382   2.702  0.1141  0.9763 -0.1338
15890TIP3   OH269084   5.183   3.071   2.190  0.1215 -0.0479 -0.3450
15890TIP3    H169085   5.223   2.995   2.231 -0.7104 -0.0666  0.4479
15890TIP3    H269086   5.089   3.058   2.201 -0.0081  1.5494  0.6567
15891TIP3   OH269087   0.152   4.335   3.606 -0.1817  0.0657 -0.1979
15891TIP3    H169088   0.113   4.313   3.522 -1.6575 -0.2397  0.5401
15891TIP3    H269089   0.124   4.264   3.664  0.4225  0.5208  0.6571
15892TIP3   OH269090   5.103   6.223   3.110  0.0468  0.0520 -0.1930
15892TIP3    H169091   5.008   6.219   3.106  0.0014  0.0659  0.9326
15892TIP3    H269092   5.122   6.310   3.145  0.4892  0.2562 -0.9290
15893TIP3   OH269093   3.827   4.747   4.832 -0.1272 -0.5560  0.0776
15893TIP3    H169094   3.786   4.711   4.752 -1.8069 -2.9384  1.9291
15893TIP3    H269095   3.892   4.682   4.857  1.6527  1.0334 -0.2558
15894TIP3   OH269096   5.966   3.667  13.199 -0.4381 -0.0330  0.0719
15894TIP3    H169097   5.924   3.584  13.176  1.7380 -1.2533  0.3651
15894TIP3    H269098   5.920   3.697  13.277  0.5752 -2.4223  1.6540
15895TIP3   OH269099   4.711   4.304  16.163  0.2352 -0.3540  0.1743
15895TIP3    H169100   4.633   4.249  16.158  0.9595 -1.4101  0.2029
15895TIP3    H269101   4.721   4.340  16.075  0.5942 -1.4832 -0.2653
15896TIP3   OH269102   0.532   3.567  12.894  0.5191  0.7832 -0.4506
15896TIP3    H169103   0.464   3.552  12.960 -0.3800  0.9486 -1.3202
15896TIP3    H269104   0.563   3.656  12.912  0.9669  0.4709  0.3532
15897TIP3   OH269105   2.904   4.460  13.120  0.4317 -0.6965  0.1645
15897TIP3    H169106   2.893   4.535  13.061  0.5513 -0.2027  0.7601
15897TIP3    H269107   2.837   4.398  13.094 -1.7981  0.9738  1.7388
15898TIP3   OH269108   5.072   6.083  14.390  0.2015  0.3429  0.1906
15898TIP3    H169109   4.990   6.100  14.343 -0.6713 -1.5954  0.9580
15898TIP3    H269110   5.052   6.104  14.481  0.9170  0.9800  0.2013
15899TIP3   OH269111   1.462   0.174  15.676  0.6693 -0.2029 -0.1480
15899TIP3    H169112   1.406   0.199  15.603 -0.6797 -3.5812 -0.3620
15899TIP3    H269113   1.407   0.184  15.754  0.3573 -1.6899 -0.1638
15900TIP3   OH269114   6.737   1.000   0.491  0.4526  0.8896 -0.1386
15900TIP3    H169115   6.775   1.059   0.427  1.7823  0.1819 -0.0122
15900TIP3    H269116   6.770   1.030   0.576  1.8827 -0.5556 -0.1513
15901TIP3   OH269117   4.846   5.735   1.886  0.6504  0.1082 -0.1073
15901TIP3    H169118   4.854   5.709   1.978  0.5504  0.0928 -0.1030
15901TIP3    H269119   4.758   5.706   1.861  1.0558 -0.8006 -0.4921
15902TIP3   OH269120   1.905   5.162  13.037 -0.3499  0.3865  0.5454
15902TIP3    H169121   1.992   5.124  13.027 -0.6738 -0.8489  2.0528
15902TIP3    H269122   1.899   5.229  12.969  1.2667 -0.4401 -0.4405
15903TIP3   OH269123   3.474   3.385   5.075 -0.0087  0.0475 -0.1050
15903TIP3    H169124   3.492   3.340   4.992 -2.1526 -0.8258 -0.1149
15903TIP3    H269125   3.504   3.323   5.142  1.9231  0.8408 -0.1920
15904TIP3   OH269126   5.060   1.133  11.584 -0.5568 -0.0317 -0.4291
15904TIP3    H169127   5.054   1.188  11.506  0.3079 -1.1958 -1.3398
15904TIP3    H269128   5.152   1.135  11.608 -0.7781  0.1146  0.4253
15905TIP3   OH269129   1.447   4.302  13.807  0.3749 -0.1532  0.2825
15905TIP3    H169130   1.493   4.380  13.774  0.6988 -0.5901 -0.3158
15905TIP3    H269131   1.410   4.261  13.728 -0.4767 -0.1683  0.6881
15906TIP3   OH269132   6.433   0.997  12.581  0.5044  0.6285  0.0430
15906TIP3    H169133   6.346   1.036  12.579 -1.0063 -2.6157 -0.1109
15906TIP3    H269134   6.460   0.993  12.489  0.4311  0.8055  0.0139
15907TIP3   OH269135   3.764   1.815  11.355 -0.4301  0.2783  0.4084
15907TIP3    H169136   3.853   1.796  11.386  0.1800  1.0811 -0.8430
15907TIP3    H269137   3.756   1.910  11.360 -1.6298  0.1294  1.5935
15908TIP3   OH269138   1.428   6.618   6.087  0.4724 -0.1020  0.0410
15908TIP3    H169139   1.349   6.610   6.034 -0.3062  0.9218  1.0429
15908TIP3    H269140   1.401   6.593   6.175  1.1307  0.8027  0.5064
15909TIP3   OH269141   0.498   1.410   2.071  0.8055  0.1293 -0.7939
15909TIP3    H169142   0.469   1.420   1.980  1.7161  0.5384 -1.0452
15909TIP3    H269143   0.520   1.498   2.100  0.2925  0.0304 -0.0930
15910TIP3   OH269144   2.335   3.364   0.779 -0.3384  0.2558 -0.0257
15910TIP3    H169145   2.370   3.373   0.690 -1.1044  1.9568 -0.1654
15910TIP3    H269146   2.413   3.368   0.835  0.1109 -0.4076 -0.5824
15911TIP3   OH269147   5.340   6.426  11.988 -0.0965  0.3968 -0.1954
15911TIP3    H169148   5.381   6.342  11.970 -2.3890 -0.5463 -1.2602
15911TIP3    H269149   5.378   6.486  11.923  1.3811  0.1363  0.4239
15912TIP3   OH269150   2.248   6.315  16.013 -0.1373  0.0474 -0.2085
15912TIP3    H169151   2.286   6.400  16.035  0.3729  0.1379 -1.3653
15912TIP3    H269152   2.317   6.270  15.964 -0.8856 -0.4982 -0.7727
15913TIP3   OH269153   6.344   2.072  14.943  0.7352  0.2652 -0.1620
15913TIP3    H169154   6.372   2.107  15.028  1.9980 -1.3126  0.1066
15913TIP3    H269155   6.313   1.984  14.962 -2.5934  1.2529 -0.8048
15914TIP3   OH269156   3.462   3.661   4.378 -0.4050 -0.0301  0.5001
15914TIP3    H169157   3.459   3.727   4.309 -2.3849  1.2384  1.7528
15914TIP3    H269158   3.396   3.596   4.352  0.1560 -0.5060  0.2615
15915TIP3   OH269159   5.530   0.230  16.768 -0.7666 -0.1953 -0.0718
15915TIP3    H169160   5.613   0.207  16.810 -0.4119 -0.4838 -0.9169
15915TIP3    H269161   5.526   0.174  16.691 -1.4308  0.2989 -0.3986
15916TIP3   OH269162   0.479   5.732   0.182 -0.2469 -0.6109  0.1658
15916TIP3    H169163   0.391   5.695   0.171  0.1130 -1.0246 -1.4393
15916TIP3    H269164   0.530   5.695   0.109  1.1773 -0.1389  0.9034
15917TIP3   OH269165   1.341   0.356   5.468  0.7613 -0.4085 -0.3100
15917TIP3    H169166   1.424   0.310   5.467  0.4617 -0.9604 -0.1104
15917TIP3    H269167   1.345   0.411   5.546  1.0725 -0.1899 -0.4823
15918TIP3   OH269168   1.929   3.951  15.175  0.4534  0.0568  0.1670
15918TIP3    H169169   1.941   3.950  15.270  0.3557  0.4826  0.1840
15918TIP3    H269170   2.017   3.933  15.140  0.6830  0.8480  0.3269
15919TIP3   OH269171   2.780   0.636   4.059 -0.0909 -0.5307  0.9041
15919TIP3    H169172   2.773   0.581   4.137 -1.5125  0.5982  1.6001
15919TIP3    H269173   2.708   0.608   4.003 -0.6669  0.4070  1.1509
15920TIP3   OH269174   1.315   1.908  11.296  0.2296 -0.1834 -0.3301
15920TIP3    H169175   1.347   1.896  11.386 -0.0288 -2.6671 -0.5286
15920TIP3    H269176   1.324   2.002  11.279  1.1971  0.1578  1.9472
15921TIP3   OH269177   2.717   4.217   3.549  0.0902 -0.3071 -0.2673
15921TIP3    H169178   2.671   4.208   3.632 -1.3822 -0.2427 -1.0624
15921TIP3    H269179   2.810   4.217   3.573 -0.2945 -1.1657  1.2904
15922TIP3   OH269180   0.570   1.785  11.789 -0.2390  0.3700 -0.7384
15922TIP3    H169181   0.491   1.731  11.793  0.3848 -0.4416  1.4522
15922TIP3    H269182   0.625   1.742  11.723 -0.8524 -0.1713 -0.8997
15923TIP3   OH269183   5.803   5.460  15.293  0.2209 -0.2381 -0.0463
15923TIP3    H169184   5.817   5.366  15.290 -1.3345 -0.5090  0.5312
15923TIP3    H269185   5.779   5.477  15.385  2.2279  0.9851  0.2809
15924TIP3   OH269186   0.343   3.731   0.586 -0.9859  0.3260 -0.2352
15924TIP3    H169187   0.380   3.642   0.591 -0.3139  0.6333  0.4211
15924TIP3    H269188   0.402   3.779   0.529 -1.9644  0.0630 -1.4796
15925TIP3   OH269189   0.179   1.612   0.136  0.2117  0.0415 -0.4435
15925TIP3    H169190   0.134   1.581   0.058 -0.7336  0.6685 -0.1591
15925TIP3    H269191   0.211   1.532   0.179 -0.3485 -0.3878 -0.8169
15926TIP3   OH269192   1.985   0.572   5.091  0.1343 -0.2144  0.1485
15926TIP3    H169193   2.008   0.481   5.072 -0.3551  0.0004 -1.4987
15926TIP3    H269194   1.990   0.579   5.186 -0.5312 -2.1513  0.3294
15927TIP3   OH269195   1.480   6.116  13.480  0.3891 -0.1170 -0.0653
15927TIP3    H169196   1.430   6.038  13.504 -1.6497  1.2883  0.3940
15927TIP3    H269197   1.541   6.129  13.553 -0.1108 -0.5814  0.4437
15928TIP3   OH269198   1.691   0.829   6.473  0.0909  0.5601  0.5863
15928TIP3    H169199   1.595   0.826   6.476 -0.0726  3.4312 -0.2206
15928TIP3    H269200   1.713   0.784   6.392 -0.8398  3.2127 -1.1989
15929TIP3   OH269201   6.262   3.495   3.641 -0.1187  0.1423 -0.0101
15929TIP3    H169202   6.216   3.428   3.691 -2.1000  0.7572 -0.9206
15929TIP3    H269203   6.292   3.450   3.562 -0.8680  0.1434 -0.3082
15930TIP3   OH269204   3.731   2.596  15.512  0.2562 -0.5448 -0.2677
15930TIP3    H169205   3.641   2.610  15.483  0.0642 -0.3910  0.3886
15930TIP3    H269206   3.777   2.676  15.488  0.0622 -0.3568 -0.0187
15931TIP3   OH269207   1.034   1.048  17.123  0.4899  0.1606 -0.0680
15931TIP3    H169208   1.048   1.010  17.210 -0.2000  1.0992  0.4606
15931TIP3    H269209   1.095   1.001  17.067  0.8304 -0.5713  0.8931
15932TIP3   OH269210   1.587   1.457   1.261 -0.0499 -0.2257  0.2120
15932TIP3    H169211   1.626   1.522   1.318 -1.7444  1.2647 -0.2646
15932TIP3    H269212   1.601   1.373   1.305 -0.9624  0.8415  2.6192
15933TIP3   OH269213   1.529   3.007  12.543 -0.3216  0.4483 -0.6841
15933TIP3    H169214   1.620   3.036  12.551 -0.6911  1.1728  1.4045
15933TIP3    H269215   1.532   2.935  12.480  1.5380  1.1124 -1.3954
15934TIP3   OH269216   4.286   1.848   1.191  0.1327 -0.7605  0.5120
15934TIP3    H169217   4.194   1.831   1.171  0.1149 -0.9899  0.7801
15934TIP3    H269218   4.296   1.820   1.282  0.5140 -0.9104  0.4244
15935TIP3   OH269219   6.254   3.460  14.946  0.1195  0.7448  0.2486
15935TIP3    H169220   6.253   3.405  15.025 -1.9201 -0.2385 -0.4340
15935TIP3    H269221   6.346   3.484  14.935  0.5370  0.3104  2.5142
15936TIP3   OH269222   1.351   3.652  14.000  0.1229  0.0290 -0.2217
15936TIP3    H169223   1.320   3.609  14.080 -0.9747  2.1104  0.5191
15936TIP3    H269224   1.384   3.737  14.029 -4.2483  2.6937 -2.3351
15937TIP3   OH269225   5.537   1.458  11.352 -0.3945 -0.4004 -0.7150
15937TIP3    H169226   5.443   1.476  11.351  0.0861  2.6593  2.1627
15937TIP3    H269227   5.573   1.516  11.285 -0.4550 -1.0811 -1.3452
15938TIP3   OH269228   5.960   0.899   1.660 -0.7023 -0.1322  0.0357
15938TIP3    H169229   5.993   0.987   1.641  0.0933 -0.4381 -0.0364
15938TIP3    H269230   5.982   0.848   1.582  1.4889 -1.1005  1.2254
15939TIP3   OH269231   0.078   5.251  12.976  0.0015 -0.0896  0.1041
15939TIP3    H169232  -0.012   5.268  12.948 -0.2291 -2.7285 -0.9216
15939TIP3    H269233   0.073   5.246  13.072 -1.0123 -0.5962  0.0299
15940TIP3   OH269234   1.679   0.203  11.021 -0.2331  0.0529  0.1892
15940TIP3    H169235   1.750   0.140  11.035  3.1032  3.6954  0.4467
15940TIP3    H269236   1.640   0.216  11.107  1.3426  0.9070  0.7817
15941TIP3   OH269237   2.562   6.428   0.916 -0.0179  0.7524 -0.0340
15941TIP3    H169238   2.474   6.424   0.880 -0.4257 -0.1081  1.0452
15941TIP3    H269239   2.609   6.356   0.873 -0.1683  0.4713  0.2761
15942TIP3   OH269240   2.698   4.634   2.378  0.0319  0.6639 -0.7438
15942TIP3    H169241   2.652   4.565   2.427  0.2683  0.6119 -0.5942
15942TIP3    H269242   2.744   4.587   2.309 -1.0096  0.8311 -1.5538
15943TIP3   OH269243   5.203   5.215   0.408 -0.0842  0.4507 -0.8592
15943TIP3    H169244   5.289   5.243   0.442  0.0503 -0.1995 -0.6557
15943TIP3    H269245   5.178   5.284   0.347 -0.5090  1.8314  0.8590
15944TIP3   OH269246   3.088   0.149   5.032 -0.6585 -0.1650 -0.0244
15944TIP3    H169247   3.097   0.192   5.117  0.3932 -0.9505  0.2609
15944TIP3    H269248   2.994   0.132   5.023 -0.9362  1.0921  0.3944
15945TIP3   OH269249   0.764   4.331   1.282 -0.4167  0.1425  0.1084
15945TIP3    H169250   0.712   4.398   1.327  0.5900  0.1669  1.2492
15945TIP3    H269251   0.700   4.276   1.238 -1.3471  0.7809  0.6579
15946TIP3   OH269252   4.630   3.661  15.438  1.2090 -0.3535 -0.1708
15946TIP3    H169253   4.664   3.703  15.360  1.8929 -1.3866 -0.4390
15946TIP3    H269254   4.556   3.609  15.407  0.8780 -0.0056  0.0262
15947TIP3   OH269255   0.284   5.499  14.736 -0.4799  0.4044  0.0277
15947TIP3    H169256   0.298   5.574  14.794  0.4116 -0.4457  0.9421
15947TIP3    H269257   0.203   5.519  14.689 -0.4936  1.7203  0.6008
15948TIP3   OH269258   5.367   4.134  12.123  0.5982 -0.3088  0.2744
15948TIP3    H169259   5.340   4.212  12.074  1.8948  0.8928  1.4062
15948TIP3    H269260   5.291   4.077  12.122 -0.2398  0.7932 -0.9348
15949TIP3   OH269261   3.589   2.540   4.571 -0.0261  0.4089  0.4135
15949TIP3    H169262   3.653   2.537   4.642 -1.0142 -2.2536  1.2888
15949TIP3    H269263   3.626   2.483   4.503 -0.2627  0.9163 -0.1447
15950TIP3   OH269264   2.886   2.564   1.105 -0.5792 -0.1569  0.5926
15950TIP3    H169265   2.896   2.567   1.200 -0.6020  1.2597  0.5583
15950TIP3    H269266   2.815   2.626   1.086 -0.4358 -0.2752 -0.3693
15951TIP3   OH269267   2.866   3.635  12.985 -0.4784 -0.3093 -0.5040
15951TIP3    H169268   2.822   3.626  12.901 -0.6625 -0.2032 -0.4188
15951TIP3    H269269   2.906   3.549  13.000  0.2735 -0.0740 -1.0976
15952TIP3   OH269270   6.524   1.406  13.025 -0.0725  0.1748  0.5890
15952TIP3    H169271   6.620   1.414  13.024 -0.0978  0.8401  2.2482
15952TIP3    H269272   6.508   1.312  13.034  0.3997 -0.0705 -0.9833
15953TIP3   OH269273   6.294   1.178   4.433 -0.0867 -0.1393  0.1730
15953TIP3    H169274   6.370   1.203   4.486 -0.8208  0.7620  0.8384
15953TIP3    H269275   6.229   1.247   4.452 -1.8133 -2.0186  1.2607
15954TIP3   OH269276   1.390   5.184   1.618  0.4195  0.5946  0.5830
15954TIP3    H169277   1.353   5.109   1.665 -0.7984  0.2926 -0.8174
15954TIP3    H269278   1.343   5.259   1.655 -2.7885  0.0908 -2.1904
15955TIP3   OH269279   5.240   0.746  17.196 -0.4706  0.4920 -0.0037
15955TIP3    H169280   5.221   0.677  17.133  0.5373  0.1434  0.0716
15955TIP3    H269281   5.239   0.702  17.281  1.5767  0.2767 -0.0741
15956TIP3   OH269282   2.193   0.137  11.397 -0.6118  0.6074  0.1294
15956TIP3    H169283   2.165   0.223  11.428  0.3990  0.1888  2.2334
15956TIP3    H269284   2.132   0.076  11.438  0.8069  0.0410  1.4383
15957TIP3   OH269285   2.019   0.896   0.894  0.6451  0.0667 -0.2296
15957TIP3    H169286   2.049   0.858   0.977  0.7173 -0.2822 -0.4134
15957TIP3    H269287   1.984   0.982   0.918 -0.1333 -0.3933  0.2895
15958TIP3   OH269288   1.757   5.435  10.787 -0.8321  0.0812 -0.1394
15958TIP3    H169289   1.741   5.354  10.740 -0.5495 -0.5303  0.8063
15958TIP3    H269290   1.696   5.498  10.749 -1.2075 -0.6315 -0.7151
15959TIP3   OH269291   0.921   1.084  15.868 -0.3803  0.3839 -0.3700
15959TIP3    H169292   1.001   1.136  15.860 -0.7566  1.4881  2.5666
15959TIP3    H269293   0.945   1.012  15.926 -0.6532 -1.2046 -2.1563
15960TIP3   OH269294   0.254   0.893   3.550 -0.1449  0.1272  0.0289
15960TIP3    H169295   0.176   0.947   3.561 -0.2817  0.1996 -1.2502
15960TIP3    H269296   0.285   0.877   3.640 -1.9275 -0.3475  0.5751
15961TIP3   OH269297   5.383   3.727   1.618 -0.0130  0.4002 -0.1480
15961TIP3    H169298   5.317   3.710   1.685 -0.0578  2.4694  0.3787
15961TIP3    H269299   5.466   3.704   1.660 -0.1633  0.3281  0.1146
15962TIP3   OH269300   3.907   1.924   0.691  0.1368  0.0986  0.1680
15962TIP3    H169301   3.955   1.852   0.651 -0.6703 -0.4198  0.1150
15962TIP3    H269302   3.818   1.890   0.703 -0.4195  1.3038 -0.4546
15963TIP3   OH269303   2.219   1.538  14.383 -0.3465 -1.1016  0.4386
15963TIP3    H169304   2.160   1.463  14.395  0.5821 -2.7323 -4.0633
15963TIP3    H269305   2.161   1.610  14.360 -0.8731 -2.1935 -1.9130
15964TIP3   OH269306   4.927   3.091  11.847 -0.1228  0.4816  0.1192
15964TIP3    H169307   4.893   3.063  11.932 -0.4660  0.6251  0.0290
15964TIP3    H269308   4.867   3.159  11.818  0.4397  0.9790  0.1161
15965TIP3   OH269309   6.096   5.068   2.184  0.0443 -0.1082  0.2165
15965TIP3    H169310   6.094   5.101   2.094 -1.8241  0.0338  0.2735
15965TIP3    H269311   6.163   4.999   2.184  1.0287  0.8348 -0.9322
15966TIP3   OH269312   1.084   4.021   2.748 -0.1531 -0.0668 -0.4524
15966TIP3    H169313   1.073   4.112   2.720  2.0530  0.5453  0.5404
15966TIP3    H269314   0.997   3.983   2.742 -1.0082  1.9873 -1.3668
15967TIP3   OH269315   6.095   0.951  12.102 -0.9234 -0.2573  0.3443
15967TIP3    H169316   6.113   0.953  12.196  0.4512  1.5760  0.0780
15967TIP3    H269317   6.163   0.895  12.066  0.2468  1.2587  0.1408
15968TIP3   OH269318   4.133   1.581  11.766 -0.2883 -0.0841 -0.1682
15968TIP3    H169319   4.090   1.544  11.844  2.0238 -2.1714  0.1538
15968TIP3    H269320   4.141   1.508  11.706  2.0392  0.4453 -0.5573
15969TIP3   OH269321   6.411   0.309  13.708 -0.0402  0.6129 -0.0339
15969TIP3    H169322   6.482   0.364  13.740 -1.0666  1.2125  1.2782
15969TIP3    H269323   6.389   0.254  13.783 -1.3941  0.8885 -0.2250
15970TIP3   OH269324   6.634   5.420   3.695  0.2435 -0.1696 -0.5088
15970TIP3    H169325   6.592   5.504   3.713 -0.6058 -0.3469 -1.5905
15970TIP3    H269326   6.698   5.440   3.626 -0.6250 -0.5752 -1.4462
15971TIP3   OH269327   6.602   1.485   4.681  0.0429  0.4972  0.5463
15971TIP3    H169328   6.537   1.500   4.613 -0.5846  0.0899  1.0438
15971TIP3    H269329   6.681   1.459   4.634 -0.5358 -0.3057 -0.0116
15972TIP3   OH269330   4.755   3.790  16.506  0.3823 -0.4503  0.0021
15972TIP3    H169331   4.746   3.855  16.576 -1.4516 -0.0507 -0.5719
15972TIP3    H269332   4.835   3.742  16.527  0.8541  0.9108  1.3377
15973TIP3   OH269333   6.600   5.804  15.314  0.2438 -0.1775 -0.0647
15973TIP3    H169334   6.612   5.861  15.238 -2.5195  0.5293 -0.0188
15973TIP3    H269335   6.564   5.723  15.277  2.5229 -1.2983  0.0743
15974TIP3   OH269336   5.563   5.085  15.412  0.0520  0.7347  0.5364
15974TIP3    H169337   5.584   5.134  15.491  0.6677  3.6784 -1.3528
15974TIP3    H269338   5.643   5.034  15.394  0.3507  0.9975  1.1049
15975TIP3   OH269339   6.750   2.726   5.668  0.3667 -0.3060  0.4322
15975TIP3    H169340   6.825   2.679   5.633 -0.4462 -2.5798  1.6741
15975TIP3    H269341   6.783   2.814   5.684  1.9365 -0.4190 -1.8279
15976TIP3   OH269342   1.959   5.308   2.129  0.1691 -0.3582  0.8321
15976TIP3    H169343   1.940   5.388   2.080  1.7337  0.5112  1.6140
15976TIP3    H269344   1.930   5.237   2.071  1.7558  0.6470 -1.2699
15977TIP3   OH269345   0.507   0.783  15.316 -0.1652  0.0375 -0.1325
15977TIP3    H169346   0.505   0.877  15.335 -0.8750 -0.1195  0.6237
15977TIP3    H269347   0.544   0.744  15.395  1.1663 -0.2252 -0.8800
15978TIP3   OH269348   0.388   5.983  16.252 -0.2712  0.6424 -0.0538
15978TIP3    H169349   0.419   5.979  16.342  2.2606  2.1651 -0.8259
15978TIP3    H269350   0.413   5.899  16.214  0.6745  0.8958  0.0190
15979TIP3   OH269351   0.961   6.713  15.351  0.3457 -0.3649 -0.0070
15979TIP3    H169352   0.939   6.794  15.305  0.6718  0.0291  0.5112
15979TIP3    H269353   1.046   6.731  15.392  0.5589 -1.0741 -0.1263
15980TIP3   OH269354   5.619   0.259   3.729  0.6358  0.2087 -0.3454
15980TIP3    H169355   5.624   0.176   3.777  0.4129  0.8262  0.7703
15980TIP3    H269356   5.673   0.320   3.779  0.5182  0.8364 -0.9620
15981TIP3   OH269357   1.641   5.003  12.024 -0.2003  0.2004  0.0158
15981TIP3    H169358   1.672   5.018  12.113 -0.8422 -0.3530  0.3405
15981TIP3    H269359   1.720   4.980  11.975  0.1242  0.2976  0.4868
15982TIP3   OH269360   2.784   1.927  13.028  0.5352  0.0334 -0.6277
15982TIP3    H169361   2.855   1.922  12.964  3.2204 -3.9740  2.4478
15982TIP3    H269362   2.826   1.910  13.112 -3.8372 -0.9779  1.5045
15983TIP3   OH269363   4.485   3.027   3.652  0.1135  0.0501 -0.2291
15983TIP3    H169364   4.541   3.088   3.605  0.1909 -0.5598 -0.9383
15983TIP3    H269365   4.451   2.969   3.585  1.7477 -2.0338  0.6597
15984TIP3   OH269366   0.082   4.384   3.296  0.1157 -0.1898 -0.0971
15984TIP3    H169367   0.056   4.414   3.209 -3.7033 -2.0837  0.2725
15984TIP3    H269368   0.135   4.306   3.279  0.6586  0.3161 -0.7511
15985TIP3   OH269369   4.467   6.707  14.650  0.2803  0.5829 -0.0339
15985TIP3    H169370   4.387   6.753  14.622  0.6298  0.2759 -1.6131
15985TIP3    H269371   4.467   6.714  14.745 -0.9536  1.7194 -0.1022
15986TIP3   OH269372   2.848   4.856  13.998 -0.8531  0.2484  0.3120
15986TIP3    H169373   2.879   4.803  14.071 -1.7174 -0.7445 -0.0261
15986TIP3    H269374   2.875   4.807  13.920 -0.8097  0.7941 -0.0146
15987TIP3   OH269375   0.226   4.041  11.759 -0.4084 -0.0247  0.0597
15987TIP3    H169376   0.290   4.043  11.687 -1.7072 -0.3795 -1.1173
15987TIP3    H269377   0.240   3.956  11.801 -0.4775 -0.3221 -0.5236
15988TIP3   OH269378   5.745   6.029  15.308  0.2163 -0.1994  0.0481
15988TIP3    H169379   5.659   5.995  15.333  0.5129 -1.0104 -0.0263
15988TIP3    H269380   5.754   6.110  15.359  0.1097 -0.9769  1.3347
15989TIP3   OH269381   5.071   1.163  15.905  0.4065 -0.8696  0.6827
15989TIP3    H169382   5.124   1.208  15.972  0.4538 -1.2857  0.9306
15989TIP3    H269383   5.072   1.071  15.933  1.5456 -1.2663 -0.6344
15990TIP3   OH269384   4.890   3.627   2.853 -0.4210 -0.2524 -0.1984
15990TIP3    H169385   4.962   3.566   2.865 -0.3959  0.1104  1.5837
15990TIP3    H269386   4.861   3.612   2.763  1.3692 -0.9364 -0.6839
15991TIP3   OH269387   3.592   3.500  17.059  0.1563  0.2138  0.1152
15991TIP3    H169388   3.667   3.513  17.117  0.3150  1.4932 -0.3613
15991TIP3    H269389   3.532   3.572  17.080  1.4223  2.3488 -3.1606
15992TIP3   OH269390   3.305   3.701  15.245  0.1513  0.0737 -0.0712
15992TIP3    H169391   3.235   3.758  15.213  0.4404  1.5890  1.9111
15992TIP3    H269392   3.381   3.724  15.192 -0.1347  0.3942 -0.3497
15993TIP3   OH269393   6.515   4.305   6.095  0.2311 -0.3102 -0.1771
15993TIP3    H169394   6.543   4.262   6.176  0.6669  0.0651 -0.1282
15993TIP3    H269395   6.587   4.292   6.034 -0.5970 -1.6453 -0.9016
15994TIP3   OH269396   4.113   0.681   0.559  0.0071  0.3784  0.4777
15994TIP3    H169397   4.083   0.771   0.567 -0.5771  0.3764 -1.3193
15994TIP3    H269398   4.186   0.686   0.497 -0.1639 -0.4035  0.2083
15995TIP3   OH269399   3.607   5.777   5.855 -0.1109 -0.5101  0.4413
15995TIP3    H169400   3.533   5.720   5.839 -0.1626 -0.5519  0.8106
15995TIP3    H269401   3.581   5.862   5.820  0.0869 -0.7837 -0.3850
15996TIP3   OH269402   0.018   5.155  14.125 -0.6166 -0.2414 -0.2424
15996TIP3    H169403  -0.028   5.187  14.048 -1.4107  0.3006  0.4522
15996TIP3    H269404   0.021   5.230  14.184  2.6628  0.2583 -0.9399
15997TIP3   OH269405   0.705   3.288   3.328  0.4690 -0.0317  0.1193
15997TIP3    H169406   0.765   3.257   3.396  0.8222  1.9080  0.7216
15997TIP3    H269407   0.761   3.333   3.265  0.1781 -2.0533 -1.6481
15998TIP3   OH269408   3.130   1.900   2.327  0.3598 -0.2334  0.0146
15998TIP3    H169409   3.195   1.956   2.369  0.6580 -0.8927  0.4396
15998TIP3    H269410   3.160   1.890   2.237  1.6970 -1.8051  0.6113
15999TIP3   OH269411   3.708   1.256  10.565 -0.2650 -0.2519  0.2723
15999TIP3    H169412   3.720   1.233  10.657  2.4614 -1.5861 -0.3543
15999TIP3    H269413   3.659   1.183  10.528  2.6374 -2.0395 -0.2628
16000TIP3   OH269414   5.937   6.355   1.036  0.0904  0.1911 -0.2523
16000TIP3    H169415   6.029   6.366   1.013  0.7220 -3.6049  0.1075
16000TIP3    H269416   5.935   6.364   1.132 -0.2399  2.0779 -0.4226
16001TIP3   OH269417   4.973   4.920  14.572 -0.2764 -0.4576  0.1378
16001TIP3    H169418   5.013   5.006  14.557 -1.1790  0.0749  0.7168
16001TIP3    H269419   5.035   4.858  14.536  0.3525  0.4494 -0.3614
16002TIP3   OH269420   1.914   5.677  10.519  0.2603  0.0525  0.0236
16002TIP3    H169421   1.918   5.634  10.433  1.0054 -0.1778  0.1749
16002TIP3    H269422   1.984   5.742  10.517 -1.3323  1.8256 -0.4922
16003TIP3   OH269423   2.840   2.492   3.242 -0.4315  1.0344 -0.2848
16003TIP3    H169424   2.764   2.435   3.254  0.0615  0.5482  0.6509
16003TIP3    H269425   2.819   2.546   3.166 -1.4079  0.4121 -0.4603
16004TIP3   OH269426   1.867   1.399   3.845  0.3182 -0.1257 -0.3871
16004TIP3    H169427   1.907   1.343   3.779 -0.5569 -0.6385 -0.4930
16004TIP3    H269428   1.934   1.407   3.913  1.2232  0.4195 -1.3426
16005TIP3   OH269429   5.343   0.526   0.460 -0.3776  0.1734  0.0274
16005TIP3    H169430   5.335   0.607   0.511  0.8440 -0.4085  1.2025
16005TIP3    H269431   5.430   0.491   0.484 -0.9026 -1.4976 -0.4109
16006TIP3   OH269432   5.063   2.052   3.773 -0.5068  0.3603 -0.4154
16006TIP3    H169433   4.990   2.090   3.823 -1.8205 -2.8519  0.2344
16006TIP3    H269434   5.079   1.968   3.814  1.7945 -0.1576 -2.2772
16007TIP3   OH269435   2.554   4.908  13.626 -0.3504 -0.1081 -0.3003
16007TIP3    H169436   2.496   4.897  13.702 -1.7986  0.0520 -1.3606
16007TIP3    H269437   2.585   4.998  13.632  1.3236 -0.7657  1.3191
16008TIP3   OH269438   6.304   2.144  13.976  0.9534  0.4372 -0.2945
16008TIP3    H169439   6.314   2.236  13.950  2.9710  0.9039  2.0044
16008TIP3    H269440   6.329   2.142  14.068 -1.2077 -2.0643  0.3014
16009TIP3   OH269441   6.778   5.829   0.639 -0.1042  0.2212  0.2033
16009TIP3    H169442   6.827   5.910   0.650 -1.3988  0.9707  0.5024
16009TIP3    H269443   6.810   5.771   0.708  0.8387  0.4638 -0.0305
16010TIP3   OH269444   2.299   0.110   5.172 -0.3739 -0.0318  0.7040
16010TIP3    H169445   2.246   0.058   5.233  0.4223 -0.6361  0.8976
16010TIP3    H269446   2.316   0.191   5.219 -0.4758 -0.1531  0.9520
16011TIP3   OH269447   0.115   4.446  12.656  0.4485  0.0889 -0.1272
16011TIP3    H169448   0.180   4.514  12.675  0.6884 -0.6481  1.7824
16011TIP3    H269449   0.031   4.485  12.678  0.5688 -0.1619  0.7840
16012TIP3   OH269450   0.266   4.555  10.380 -0.3143 -0.0873 -0.4584
16012TIP3    H169451   0.211   4.624  10.342 -0.4492  0.2065  0.2617
16012TIP3    H269452   0.204   4.487  10.407 -0.3220  0.1626  0.1833
16013TIP3   OH269453   5.443   0.705   1.513  0.0676 -0.6815  0.3923
16013TIP3    H169454   5.528   0.750   1.519 -0.1237 -0.4216  1.1726
16013TIP3    H269455   5.379   0.773   1.531 -0.2892 -0.9840  0.2645
16014TIP3   OH269456   4.919   3.059  15.148 -0.1719 -0.1181 -0.1617
16014TIP3    H169457   4.926   3.034  15.056  1.6192 -0.0677 -0.0504
16014TIP3    H269458   4.827   3.082  15.159 -0.7511 -1.6658 -1.5457
16015TIP3   OH269459   6.264   1.652  14.462 -0.4932  0.3891 -0.3250
16015TIP3    H169460   6.218   1.651  14.546 -0.4054  0.1353 -0.2788
16015TIP3    H269461   6.353   1.679  14.484 -0.7239  1.2706 -0.4687
16016TIP3   OH269462   4.805   2.824   6.065 -0.2079  0.6018  0.0370
16016TIP3    H169463   4.838   2.751   6.013  1.5879  1.3442  0.1130
16016TIP3    H269464   4.802   2.898   6.004 -1.5119  0.6073  0.0927
16017TIP3   OH269465   6.590   0.737  13.123  0.4112  0.0785  0.1898
16017TIP3    H169466   6.679   0.741  13.088  0.1649 -2.3094 -0.7631
16017TIP3    H269467   6.538   0.699  13.053 -1.1743  0.4480  1.1397
16018TIP3   OH269468   3.216   1.078   3.057  0.5392 -0.0992 -0.3817
16018TIP3    H169469   3.206   0.984   3.045 -0.1382 -0.1960  0.8191
16018TIP3    H269470   3.311   1.092   3.063  0.6150 -0.8218  0.2340
16019TIP3   OH269471   5.816   2.772   0.365  1.0367  0.3188  0.2916
16019TIP3    H169472   5.828   2.710   0.293 -1.2360  0.6560 -0.4234
16019TIP3    H269473   5.787   2.718   0.439  1.1676  0.2658  0.3053
16020TIP3   OH269474   2.139   5.832   2.550 -0.2094  0.2590 -0.0806
16020TIP3    H169475   2.095   5.913   2.526 -0.2834  0.4195  0.5994
16020TIP3    H269476   2.068   5.773   2.577 -0.1845 -0.1356 -0.8745
16021TIP3   OH269477   6.725   0.321  11.194 -0.2754  0.0804  0.0024
16021TIP3    H169478   6.652   0.365  11.237 -1.0053  0.5168 -1.6749
16021TIP3    H269479   6.793   0.387  11.188  0.4729 -0.4604  2.0029
16022TIP3   OH269480   0.984   6.654  15.947  0.3658 -0.8288 -0.7937
16022TIP3    H169481   0.893   6.679  15.932 -0.3251 -3.4790 -1.2251
16022TIP3    H269482   1.000   6.675  16.039 -0.2548  0.8859 -1.0636
16023TIP3   OH269483   1.123   0.464  11.135 -0.3578  0.2418 -0.1553
16023TIP3    H169484   1.198   0.507  11.176  0.1040 -1.1359  0.4729
16023TIP3    H269485   1.158   0.426  11.055 -0.5283  0.1806 -0.2010
16024TIP3   OH269486   1.043   3.737  13.129 -0.2831 -0.2503 -0.6646
16024TIP3    H169487   1.090   3.818  13.108  1.0188 -0.7556  0.2163
16024TIP3    H269488   1.078   3.672  13.068 -0.4845 -0.4259 -0.5967
16025TIP3   OH269489   2.552   0.144   4.027 -0.1681 -0.0147  0.5993
16025TIP3    H169490   2.614   0.199   3.978 -1.0649  0.5994  0.1527
16025TIP3    H269491   2.595   0.059   4.032  0.2281  0.0991 -0.6806
16026TIP3   OH269492   6.784   3.269  15.942  0.0517 -0.3563 -0.1032
16026TIP3    H169493   6.712   3.330  15.925 -0.1265  0.0322  1.8793
16026TIP3    H269494   6.742   3.183  15.945  0.3263 -0.6233 -3.0484
16027TIP3   OH269495   3.375   4.582   5.674 -0.1151 -0.3980  0.1254
16027TIP3    H169496   3.420   4.649   5.726  0.6897 -0.4801 -0.4667
16027TIP3    H269497   3.294   4.565   5.723 -0.6115  1.4280 -0.0323
16028TIP3   OH269498   2.176   0.325   2.410 -0.7724  0.0901 -0.3042
16028TIP3    H169499   2.239   0.254   2.420  0.8838  1.3476 -1.3033
16028TIP3    H269500   2.143   0.341   2.499  0.3341 -0.5920  0.2444
16029TIP3   OH269501   1.761   1.752   6.078 -0.1718 -0.6923 -0.5711
16029TIP3    H169502   1.809   1.699   6.013  1.8954  1.7651 -1.1106
16029TIP3    H269503   1.804   1.732   6.161 -0.7462 -1.4161 -0.4423
16030TIP3   OH269504   0.997   6.259  12.678  0.2548 -0.0485  0.0318
16030TIP3    H169505   1.042   6.180  12.710 -0.3801 -1.0660 -1.4912
16030TIP3    H269506   0.968   6.304  12.757  2.5476 -0.1948  1.0031
16031TIP3   OH269507   5.353   1.927   5.035  0.0456 -0.2740  0.3119
16031TIP3    H169508   5.296   1.965   4.968 -1.2988  0.9270  2.0969
16031TIP3    H269509   5.409   1.999   5.063 -0.3310 -0.4021  1.4365
16032TIP3   OH269510   4.060   1.789  12.299  0.3996 -0.0862 -0.0585
16032TIP3    H169511   4.066   1.772  12.393 -0.6553  0.1402  0.0562
16032TIP3    H269512   3.981   1.843  12.289 -1.6693 -3.2271 -1.4785
16033TIP3   OH269513   4.764   6.567   4.094 -0.1814 -0.8623  0.3097
16033TIP3    H169514   4.777   6.650   4.049 -0.0825 -0.4867  1.0291
16033TIP3    H269515   4.677   6.573   4.133 -0.4432 -1.3570 -0.1899
16034TIP3   OH269516   6.150   2.678   5.086 -0.0064 -0.7948 -0.4498
16034TIP3    H169517   6.170   2.682   5.180  0.3144 -1.2523 -0.4979
16034TIP3    H269518   6.066   2.723   5.078 -0.0088 -0.7043  0.0527
16035TIP3   OH269519   6.087   0.304  13.686 -1.6443  0.5217 -0.0851
16035TIP3    H169520   6.170   0.289  13.641 -0.5472  0.2718  1.9387
16035TIP3    H269521   6.060   0.392  13.661  0.9301  1.9093  1.7802
16036TIP3   OH269522   6.226   4.264  14.106 -0.3337 -0.4804  0.2595
16036TIP3    H169523   6.140   4.289  14.072 -0.3192  0.4833  0.9261
16036TIP3    H269524   6.289   4.308  14.049 -0.3043  0.5871  1.1030
16037TIP3   OH269525   4.976   0.532   2.323 -0.4350  0.0060  0.4367
16037TIP3    H169526   5.059   0.577   2.337  0.5259 -2.0084  1.4892
16037TIP3    H269527   4.990   0.444   2.360 -3.1125 -0.2708  0.9038
16038TIP3   OH269528   2.524   3.755  11.267  0.0391  0.0934 -0.4374
16038TIP3    H169529   2.570   3.828  11.310  1.0130 -0.6617 -0.1797
16038TIP3    H269530   2.543   3.679  11.323 -1.6083 -0.2088 -0.2803
16039TIP3   OH269531   2.726   3.030   3.081  0.1944  0.3842  0.0869
16039TIP3    H169532   2.756   2.949   3.123  0.1437  0.8162  0.9903
16039TIP3    H269533   2.748   3.098   3.145 -0.9797  0.9278 -0.0860
16040TIP3   OH269534   1.348   2.134   0.982  0.4748  0.0284  0.1004
16040TIP3    H169535   1.343   2.066   1.049  0.8568 -1.3722 -1.2673
16040TIP3    H269536   1.433   2.177   0.997 -0.0898  0.7355  1.4305
16041TIP3   OH269537   2.421   5.631   0.295 -0.3758  0.5090 -0.8457
16041TIP3    H169538   2.443   5.556   0.239  1.1109 -0.0794  0.4952
16041TIP3    H269539   2.395   5.592   0.378  0.7036  1.4732 -0.0407
16042TIP3   OH269540   0.325   5.729   5.023  0.1045 -0.2151  0.2679
16042TIP3    H169541   0.319   5.778   4.941 -1.6868  0.6272  0.8643
16042TIP3    H269542   0.235   5.700   5.039  0.6940 -1.5651  1.2214
16043TIP3   OH269543   2.394   0.450  16.156 -0.1578 -0.2772  0.9027
16043TIP3    H169544   2.399   0.478  16.247 -1.9329  1.5631  0.4719
16043TIP3    H269545   2.325   0.383  16.155 -1.8407  1.4228  0.5418
16044TIP3   OH269546   2.256   1.040  14.618 -0.0371 -0.4583 -0.6853
16044TIP3    H169547   2.260   0.945  14.620  0.0961 -0.4400 -0.0533
16044TIP3    H269548   2.346   1.069  14.636 -0.4437 -0.1976  0.9964
16045TIP3   OH269549   2.591   3.424   2.380 -0.1413 -0.2093 -0.0468
16045TIP3    H169550   2.615   3.343   2.425  0.8076  0.5756  0.8673
16045TIP3    H269551   2.505   3.405   2.341 -0.3263 -1.3634  0.8979
16046TIP3   OH269552   4.543   2.357   2.251 -0.3643 -0.2221 -0.1431
16046TIP3    H169553   4.538   2.300   2.174 -1.4132  0.2872 -0.4540
16046TIP3    H269554   4.455   2.394   2.260  0.0710  0.6549  0.5980
16047TIP3   OH269555   3.428   1.336   3.296 -0.2730  0.0955 -0.2916
16047TIP3    H169556   3.421   1.431   3.304 -0.7399  0.0809 -0.4808
16047TIP3    H269557   3.489   1.310   3.364 -1.8118  0.3002  1.2112
16048TIP3   OH269558   1.923   4.437   3.346  0.1625  0.3012 -0.5123
16048TIP3    H169559   1.939   4.370   3.279 -1.1341 -2.0387  1.4661
16048TIP3    H269560   2.003   4.438   3.399 -0.3672 -0.7070  0.3143
16049TIP3   OH269561   3.767   6.247   2.947 -0.1151 -0.2161 -0.0316
16049TIP3    H169562   3.850   6.277   2.910 -0.3514  0.0429 -0.3636
16049TIP3    H269563   3.717   6.216   2.871 -0.6181  0.3520  0.0604
16050TIP3   OH269564   2.665   2.899   2.651 -0.5661 -0.4857 -0.3648
16050TIP3    H169565   2.611   2.921   2.576  0.0321 -2.8917 -1.5340
16050TIP3    H269566   2.617   2.934   2.726 -2.8953 -1.0808 -1.5277
16051TIP3   OH269567   2.247   3.590  15.756 -0.4629 -0.0762 -0.1506
16051TIP3    H169568   2.186   3.587  15.682 -0.3779 -2.0332 -0.1651
16051TIP3    H269569   2.287   3.503  15.757 -1.0306 -0.3379  2.6745
16052TIP3   OH269570   2.984   1.314  16.942 -0.0181 -0.3306 -0.3782
16052TIP3    H169571   3.079   1.327  16.934  0.0067 -0.0806  0.2667
16052TIP3    H269572   2.971   1.221  16.923  0.3239 -0.2960 -0.7746
16053TIP3   OH269573   0.143   2.692  10.636 -0.2782  0.0170  0.1927
16053TIP3    H169574   0.172   2.621  10.578 -1.3469 -0.6568  0.4670
16053TIP3    H269575   0.122   2.764  10.577  2.1610  0.6118  0.0026
16054TIP3   OH269576   1.374   0.811  15.899  0.4694 -0.6057  0.0356
16054TIP3    H169577   1.459   0.783  15.931 -0.3249 -3.1290  0.0342
16054TIP3    H269578   1.317   0.807  15.976  0.2021  0.5511 -0.0817
16055TIP3   OH269579   1.358   5.159   4.186 -0.1530 -0.3302 -0.1205
16055TIP3    H169580   1.266   5.184   4.184  0.0294  0.3239 -0.6766
16055TIP3    H269581   1.397   5.204   4.111  0.3490 -1.7043 -0.6958
16056TIP3   OH269582   0.484   5.919  15.047 -0.4256 -0.1049  0.3588
16056TIP3    H169583   0.389   5.920  15.036 -0.3988 -1.1400 -0.0291
16056TIP3    H269584   0.498   5.937  15.140 -0.8438  3.7238 -0.2261
16057TIP3   OH269585   1.584   0.261   2.976 -0.1264 -0.5964 -0.3903
16057TIP3    H169586   1.567   0.245   3.069  1.4503 -0.3743 -0.0663
16057TIP3    H269587   1.608   0.353   2.971  2.3367 -1.2198 -0.6415
16058TIP3   OH269588   2.034   1.207   5.967 -0.1338 -0.1412 -0.0320
16058TIP3    H169589   2.085   1.126   5.973 -0.4140 -0.3359 -0.2879
16058TIP3    H269590   2.051   1.252   6.050 -1.6209 -1.4452  0.9939
16059TIP3   OH269591   3.126   6.203  12.644  0.1894 -0.4044 -0.6392
16059TIP3    H169592   3.215   6.193  12.610  0.2869 -0.1705 -0.4462
16059TIP3    H269593   3.113   6.127  12.701  0.6281  0.1053  0.1416
16060TIP3   OH269594   6.283   6.133   6.206 -0.0134 -0.2457  0.2707
16060TIP3    H169595   6.341   6.204   6.234 -1.6008  0.9397  0.6898
16060TIP3    H269596   6.332   6.086   6.138  0.4867  2.1733 -1.0903
16061TIP3   OH269597   4.854   0.563   4.675  0.0315 -0.0157  0.2664
16061TIP3    H169598   4.935   0.513   4.660 -0.2631 -0.7380  1.0802
16061TIP3    H269599   4.865   0.642   4.622  0.4752 -0.9603 -1.0692
16062TIP3   OH269600   5.551   5.815   4.579  0.0836 -0.1836 -0.7316
16062TIP3    H169601   5.559   5.807   4.674  1.0053  1.2519 -0.6700
16062TIP3    H269602   5.503   5.737   4.552 -1.2109 -0.0196  1.0426
16063TIP3   OH269603   1.897   4.995   3.155 -0.2739  0.0967  0.4702
16063TIP3    H169604   1.950   5.046   3.094 -0.3474 -1.8445 -1.2801
16063TIP3    H269605   1.940   4.909   3.159 -1.0907 -0.2736  2.0625
16064TIP3   OH269606   1.286   5.565  16.915 -0.9069  0.1924  0.3288
16064TIP3    H169607   1.360   5.545  16.857 -0.9361 -1.0468  0.6959
16064TIP3    H269608   1.244   5.641  16.875  0.4849  0.8316  0.0369
16065TIP3   OH269609   0.840   2.059  14.942 -0.6168  0.4982  0.5706
16065TIP3    H169610   0.847   2.077  15.036  1.7949 -1.1777  0.7299
16065TIP3    H269611   0.778   1.986  14.937 -0.7167  0.5612  0.8435
16066TIP3   OH269612   5.600   5.695   1.486  0.3368  0.3770 -0.2861
16066TIP3    H169613   5.574   5.682   1.394  1.0539 -0.6989 -0.3416
16066TIP3    H269614   5.519   5.723   1.529 -0.1451  0.3174 -1.1320
16067TIP3   OH269615   2.215   5.962  11.690  0.2328 -0.6317 -0.2913
16067TIP3    H169616   2.229   5.871  11.714 -1.2289 -0.5243  1.0525
16067TIP3    H269617   2.124   5.965  11.660  0.8158  0.0400 -2.0434
16068TIP3   OH269618   5.030   2.780  13.502 -1.3159  0.0977 -0.0174
16068TIP3    H169619   5.000   2.712  13.440  0.2652 -0.6545  0.0157
16068TIP3    H269620   5.106   2.820  13.459 -0.6337  0.0530  1.1176
16069TIP3   OH269621   5.967   6.765   3.668  0.3148 -0.0003  0.5667
16069TIP3    H169622   6.014   6.683   3.656 -0.0341  0.0850 -1.4587
16069TIP3    H269623   5.893   6.760   3.608  0.9092  2.2543 -0.4092
16070TIP3   OH269624   0.143   0.717   0.909  0.3613 -0.5015  0.2455
16070TIP3    H169625   0.048   0.712   0.902  0.4877 -0.1311 -2.3819
16070TIP3    H269626   0.175   0.637   0.868  1.2457  1.0301 -2.1555
16071TIP3   OH269627   4.558   2.773  11.268  0.0999 -0.4300 -0.2872
16071TIP3    H169628   4.597   2.705  11.324  1.6762  0.8795  0.2590
16071TIP3    H269629   4.564   2.736  11.180  0.7865 -1.0891  0.0187
16072TIP3   OH269630   1.590   0.848   2.801  0.7585 -0.3800 -0.2465
16072TIP3    H169631   1.679   0.820   2.824  0.7868 -0.3527 -0.3227
16072TIP3    H269632   1.543   0.767   2.782  0.8633 -0.3703 -0.5518
16073TIP3   OH269633   3.481   2.201  15.478 -0.4080 -0.1789 -0.2004
16073TIP3    H169634   3.510   2.112  15.457 -1.2527 -0.6324  0.4850
16073TIP3    H269635   3.452   2.238  15.395  1.3846 -0.0000 -0.7505
16074TIP3   OH269636   3.491   2.943  13.657  0.1851  0.0323 -0.0828
16074TIP3    H169637   3.523   2.982  13.738 -1.1842 -0.2391  0.5993
16074TIP3    H269638   3.419   2.886  13.684  1.5824 -2.3191 -1.1610
16075TIP3   OH269639   2.168   5.902  14.743  0.2349  0.1972  0.2776
16075TIP3    H169640   2.263   5.912  14.750  0.1647 -0.2738  2.0627
16075TIP3    H269641   2.156   5.831  14.680  1.0355  0.7753 -0.5509
16076TIP3   OH269642   0.877   2.342  11.536  0.4074 -0.1279 -0.1505
16076TIP3    H169643   0.903   2.392  11.459 -0.9500 -0.1143 -0.6198
16076TIP3    H269644   0.867   2.252  11.504  1.9334 -0.5308  0.4872
16077TIP3   OH269645   6.568   0.092  16.796  0.4597 -0.1635 -0.8764
16077TIP3    H169646   6.636   0.158  16.789  0.8901 -0.6375 -1.2784
16077TIP3    H269647   6.598   0.033  16.865  0.0227  0.1217 -0.4433
16078TIP3   OH269648   2.902   6.594   4.674  0.3060 -0.0729  0.2865
16078TIP3    H169649   2.877   6.613   4.764 -0.6505  1.6043 -0.3204
16078TIP3    H269650   2.838   6.641   4.620  0.5873 -1.4187 -1.2776
16079TIP3   OH269651   1.940   5.294  12.447  0.0976 -0.7194 -0.1489
16079TIP3    H169652   1.927   5.244  12.528 -1.5736 -0.0782  0.0157
16079TIP3    H269653   1.851   5.321  12.422  0.7511  0.2739 -1.4325
16080TIP3   OH269654   3.327   5.948   0.469 -0.0015  0.1088 -0.0782
16080TIP3    H169655   3.397   5.910   0.522 -0.8070 -2.1047 -0.5107
16080TIP3    H269656   3.364   5.955   0.381 -0.1373 -0.5648 -0.1930
16081TIP3   OH269657   6.140   1.389  12.449 -0.8974 -0.7864 -0.4304
16081TIP3    H169658   6.068   1.405  12.388 -1.1129 -0.3530 -0.0670
16081TIP3    H269659   6.179   1.476  12.462 -0.5187 -0.9672 -0.3702
16082TIP3   OH269660   4.246   4.810   5.536  0.6851 -0.4683 -0.2427
16082TIP3    H169661   4.239   4.849   5.623 -0.5182 -0.5297 -0.3084
16082TIP3    H269662   4.340   4.811   5.517  0.6645  3.2233 -0.6035
16083TIP3   OH269663   5.543   3.777  10.999 -0.0250 -0.1063 -0.6095
16083TIP3    H169664   5.595   3.697  11.001  0.2170  0.0336 -1.2739
16083TIP3    H269665   5.461   3.751  10.957  0.2731  0.1207 -1.3409
16084TIP3   OH269666   4.239   1.208   2.071  0.3965  0.3726  0.4001
16084TIP3    H169667   4.209   1.270   2.005 -1.5186 -0.4046  0.4806
16084TIP3    H269668   4.312   1.251   2.114 -0.7416  2.4784  0.2970
16085TIP3   OH269669   5.750   3.399   2.442 -0.1781  0.2254 -0.1778
16085TIP3    H169670   5.775   3.444   2.361 -1.8794 -0.8113 -1.2934
16085TIP3    H269671   5.805   3.321   2.443 -0.0653  0.3024 -0.2546
16086TIP3   OH269672   5.179   3.524   3.059  0.5361  0.3375 -0.2476
16086TIP3    H169673   5.125   3.592   3.019  0.6529  0.4844 -0.1532
16086TIP3    H269674   5.115   3.465   3.101  0.3089 -0.7268 -2.0543
16087TIP3   OH269675   4.549   2.113   1.607 -0.2037 -0.2299  0.1581
16087TIP3    H169676   4.612   2.173   1.567 -0.5819  1.0105  1.3936
16087TIP3    H269677   4.599   2.068   1.675  0.2840 -1.9053 -1.2743
16088TIP3   OH269678   1.813   5.056  11.596  0.0240 -0.0755  0.0755
16088TIP3    H169679   1.796   4.962  11.604 -0.4039 -0.0289 -0.2539
16088TIP3    H269680   1.728   5.097  11.613  0.1840  0.2458  0.0927
16089TIP3   OH269681   4.288   5.913  12.697  0.1723  0.0343 -0.1614
16089TIP3    H169682   4.319   5.883  12.611  0.4185 -0.7803  0.2085
16089TIP3    H269683   4.343   5.867  12.760 -1.3246 -0.9140  0.4937
16090TIP3   OH269684   3.138   5.077   1.900 -0.0318  0.4711 -0.0031
16090TIP3    H169685   3.061   5.064   1.955  0.8031  0.6852  1.2414
16090TIP3    H269686   3.133   5.006   1.835 -1.2445  0.4632  0.0860
16091TIP3   OH269687   0.497   3.612  13.812 -0.0643  0.7298  0.6034
16091TIP3    H169688   0.452   3.696  13.801 -0.9694  0.0582 -0.9437
16091TIP3    H269689   0.568   3.615  13.747 -0.3446  0.1435  0.2690
16092TIP3   OH269690   3.804   2.008   0.191 -0.9772  0.0578 -0.2237
16092TIP3    H169691   3.726   1.972   0.235 -0.7582 -0.0493  0.0763
16092TIP3    H269692   3.866   2.025   0.262 -0.8848  0.5387 -0.4238
16093TIP3   OH269693   3.066   3.183   5.955  0.1196  0.1672  0.1189
16093TIP3    H169694   2.991   3.130   5.927  0.9625 -1.6642  1.1988
16093TIP3    H269695   3.027   3.256   6.003 -1.0252 -0.2130 -0.2136
16094TIP3   OH269696   4.629   0.220  12.903 -0.5226  0.5905 -0.0713
16094TIP3    H169697   4.579   0.301  12.890  0.6908  1.5378  0.9906
16094TIP3    H269698   4.575   0.152  12.862 -1.6103  1.9119 -0.9019
16095TIP3   OH269699   5.277   5.212  14.415  0.3779 -0.4674  0.3367
16095TIP3    H169700   5.197   5.192  14.465 -0.3911  1.3571 -0.1381
16095TIP3    H269701   5.257   5.185  14.326  0.3707 -0.1945  0.2563
16096TIP3   OH269702   0.162   2.897  15.454 -0.4908 -0.3039 -0.0367
16096TIP3    H169703   0.198   2.815  15.488  0.3677  0.4658  0.9332
16096TIP3    H269704   0.204   2.909  15.370 -0.7437 -0.9400 -0.2557
16097TIP3   OH269705   6.313   5.624  13.605  0.2336 -0.2005  0.6061
16097TIP3    H169706   6.313   5.638  13.700 -0.3919  1.8900  0.3317
16097TIP3    H269707   6.405   5.619  13.581  0.3994 -0.3636  1.2775
16098TIP3   OH269708   1.363   6.061   1.628 -0.7233 -0.3431  0.5896
16098TIP3    H169709   1.417   5.982   1.639  0.4661  0.6486  2.0659
16098TIP3    H269710   1.273   6.028   1.630 -0.2244 -1.8343 -0.2854
16099TIP3   OH269711   6.422   3.906  14.094  1.1070  0.6684  0.4833
16099TIP3    H169712   6.336   3.927  14.129  1.0049  0.3700  0.4079
16099TIP3    H269713   6.424   3.948  14.007  1.3472  1.3732  0.8187
16100TIP3   OH269714   1.053   0.786  14.203  0.3184 -0.0738 -0.0372
16100TIP3    H169715   1.038   0.848  14.132  0.0424 -1.3761 -1.1525
16100TIP3    H269716   1.128   0.821  14.251 -1.5430  2.5971  1.0700
16101TIP3   OH269717   0.718   0.775  13.274  0.4089  0.1265 -0.1784
16101TIP3    H169718   0.664   0.702  13.243  1.2627 -1.0054  0.9680
16101TIP3    H269719   0.670   0.810  13.348  0.1365  0.5618 -0.5575
16102TIP3   OH269720   5.946   0.283   3.417  0.1425 -0.0054 -0.1817
16102TIP3    H169721   5.906   0.324   3.340  0.4896  0.4805 -0.1048
16102TIP3    H269722   5.880   0.222   3.449 -0.6582  1.0255  0.1294
16103TIP3   OH269723   0.458   3.619   0.022 -0.5017 -0.2700  0.4900
16103TIP3    H169724   0.396   3.552   0.052 -2.0565  0.6726 -0.5338
16103TIP3    H269725   0.505   3.645   0.101 -4.3144  1.9696  2.1589
16104TIP3   OH269726   5.542   6.587   5.673  0.8527  0.2055  0.3956
16104TIP3    H169727   5.539   6.563   5.766 -2.6318 -1.8103 -0.1602
16104TIP3    H269728   5.463   6.640   5.659  2.4353  2.2881 -1.0215
16105TIP3   OH269729   5.869   3.176  13.409  0.2437 -0.5086 -0.2889
16105TIP3    H169730   5.811   3.155  13.482 -0.0900  1.9192  0.1888
16105TIP3    H269731   5.945   3.218  13.450  1.2276 -1.4129 -1.1365
16106TIP3   OH269732   0.745   3.872   1.697 -0.0982  0.7208 -0.0128
16106TIP3    H169733   0.734   3.862   1.602  2.0155  1.7179 -0.4056
16106TIP3    H269734   0.717   3.962   1.714  1.3368  1.1954 -0.0405
16107TIP3   OH269735   6.711   0.984  14.288 -0.4889 -0.0224 -0.1493
16107TIP3    H169736   6.729   0.970  14.381  0.9185 -0.3264 -0.4442
16107TIP3    H269737   6.623   0.949  14.275  0.2862 -2.3494  0.5599
16108TIP3   OH269738   3.023   1.769   0.355 -0.2223  0.1719  0.9699
16108TIP3    H169739   3.004   1.847   0.302 -0.3640 -1.2905 -1.1860
16108TIP3    H269740   3.107   1.737   0.321  0.3164 -0.1073  2.4936
16109TIP3   OH269741   5.799   2.151  12.697  0.0861 -0.2591 -0.4424
16109TIP3    H169742   5.781   2.229  12.749 -2.2913 -1.1700  0.1539
16109TIP3    H269743   5.827   2.085  12.761  2.2523  0.1079 -0.9631
16110TIP3   OH269744   0.939   2.808  12.997  0.7020 -0.0331 -0.0522
16110TIP3    H169745   0.890   2.726  12.999 -0.1543  0.4597 -0.2199
16110TIP3    H269746   0.934   2.840  13.088  1.6334 -0.5108  0.1669
16111TIP3   OH269747   3.517   1.011   4.220 -0.3417 -0.2587 -0.0827
16111TIP3    H169748   3.473   0.926   4.229 -2.3557  0.8475  0.6160
16111TIP3    H269749   3.610   0.991   4.235 -0.6215 -2.5428 -1.1762
16112TIP3   OH269750   0.206   3.838   5.321  0.1698 -0.4132  0.0021
16112TIP3    H169751   0.219   3.847   5.227 -2.4746 -0.4322 -0.4060
16112TIP3    H269752   0.244   3.753   5.343 -0.5970 -1.1111 -1.3365
16113TIP3   OH269753   0.256   6.024  11.537 -0.4118 -0.3885  0.3742
16113TIP3    H169754   0.260   5.934  11.503  0.4044 -0.1466 -0.1743
16113TIP3    H269755   0.205   6.072  11.472 -0.2508 -0.2978  0.3153
16114TIP3   OH269756   6.289   5.384  12.528  0.0958  0.9024  0.1556
16114TIP3    H169757   6.348   5.454  12.555  1.0703  0.5497 -1.0011
16114TIP3    H269758   6.327   5.351  12.446 -1.3407  0.2372 -0.2636
16115TIP3   OH269759   6.775   4.529  15.605 -0.1170  0.1378 -0.2547
16115TIP3    H169760   6.751   4.547  15.514 -0.1299 -0.3987 -0.3611
16115TIP3    H269761   6.846   4.591  15.624  1.1633 -0.9927 -1.2193
16116TIP3   OH269762   6.333   0.970  15.599  0.2865 -0.5967  0.3367
16116TIP3    H169763   6.293   0.890  15.566  1.4051 -0.0690 -2.3662
16116TIP3    H269764   6.403   0.939  15.657  1.5431 -1.6341 -1.6692
16117TIP3   OH269765   2.009   1.272   3.661  0.5695 -0.3855 -0.5490
16117TIP3    H169766   2.091   1.322   3.660  1.1902 -1.3151  1.2795
16117TIP3    H269767   2.034   1.186   3.696 -1.1408 -0.7730 -0.2474
16118TIP3   OH269768   4.888   6.140  14.211 -0.6054  0.4254  0.2688
16118TIP3    H169769   4.902   6.087  14.133  0.2053  1.3361 -0.2236
16118TIP3    H269770   4.801   6.178  14.200 -0.6643  0.2117  0.0138
16119TIP3   OH269771   6.442   5.984  14.814  0.5990 -0.4215  0.2687
16119TIP3    H169772   6.383   5.947  14.879  1.3239 -1.6956  0.1973
16119TIP3    H269773   6.450   5.916  14.747  1.1536  0.2386 -0.3473
16120TIP3   OH269774   0.248   6.278   0.878 -0.5386  0.1329 -0.2112
16120TIP3    H169775   0.287   6.239   0.956  0.7524  1.6374 -0.0856
16120TIP3    H269776   0.178   6.218   0.854 -1.1306 -0.2298  2.2634
16121TIP3   OH269777   6.074   1.287   6.016  0.0359  0.1824 -0.0660
16121TIP3    H169778   6.049   1.228   6.086  1.3309  0.2143  0.4359
16121TIP3    H269779   6.141   1.344   6.054  0.2552  0.6567 -1.1169
16122TIP3   OH269780   3.179   5.673  11.036 -0.3825 -0.2164  0.0707
16122TIP3    H169781   3.087   5.648  11.038 -0.4170 -0.0158  1.8514
16122TIP3    H269782   3.179   5.763  11.005 -0.6749 -0.5860 -1.0462
16123TIP3   OH269783   1.766   5.496   3.971  0.5453  0.6553  0.1231
16123TIP3    H169784   1.725   5.504   3.885 -0.1350 -0.4230  0.3348
16123TIP3    H269785   1.790   5.586   3.995  1.1199  0.9099 -1.3603
16124TIP3   OH269786   0.935   0.868   2.903  0.1872  0.1159 -0.1705
16124TIP3    H169787   0.895   0.953   2.880  0.0415  0.4209  1.1933
16124TIP3    H269788   0.977   0.883   2.987 -0.3356 -1.3301  0.3626
16125TIP3   OH269789   2.425   2.442   5.060  0.0376  0.3687 -0.2817
16125TIP3    H169790   2.400   2.508   5.125 -0.2756  0.1717 -0.2029
16125TIP3    H269791   2.355   2.377   5.062  0.5964 -0.2356  0.0067
16126TIP3   OH269792   5.742   4.208  10.904 -0.0209 -0.3890  0.1619
16126TIP3    H169793   5.789   4.134  10.865  0.7773  0.3833 -0.3604
16126TIP3    H269794   5.670   4.168  10.952  0.0105 -1.4684 -0.6717
16127TIP3   OH269795   2.719   5.493   4.617 -0.3210 -0.6010 -0.4542
16127TIP3    H169796   2.756   5.578   4.642 -0.0175 -0.4452 -1.4340
16127TIP3    H269797   2.717   5.443   4.699 -2.2743  1.0071  0.5342
16128TIP3   OH269798   1.908   6.716   4.289  0.5922  0.2740  0.0276
16128TIP3    H169799   1.924   6.652   4.358  0.7431 -0.4484 -0.6834
16128TIP3    H269800   1.813   6.730   4.291  0.6285  0.4713  0.5656
16129TIP3   OH269801   3.997   0.007  16.562 -0.1427 -0.1619 -0.6384
16129TIP3    H169802   4.017  -0.025  16.474 -0.5308 -0.2227 -0.7004
16129TIP3    H269803   4.029  -0.061  16.620  1.3440  0.4736 -0.6777
16130TIP3   OH269804   5.851   3.512   0.513 -0.2083 -0.0402 -0.0182
16130TIP3    H169805   5.803   3.503   0.431 -0.5680 -1.7549  0.3714
16130TIP3    H269806   5.940   3.536   0.486 -0.5983  0.5176 -0.8433
16131TIP3   OH269807   1.823   0.575  13.402 -0.7660  1.2348  0.2288
16131TIP3    H169808   1.908   0.537  13.425 -0.6451  1.0294 -0.5617
16131TIP3    H269809   1.775   0.578  13.485 -1.5871 -2.6837 -0.0221
16132TIP3   OH269810   0.854   3.366   4.024 -0.0250  0.5014  0.0344
16132TIP3    H169811   0.932   3.317   4.049 -0.1703 -0.6914 -1.8164
16132TIP3    H269812   0.798   3.361   4.102  1.3351  0.5622  1.0387
16133TIP3   OH269813   4.214   1.131  11.157  0.3791 -0.3909  0.0744
16133TIP3    H169814   4.260   1.072  11.098  2.0194  0.0726  0.8848
16133TIP3    H269815   4.221   1.091  11.243 -0.1961  0.0068  0.3136
16134TIP3   OH269816   3.880   4.792  13.521 -0.3578  0.4261  0.1113
16134TIP3    H169817   3.835   4.869  13.486  0.5285 -0.0142 -2.0754
16134TIP3    H269818   3.930   4.825  13.596 -1.5951  1.5554  0.4640
16135TIP3   OH269819   0.072   1.322  14.434  0.4719 -0.2293  0.1652
16135TIP3    H169820   0.055   1.416  14.440  0.6612 -0.0959 -1.1553
16135TIP3    H269821  -0.014   1.281  14.445  0.2890  0.1318  0.0982
16136TIP3   OH269822   1.955   3.051  16.834 -0.8312  0.1340  0.6191
16136TIP3    H169823   2.009   3.110  16.781 -1.0058 -0.1633  0.1133
16136TIP3    H269824   2.014   2.980  16.859 -1.3207 -0.8604 -1.0203
16137TIP3   OH269825   4.056   1.790  12.602  0.5029 -0.1431  0.4579
16137TIP3    H169826   4.052   1.703  12.640  1.8802 -0.8549 -0.9674
16137TIP3    H269827   4.148   1.804  12.581 -0.0314  0.6225 -1.6121
16138TIP3   OH269828   1.498   4.337  11.745  0.1567 -0.5584 -0.4525
16138TIP3    H169829   1.523   4.250  11.713 -3.0770 -1.5234 -0.4596
16138TIP3    H269830   1.432   4.320  11.812 -0.7535  1.9228 -0.6795
16139TIP3   OH269831   2.652   5.004  14.138 -0.7617  0.3129  0.4241
16139TIP3    H169832   2.710   4.944  14.092  1.3780  2.1664  0.6021
16139TIP3    H269833   2.607   5.053  14.069 -1.7422 -0.7681  0.2900
16140TIP3   OH269834   2.594   5.610  13.352  0.3478  0.0080  0.5497
16140TIP3    H169835   2.551   5.555  13.287  0.0697 -1.5278  1.9918
16140TIP3    H269836   2.595   5.697  13.313 -2.2115 -0.3465 -0.3715
16141TIP3   OH269837   0.408   0.150   2.392  0.1766  0.0429 -0.2364
16141TIP3    H169838   0.478   0.113   2.338  0.3487 -1.5798  1.0643
16141TIP3    H269839   0.444   0.150   2.480  0.1605  3.3486 -0.1771
16142TIP3   OH269840   3.766   5.750  14.302  0.2628  0.0383  0.2815
16142TIP3    H169841   3.773   5.730  14.209 -1.1801  0.0874  0.1607
16142TIP3    H269842   3.673   5.765  14.317  0.3392 -0.9671  1.9364
16143TIP3   OH269843   2.059   6.524   0.935 -0.3410  0.2041  0.0914
16143TIP3    H169844   2.088   6.484   1.017  1.1960  1.6602  0.2972
16143TIP3    H269845   1.964   6.514   0.935 -0.2762 -0.4816  1.6993
16144TIP3   OH269846   6.289   6.652   4.173  0.2608  0.2254 -0.4438
16144TIP3    H169847   6.341   6.658   4.092  0.4444  1.3887 -0.2486
16144TIP3    H269848   6.291   6.559   4.196  3.1795  0.3887  0.1549
16145TIP3   OH269849   5.959   4.237   0.727 -0.0319  0.3708 -0.3299
16145TIP3    H169850   6.045   4.202   0.706 -0.9263 -0.4026 -2.8432
16145TIP3    H269851   5.976   4.323   0.766  1.8255  0.6385 -1.7146
16146TIP3   OH269852   6.667   6.684  16.966  0.4631  0.2701 -0.1049
16146TIP3    H169853   6.762   6.683  16.956  0.6546  2.1298  1.3935
16146TIP3    H269854   6.644   6.592  16.982  1.8269 -0.3987 -1.8676
16147TIP3   OH269855   0.131   0.815  16.963 -0.8978  0.9447  0.4995
16147TIP3    H169856   0.135   0.721  16.978  0.3120  1.1307  1.4142
16147TIP3    H269857   0.222   0.841  16.946 -1.2271  1.9360  0.1957
16148TIP3   OH269858   5.593   0.407  13.318  0.5164  0.8062  0.1691
16148TIP3    H169859   5.529   0.477  13.330 -0.1946  0.1517  0.2257
16148TIP3    H269860   5.544   0.336  13.277  1.0316  0.0188  0.8972
16149TIP3   OH269861   0.665   3.280  14.639 -0.0045 -0.0480 -0.7115
16149TIP3    H169862   0.642   3.350  14.578 -0.6386  1.3981  1.1102
16149TIP3    H269863   0.724   3.322  14.702  1.9659 -1.9206 -1.2326
16150TIP3   OH269864   5.242   5.490   0.731 -0.0080  0.1287 -0.2085
16150TIP3    H169865   5.294   5.534   0.663  0.5283 -0.3018 -0.0858
16150TIP3    H269866   5.305   5.472   0.801  0.3980 -3.1668 -1.3353
16151TIP3   OH269867   2.476   4.751  14.583 -0.2975 -0.4367 -0.4235
16151TIP3    H169868   2.515   4.740  14.669  0.7868 -0.5444 -0.9237
16151TIP3    H269869   2.383   4.736  14.597 -0.3074  0.8098  0.9724
16152TIP3   OH269870   2.441   6.679  12.612  0.7160 -1.0199  0.5192
16152TIP3    H169871   2.407   6.764  12.583  0.8751 -1.2954 -0.5192
16152TIP3    H269872   2.511   6.701  12.673  0.0580 -0.4213  1.0637
16153TIP3   OH269873   3.813   0.209  13.846 -0.0675 -0.1143  0.0963
16153TIP3    H169874   3.718   0.219  13.843 -0.0258  0.6517  0.8180
16153TIP3    H269875   3.843   0.287  13.893  0.9771  0.0185 -0.7661
16154TIP3   OH269876   3.916   2.829  15.484  0.7680 -0.8306  0.2715
16154TIP3    H169877   3.897   2.841  15.391 -0.3067 -0.1320  0.5779
16154TIP3    H269878   4.007   2.798  15.486  1.7792  1.9652 -0.8289
16155TIP3   OH269879   3.854   5.985   5.898 -0.4971 -0.0369 -0.2782
16155TIP3    H169880   3.871   6.065   5.947 -0.0588  0.1010 -0.6583
16155TIP3    H269881   3.865   5.915   5.962 -0.0166  0.1484 -0.1607
16156TIP3   OH269882   5.407   5.550  11.399 -0.2728 -0.1717  0.1466
16156TIP3    H169883   5.471   5.489  11.437 -0.4882 -0.5971 -0.1726
16156TIP3    H269884   5.408   5.625  11.458  2.0613  0.7325 -0.9960
16157TIP3   OH269885   1.621   4.589  10.560  0.4442  0.0925 -0.5377
16157TIP3    H169886   1.664   4.636  10.489 -1.3446  3.2250  0.3538
16157TIP3    H269887   1.677   4.604  10.636  1.3803 -1.7025 -0.8426
16158TIP3   OH269888   3.889   4.821  12.149 -0.0419  0.0975 -0.0224
16158TIP3    H169889   3.957   4.754  12.137  0.1803  0.1569  0.8869
16158TIP3    H269890   3.915   4.892  12.089  1.6785  0.8673  1.5590
16159TIP3   OH269891   4.528   2.958   4.138 -0.2716 -0.4434  0.0784
16159TIP3    H169892   4.561   2.930   4.053  0.0490 -1.9755  0.6781
16159TIP3    H269893   4.600   2.939   4.199  0.8711  3.8914  0.2355
16160TIP3   OH269894   1.445   5.917  14.382 -0.1341 -0.7787 -0.3453
16160TIP3    H169895   1.423   5.929  14.290 -0.6625 -0.4692 -0.1820
16160TIP3    H269896   1.384   5.850  14.413 -1.9392  1.1914  0.5008
16161TIP3   OH269897   6.697   4.633  16.859  0.2667 -0.6121  0.4084
16161TIP3    H169898   6.747   4.562  16.897  0.5593 -0.7910 -0.2944
16161TIP3    H269899   6.616   4.636  16.909  0.9059 -0.4383  1.4340
16162TIP3   OH269900   2.648   2.294  15.437  0.2694 -0.3335  0.3241
16162TIP3    H169901   2.625   2.321  15.526 -0.9385 -1.2297  0.2973
16162TIP3    H269902   2.744   2.290  15.437  0.4284  2.2695  0.8026
16163TIP3   OH269903   0.598   0.454   5.460  0.1904  0.2260  0.3534
16163TIP3    H169904   0.641   0.399   5.525 -0.4919  0.3163  0.8914
16163TIP3    H269905   0.623   0.417   5.375  1.0454  0.0791  0.6715
16164TIP3   OH269906   5.544   4.579  13.662  0.0481 -0.1248 -0.0964
16164TIP3    H169907   5.575   4.636  13.733 -0.6369  0.4999 -0.2886
16164TIP3    H269908   5.530   4.638  13.588  0.2207 -0.6906 -0.5859
16165TIP3   OH269909   2.345   2.114   3.817 -0.4190  0.3272  0.1107
16165TIP3    H169910   2.342   2.131   3.911  0.1657  0.6339  0.0795
16165TIP3    H269911   2.359   2.200   3.777  2.1175 -0.1105 -0.0739
16166TIP3   OH269912   2.211   1.406   3.064  0.8250  0.3317  0.1864
16166TIP3    H169913   2.130   1.418   3.115  0.0637  1.2014 -1.1976
16166TIP3    H269914   2.278   1.451   3.115 -0.1033  1.9707  0.0198
16167TIP3   OH269915   2.854   4.919  14.811  0.2293 -0.6755  0.0335
16167TIP3    H169916   2.935   4.868  14.804  0.0324 -1.3004  1.9995
16167TIP3    H269917   2.870   4.981  14.882 -0.6590 -0.1112 -0.2450
16168TIP3   OH269918   2.683   0.720   6.845 -0.5973  0.0891  0.0164
16168TIP3    H169919   2.627   0.788   6.884  0.7837  0.8485  0.7102
16168TIP3    H269920   2.753   0.708   6.909  0.3048 -0.5114 -1.0830
16169TIP3   OH269921   4.532   2.128  12.278 -0.1692  0.0890  0.2247
16169TIP3    H169922   4.467   2.192  12.249 -1.1472 -0.5222  1.0494
16169TIP3    H269923   4.518   2.052  12.223 -0.4590 -0.2092  0.7080
16170TIP3   OH269924   0.734   5.102  11.044 -0.1133 -0.0235  0.2818
16170TIP3    H169925   0.771   5.114  10.957  0.5951  0.5727  0.6517
16170TIP3    H269926   0.727   5.007  11.054 -1.6359 -0.0649 -0.9952
16171TIP3   OH269927   5.088   4.943  13.533 -0.3966 -1.1337  0.2150
16171TIP3    H169928   5.126   4.998  13.602 -2.8263 -0.4903  1.1072
16171TIP3    H269929   5.129   4.975  13.452 -0.0915  0.4609  0.9735
16172TIP3   OH269930   5.572   3.166   1.466 -0.4224  0.0736  0.2474
16172TIP3    H169931   5.630   3.144   1.393 -0.6962  0.9093 -0.2282
16172TIP3    H269932   5.491   3.118   1.447  0.2062 -1.3552  1.0814
16173TIP3   OH269933   6.173   5.924  16.112 -0.3087  0.6479 -0.5153
16173TIP3    H169934   6.101   5.965  16.064 -1.2605  1.0592  1.1781
16173TIP3    H269935   6.151   5.940  16.204  2.0945  1.0039  0.0234
16174TIP3   OH269936   4.094   4.756   2.847  0.5522 -0.4867  0.4071
16174TIP3    H169937   4.165   4.720   2.901  1.1901  0.0249 -0.0785
16174TIP3    H269938   4.102   4.710   2.764 -0.0779 -0.8709  0.5597
16175TIP3   OH269939   4.539   0.362   1.109 -0.0535  0.5748 -0.0191
16175TIP3    H169940   4.476   0.368   1.037  2.6666  0.8854 -2.4416
16175TIP3    H269941   4.544   0.452   1.143  0.0962  0.8393 -0.7258
16176TIP3   OH269942   0.584   1.632   1.457  0.1648 -0.0113  0.0653
16176TIP3    H169943   0.562   1.603   1.546 -1.9480  0.7127 -0.1736
16176TIP3    H269944   0.641   1.564   1.422  2.3432  0.4619  2.5241
16177TIP3   OH269945   0.940   0.943  14.451 -0.5692 -0.1586 -0.0552
16177TIP3    H169946   0.950   1.038  14.443  0.2046 -0.2520 -0.2458
16177TIP3    H269947   0.933   0.911  14.361  1.4399 -0.5062 -0.1224
16178TIP3   OH269948   1.456   2.143   0.365 -0.0501  0.1065 -0.6435
16178TIP3    H169949   1.414   2.170   0.447 -0.5138 -0.9335 -0.5297
16178TIP3    H269950   1.458   2.222   0.312  0.1612  0.7676  0.3320
16179TIP3   OH269951   4.770   3.584  11.938 -0.4644  0.3145 -0.2160
16179TIP3    H169952   4.789   3.537  12.020 -0.0112 -0.0303 -0.5194
16179TIP3    H269953   4.852   3.628  11.917  0.3763 -2.0720 -2.1304
16180TIP3   OH269954   1.295   5.702  11.700 -0.7549  0.0750 -0.3566
16180TIP3    H169955   1.313   5.710  11.607 -0.4002  0.7889 -0.2244
16180TIP3    H269956   1.300   5.791  11.734  1.1540 -0.4101  0.7238
16181TIP3   OH269957   6.573   1.131  13.056 -0.0189  0.0167  0.1100
16181TIP3    H169958   6.526   1.058  13.096 -0.3884  0.0816 -0.1974
16181TIP3    H269959   6.634   1.161  13.123 -0.4930 -0.0032  0.5497
16182TIP3   OH269960   5.047   1.973  17.063 -0.2715  0.2056 -0.2676
16182TIP3    H169961   4.977   1.912  17.088 -1.7024  1.0078 -2.2132
16182TIP3    H269962   5.059   1.960  16.969 -0.1480  2.4406 -0.5940
16183TIP3   OH269963   4.253   6.079  11.172  0.0412  0.1779 -0.1792
16183TIP3    H169964   4.282   5.988  11.166 -0.1795  0.1564 -1.0539
16183TIP3    H269965   4.319   6.123  11.225  0.6212 -0.3005 -0.5072
16184TIP3   OH269966   0.545   6.784   0.901  0.1497  0.5669 -0.5237
16184TIP3    H169967   0.541   6.689   0.887 -1.0981  0.8113 -1.8891
16184TIP3    H269968   0.578   6.793   0.990  1.5957 -1.1337 -0.8510
16185TIP3   OH269969   4.060   2.614   3.785 -1.3922 -0.0372  0.0935
16185TIP3    H169970   4.137   2.558   3.783 -0.2867  1.4485  0.2989
16185TIP3    H269971   4.083   2.685   3.845 -2.8538  0.5006  0.0339
16186TIP3   OH269972   4.334   4.474   1.524  0.7901 -0.2261 -0.3220
16186TIP3    H169973   4.352   4.561   1.491  1.5441 -1.0074 -2.0237
16186TIP3    H269974   4.419   4.442   1.555  0.4549 -0.2321  0.6067
16187TIP3   OH269975   1.786   5.727   4.128 -0.5829 -0.3248 -0.2275
16187TIP3    H169976   1.850   5.790   4.161 -1.1743  0.4326 -0.5314
16187TIP3    H269977   1.712   5.780   4.100 -2.4092 -1.3237  2.4512
16188TIP3   OH269978   6.385   4.897   3.579  0.8032  0.5922 -0.2688
16188TIP3    H169979   6.436   4.978   3.574  0.9526  0.4154 -1.7795
16188TIP3    H269980   6.432   4.836   3.522  0.4266 -0.4127  0.4859
16189TIP3   OH269981   0.317   2.034   4.867 -0.0458  0.6853 -0.6163
16189TIP3    H169982   0.394   2.087   4.849 -1.1691  2.2686 -0.9275
16189TIP3    H269983   0.286   2.065   4.953  0.8698 -1.4291  0.5169
16190TIP3   OH269984   4.032   2.072   1.524  0.2486  0.2361 -0.1799
16190TIP3    H169985   3.952   2.027   1.552  0.8795 -1.8115 -1.5754
16190TIP3    H269986   4.071   2.104   1.605 -1.6704  0.7140  0.5686
16191TIP3   OH269987   6.734   4.399  11.585 -0.4401 -0.0449  0.6593
16191TIP3    H169988   6.744   4.407  11.679  0.8159  0.5564  0.4969
16191TIP3    H269989   6.769   4.312  11.564  0.2576  0.2396  0.6304
16192TIP3   OH269990   6.731   6.588   1.107 -0.4423 -0.3609  0.3824
16192TIP3    H169991   6.806   6.590   1.047 -0.4923 -0.4255  0.3187
16192TIP3    H269992   6.655   6.581   1.050 -0.4836 -0.5212  0.4588
16193TIP3   OH269993   6.610   5.626  11.853  0.1886 -0.0056  0.5768
16193TIP3    H169994   6.541   5.648  11.790  0.3204 -1.3987 -0.0647
16193TIP3    H269995   6.602   5.532  11.866  1.6110 -0.0937  0.9180
16194TIP3   OH269996   5.174   4.032   1.682  0.4243 -0.0997  0.3820
16194TIP3    H169997   5.141   4.084   1.755 -0.7362  0.1600 -0.3093
16194TIP3    H269998   5.120   3.953   1.682 -1.4208  1.0878 -1.8080
16195TIP3   OH269999   3.122   1.915  15.821 -0.4500  0.0800  0.2156
16195TIP3    H170000   3.039   1.943  15.861 -0.2120 -0.4174  1.0719
16195TIP3    H270001   3.117   1.946  15.731 -0.9125  1.4305  0.6864
16196TIP3   OH270002   2.879   5.682  13.200 -0.4348 -0.3808  0.2608
16196TIP3    H170003   2.911   5.688  13.290 -0.5416 -0.0716  0.2789
16196TIP3    H270004   2.928   5.748  13.152 -0.6758 -0.2576  0.1811
16197TIP3   OH270005   4.635   3.873  12.915 -0.7311 -0.1472 -0.2096
16197TIP3    H170006   4.581   3.825  12.853 -0.6193  0.1438 -0.5336
16197TIP3    H270007   4.712   3.818  12.928 -1.8847 -1.4166  1.6085
16198TIP3   OH270008   2.095   4.643   0.300 -0.3675 -1.0617 -0.5620
16198TIP3    H170009   2.122   4.604   0.216  2.7647  2.3152 -1.2183
16198TIP3    H270010   2.040   4.717   0.275 -1.3585 -1.4370  0.4853
16199TIP3   OH270011   1.800   1.384   4.383  0.4696 -0.1060 -0.1183
16199TIP3    H170012   1.712   1.347   4.377  1.3447 -2.2764  0.0863
16199TIP3    H270013   1.832   1.385   4.293  0.7216 -0.5309 -0.0340
16200TIP3   OH270014   2.414   5.174   2.011  0.1696 -0.2426  0.7688
16200TIP3    H170015   2.492   5.137   2.053  1.6339  0.6441 -1.0844
16200TIP3    H270016   2.368   5.219   2.082  0.6319 -1.9129  2.1556
16201TIP3   OH270017   2.639   4.751  14.803  0.3089 -0.1621  0.3836
16201TIP3    H170018   2.698   4.682  14.835  0.6737 -0.7815 -1.5713
16201TIP3    H270019   2.692   4.831  14.808  0.8228 -0.4775  0.0182
16202TIP3   OH270020   4.706   5.035  14.033  0.3930 -0.3296  0.0177
16202TIP3    H170021   4.676   4.978  13.962  0.7828 -1.4095  0.7034
16202TIP3    H270022   4.698   5.124  13.998 -2.3144 -0.6445 -0.3119
16203TIP3   OH270023   5.597   5.706  16.158 -0.5739 -0.5212 -0.6945
16203TIP3    H170024   5.616   5.680  16.248  1.6703 -0.2841 -1.0632
16203TIP3    H270025   5.617   5.799  16.154  0.9573 -0.8736 -1.8262
16204TIP3   OH270026   5.363   1.669  13.894 -0.3452 -0.3310 -0.0827
16204TIP3    H170027   5.440   1.673  13.836 -2.7882 -1.8499 -3.5959
16204TIP3    H270028   5.398   1.637  13.977  2.9732 -0.0498 -1.2613
16205TIP3   OH270029   6.113   0.494   3.169 -0.6494  0.2594  0.3819
16205TIP3    H170030   6.079   0.561   3.229  0.5513  1.1518  0.1014
16205TIP3    H270031   6.191   0.461   3.213 -0.2311  0.3265 -0.3070
16206TIP3   OH270032   5.977   1.419  10.833 -0.3515 -0.1723 -0.5496
16206TIP3    H170033   5.909   1.361  10.799  0.3277 -1.3774  0.1479
16206TIP3    H270034   5.993   1.389  10.922  0.7947  0.3759 -0.5612
16207TIP3   OH270035   6.352   0.446   1.433  0.0309  0.0638  0.1642
16207TIP3    H170036   6.433   0.413   1.393 -0.5074 -2.2780  0.9714
16207TIP3    H270037   6.365   0.435   1.527 -0.5123  1.4159  0.4138
16208TIP3   OH270038   4.699   1.805  13.458  0.2974 -0.0046  0.1062
16208TIP3    H170039   4.794   1.804  13.450  0.4038  1.1912  1.0148
16208TIP3    H270040   4.668   1.835  13.372  0.8449  1.4990  0.4113
16209TIP3   OH270041   1.270   0.064  13.658 -0.9606 -0.1070  0.3091
16209TIP3    H170042   1.276   0.137  13.720  0.4796 -0.4800  0.6434
16209TIP3    H270043   1.177   0.053  13.642 -1.2598  0.9982  1.2246
16210TIP3   OH270044   4.049   0.829  16.340  0.9491 -0.5451  0.2661
16210TIP3    H170045   3.996   0.851  16.417 -0.0354  0.0913 -0.5751
16210TIP3    H270046   4.117   0.896  16.337 -0.1521  0.5786 -0.4835
16211TIP3   OH270047   0.400   3.698  12.451 -0.1584  0.2790 -0.2453
16211TIP3    H170048   0.376   3.653  12.532  2.5950  2.9882  2.1861
16211TIP3    H270049   0.492   3.675  12.437 -0.1617  1.1261 -1.7416
16212TIP3   OH270050   5.757   1.016   5.358  0.2060 -0.5871 -0.1153
16212TIP3    H170051   5.756   0.985   5.448  1.3127 -0.8927 -0.2049
16212TIP3    H270052   5.737   1.110   5.365 -0.2694 -0.7222  0.3868
16213TIP3   OH270053   1.042   1.006  10.388  0.4231 -0.6773 -0.5206
16213TIP3    H170054   1.061   0.913  10.401 -0.0212 -0.7215 -0.1803
16213TIP3    H270055   1.128   1.047  10.379  0.7856 -0.6416  2.6144
16214TIP3   OH270056   3.925   0.188  15.602  0.2549 -0.0990  0.5187
16214TIP3    H170057   3.979   0.132  15.658 -1.4012 -2.5175 -0.2102
16214TIP3    H270058   3.959   0.173  15.514  1.1533  1.6907  0.5368
16215TIP3   OH270059   4.248   3.629   2.410  0.2629 -0.0330 -0.0009
16215TIP3    H170060   4.271   3.560   2.472 -1.6581 -0.4832  0.2338
16215TIP3    H270061   4.306   3.702   2.432  0.3744 -0.5856  1.5888
16216TIP3   OH270062   5.923   2.693  12.387 -0.1905 -0.0941  0.5829
16216TIP3    H170063   6.006   2.672  12.429 -0.5774 -2.3730  0.2434
16216TIP3    H270064   5.864   2.622  12.411 -0.9179 -0.5547 -2.3532
16217TIP3   OH270065   6.274   2.366  13.344 -0.0510 -0.2850  0.2112
16217TIP3    H170066   6.184   2.334  13.352 -0.1591 -0.1211 -0.3287
16217TIP3    H270067   6.288   2.418  13.423 -0.8463  0.6959 -0.2800
16218TIP3   OH270068   4.391   0.005   0.005 -0.0007  0.0626 -0.3656
16218TIP3    H170069   4.419   0.026  -0.084 -0.4011  0.2398 -0.4511
16218TIP3    H270070   4.454  -0.060   0.036  0.5139  0.4784 -0.5453
16219TIP3   OH270071   5.563   3.287  10.810  0.6943 -0.6885 -0.5051
16219TIP3    H170072   5.610   3.291  10.727 -0.5811  1.5341 -1.1412
16219TIP3    H270073   5.474   3.260  10.786  0.3676 -0.2108  0.1514
16220TIP3   OH270074   3.373   1.232   4.152 -0.2927  0.5599  0.1042
16220TIP3    H170075   3.439   1.170   4.183 -0.0716  0.9334  0.3885
16220TIP3    H270076   3.292   1.181   4.149 -0.3892  0.6048  1.6444
16221TIP3   OH270077   3.895   1.039   2.072 -0.1456 -0.5614  0.0440
16221TIP3    H170078   3.855   1.116   2.030 -0.8821 -0.9956 -0.0571
16221TIP3    H270079   3.932   1.073   2.153  1.4700  0.3383 -1.0275
16222TIP3   OH270080   2.850   4.329   3.874  0.4424 -0.1182 -0.0171
16222TIP3    H170081   2.928   4.322   3.819  0.5345  0.3154  0.0499
16222TIP3    H270082   2.818   4.240   3.883 -0.5632 -0.0097 -2.2013
16223TIP3   OH270083   5.179   4.443  15.099 -0.4463  0.0579 -0.3912
16223TIP3    H170084   5.218   4.404  15.020 -1.1532  0.1056 -0.7737
16223TIP3    H270085   5.233   4.519  15.118 -0.8682  0.6372 -1.4412
16224TIP3   OH270086   3.971   6.073  11.336 -0.1147  0.7207  0.0454
16224TIP3    H170087   3.880   6.066  11.307 -0.4278  1.0972  0.9325
16224TIP3    H270088   3.978   6.011  11.408  0.3763  0.5917 -0.1073
16225TIP3   OH270089   4.975   3.566   0.243 -0.0641  0.4794 -0.3682
16225TIP3    H170090   4.956   3.577   0.336 -1.1111 -1.3025 -0.3523
16225TIP3    H270091   4.923   3.634   0.200  1.4409  2.1773  0.4109
16226TIP3   OH270092   2.912   0.908  14.079 -0.0834 -0.4743 -0.1030
16226TIP3    H170093   3.000   0.888  14.111  0.1094  0.3804 -0.0815
16226TIP3    H270094   2.856   0.846  14.125  0.4846 -0.8750  0.0581
16227TIP3   OH270095   0.562   5.671   5.900 -0.0627  0.1739  0.1612
16227TIP3    H170096   0.558   5.685   5.806 -0.5676 -0.6556  0.0532
16227TIP3    H270097   0.581   5.757   5.937  1.9202  0.1691 -0.8146
16228TIP3   OH270098   1.403   5.890   1.167 -0.2095  0.3820  0.1219
16228TIP3    H170099   1.408   5.969   1.113  0.5978 -0.9350 -1.8295
16228TIP3    H270100   1.343   5.833   1.119  0.4502 -0.7830  0.6733
16229TIP3   OH270101   4.319   1.755   1.434 -0.0084 -0.2671  0.1177
16229TIP3    H170102   4.282   1.678   1.477  0.7226 -0.9309 -0.4291
16229TIP3    H270103   4.341   1.814   1.506 -0.6864 -0.5142  0.5322
16230TIP3   OH270104   6.130   2.545   0.725 -0.2865 -0.2077  0.1284
16230TIP3    H170105   6.065   2.507   0.784 -0.9250 -0.1965 -0.5586
16230TIP3    H270106   6.179   2.469   0.692  0.4710 -0.1588  1.1408
16231TIP3   OH270107   1.351   2.722   1.840  0.1556  0.3904 -0.1729
16231TIP3    H170108   1.358   2.704   1.746 -0.1617  1.6200 -0.4372
16231TIP3    H270109   1.420   2.787   1.857 -0.9840  1.5411  0.0843
16232TIP3   OH270110   3.203   4.236  15.803  0.2453 -0.0030 -0.4412
16232TIP3    H170111   3.198   4.190  15.887  1.7290 -0.6294 -0.6978
16232TIP3    H270112   3.163   4.177  15.740  1.0931 -0.4577 -0.5586
16233TIP3   OH270113   4.957   5.629  14.689 -0.6590 -0.1850 -0.2434
16233TIP3    H170114   4.990   5.574  14.760 -4.6203 -2.0682  0.3081
16233TIP3    H270115   5.003   5.599  14.611  2.1977  0.4523  1.1537
16234TIP3   OH270116   2.939   3.921   5.984 -0.5314 -0.3701  0.7899
16234TIP3    H170117   2.969   3.875   6.062  2.0247  1.9877  1.2847
16234TIP3    H270118   2.903   4.004   6.017 -0.4998  0.1419 -0.4251
16235TIP3   OH270119   2.518   5.530  13.909  0.2210  0.4134 -0.2250
16235TIP3    H170120   2.477   5.598  13.963 -0.4666 -0.2546  0.0949
16235TIP3    H270121   2.468   5.531  13.828 -0.0552 -0.0116 -0.0557
16236TIP3   OH270122   6.119   0.003  16.595  0.2147  0.0509  0.3779
16236TIP3    H170123   6.052   0.051  16.545  0.0706  0.0901  0.6097
16236TIP3    H270124   6.191   0.066  16.605 -0.2336  0.4313  1.2326
16237TIP3   OH270125   6.442   4.838   3.216  0.1769  0.1081 -0.2575
16237TIP3    H170126   6.360   4.877   3.248  0.7485 -0.2776  1.7504
16237TIP3    H270127   6.485   4.805   3.295  2.6569  1.0235 -1.1922
16238TIP3   OH270128   4.856   5.859  16.377 -0.1919  0.0402  0.2688
16238TIP3    H170129   4.858   5.904  16.292 -2.0028 -0.0342  0.1755
16238TIP3    H270130   4.817   5.774  16.358 -1.4482  0.3642  1.3287
16239TIP3   OH270131   3.216   1.836  14.733  0.7151 -0.0762 -0.2329
16239TIP3    H170132   3.127   1.809  14.710  0.3406 -0.2447  1.3373
16239TIP3    H270133   3.234   1.912  14.677 -1.2383  1.2922  0.9360
16240TIP3   OH270134   5.599   2.902  11.811  0.6124 -0.9671  0.0507
16240TIP3    H170135   5.515   2.925  11.850 -0.2977 -0.0824 -2.3740
16240TIP3    H270136   5.584   2.816  11.771  0.7005 -0.5539 -0.8693
16241TIP3   OH270137   4.333   1.043   2.498  0.2736 -0.5467  0.6835
16241TIP3    H170138   4.374   1.047   2.411  0.3446  1.4817  0.7795
16241TIP3    H270139   4.399   1.000   2.553  0.1388 -2.0560 -0.3006
16242TIP3   OH270140   3.223   6.443   1.480 -0.1732  0.0052 -0.0417
16242TIP3    H170141   3.318   6.445   1.465 -0.1697  2.1848  0.1044
16242TIP3    H270142   3.187   6.399   1.402  0.8882 -0.1698 -0.4410
16243TIP3   OH270143   2.554   5.832   0.550  0.0651 -0.2392 -0.0090
16243TIP3    H170144   2.467   5.872   0.556  0.4442  0.7375 -0.9027
16243TIP3    H270145   2.551   5.779   0.470  0.7469  0.9434 -0.8296
16244TIP3   OH270146   5.250   5.939   0.681  0.1057 -0.4010 -0.0816
16244TIP3    H170147   5.281   6.021   0.719  0.3521 -0.5807  0.1005
16244TIP3    H270148   5.311   5.872   0.711  0.5633 -0.4800 -1.1550
16245TIP3   OH270149   2.285   3.174  11.888  0.5383  0.1675 -0.4689
16245TIP3    H170150   2.236   3.175  11.970  1.3898  2.1025  0.0335
16245TIP3    H270151   2.225   3.213  11.824 -1.6215 -4.8354 -1.7188
16246TIP3   OH270152   1.581   0.249  16.115 -0.0900 -0.3619  0.2695
16246TIP3    H170153   1.664   0.204  16.096 -0.5798 -0.8006 -0.8842
16246TIP3    H270154   1.517   0.205  16.060 -1.3743 -0.9172  2.1413
16247TIP3   OH270155   2.184   4.239   5.004 -0.1345 -0.4845  0.2959
16247TIP3    H170156   2.110   4.289   5.037  0.0051 -0.4494  0.5598
16247TIP3    H270157   2.235   4.302   4.953 -0.9798 -0.8190 -0.9951
16248TIP3   OH270158   3.871   0.284   5.229 -1.1581 -0.0512  0.2146
16248TIP3    H170159   3.950   0.336   5.212 -0.6495 -0.0765  2.4024
16248TIP3    H270160   3.888   0.200   5.187 -1.0307  0.7489 -1.3846
16249TIP3   OH270161   2.509   0.120   4.508 -0.0114  0.0606 -0.3209
16249TIP3    H170162   2.458   0.122   4.427 -0.7187  0.5877  0.1309
16249TIP3    H270163   2.575   0.052   4.493  0.4426  0.7702 -1.6886
16250TIP3   OH270164   0.855   1.572   3.037  0.2459 -0.1177  0.4387
16250TIP3    H170165   0.890   1.534   3.117 -0.4753 -3.6955 -0.8498
16250TIP3    H270166   0.763   1.588   3.055  0.3208  0.0331  0.6769
16251TIP3   OH270167   4.783   2.772  13.602  0.6731 -0.3151  0.6118
16251TIP3    H170168   4.775   2.777  13.697 -2.4704 -0.1060  0.3831
16251TIP3    H270169   4.869   2.809  13.583 -0.2672  3.3451  3.0779
16252TIP3   OH270170   3.331   6.321   2.222 -0.2838 -0.6400 -0.3500
16252TIP3    H170171   3.396   6.356   2.282  1.2037 -0.0643 -2.2408
16252TIP3    H270172   3.288   6.251   2.271 -1.1457  1.7115  2.3714
16253TIP3   OH270173   0.771   3.512   5.315  0.1377 -0.0594 -0.2461
16253TIP3    H170174   0.819   3.505   5.397 -1.7252 -0.9442  0.7978
16253TIP3    H270175   0.721   3.431   5.310 -3.6089  2.1003  0.2432
16254TIP3   OH270176   1.606   5.873   3.277  0.4209 -0.1345  0.3005
16254TIP3    H170177   1.538   5.940   3.282  1.2377  0.5968  2.3854
16254TIP3    H270178   1.683   5.919   3.244  0.7474 -0.2399  0.9114
16255TIP3   OH270179   5.636   3.268   4.784 -0.2919 -0.5034 -0.4764
16255TIP3    H170180   5.573   3.272   4.857  1.4824  1.0043  1.0261
16255TIP3    H270181   5.599   3.325   4.717  0.3651  1.8845  1.1481
16256TIP3   OH270182   0.380   0.512   0.177 -0.2726 -0.0041 -0.7920
16256TIP3    H170183   0.456   0.532   0.123  0.0377 -2.3803 -1.2950
16256TIP3    H270184   0.329   0.451   0.124 -1.1369 -0.5695  0.6776
16257TIP3   OH270185   2.190   3.446  12.595  0.1807  0.1275  0.0562
16257TIP3    H170186   2.168   3.364  12.639  0.8312 -0.1008 -0.0402
16257TIP3    H270187   2.156   3.515  12.652  0.4577 -0.1855  0.5992
16258TIP3   OH270188   6.496   3.386  11.473 -0.2072 -0.0996 -0.0055
16258TIP3    H170189   6.470   3.467  11.518  0.6266 -0.1104  0.4971
16258TIP3    H270190   6.544   3.416  11.396 -0.7300 -0.1000 -0.3317
16259TIP3   OH270191   4.274   0.326   0.435 -0.1947 -0.3036  0.6002
16259TIP3    H170192   4.194   0.295   0.393 -0.9469  0.9075  1.1366
16259TIP3    H270193   4.338   0.330   0.363 -0.6738 -1.0306  0.1273
16260TIP3   OH270194   6.283   5.666  15.270  0.1594 -0.0044 -0.5066
16260TIP3    H170195   6.294   5.614  15.349  0.8315  0.5428 -0.2339
16260TIP3    H270196   6.190   5.659  15.249 -0.5376  1.9928  1.8216
16261TIP3   OH270197   0.895   4.676   2.522  0.4529 -0.1180  0.5256
16261TIP3    H170198   0.929   4.760   2.552 -0.2456  0.3491  0.0187
16261TIP3    H270199   0.883   4.625   2.602 -2.1925  1.4087  1.1529
16262TIP3   OH270200   2.619   6.641   5.281  0.3374  0.1007  0.4050
16262TIP3    H170201   2.572   6.618   5.361  0.2903 -0.3911  0.2351
16262TIP3    H270202   2.666   6.721   5.303 -0.5997  0.6058  0.5691
16263TIP3   OH270203   5.168   2.669   2.225 -0.1855 -0.1608 -0.7088
16263TIP3    H170204   5.077   2.694   2.240  0.1972 -0.0621  1.8090
16263TIP3    H270205   5.218   2.730   2.280  1.2261 -1.7980 -0.1469
16264TIP3   OH270206   5.127   5.965   4.960 -0.3134  0.3090  0.2915
16264TIP3    H170207   5.049   5.911   4.944 -0.4642  0.5781  0.1237
16264TIP3    H270208   5.098   6.030   5.024 -0.3991  0.8159 -0.2717
16265TIP3   OH270209   1.017   1.931   0.199 -0.1947  0.4045 -0.0539
16265TIP3    H170210   1.111   1.947   0.207 -0.2162  1.2166 -1.2894
16265TIP3    H270211   1.004   1.845   0.239  1.0193  0.4300  0.4254
16266TIP3   OH270212   2.357   0.165  16.292 -0.1657 -0.5005 -0.0604
16266TIP3    H170213   2.395   0.153  16.205 -0.5163  0.6458 -0.3765
16266TIP3    H270214   2.432   0.166  16.351  0.4147  2.8496 -0.7963
16267TIP3   OH270215   6.195   0.051  11.895 -0.3093 -0.7527  0.4014
16267TIP3    H170216   6.197   0.010  11.981  2.0862 -0.3136  0.5835
16267TIP3    H270217   6.194  -0.023  11.834  0.9487 -1.1093  0.7846
16268TIP3   OH270218   3.681   6.184  12.504  0.2751 -0.0066 -0.4652
16268TIP3    H170219   3.723   6.147  12.582 -1.6990 -0.3436  0.4529
16268TIP3    H270220   3.624   6.114  12.473  0.6660  0.3110 -1.9485
16269TIP3   OH270221   3.344   0.454   2.730  0.3603  0.0277  0.1575
16269TIP3    H170222   3.360   0.376   2.782  0.2232 -1.0376 -1.3772
16269TIP3    H270223   3.348   0.526   2.793  0.1911 -1.2310  1.6332
16270TIP3   OH270224   2.185   1.397   4.137 -0.0470 -0.4995 -0.2963
16270TIP3    H170225   2.198   1.362   4.225 -0.3474  2.4997  0.9850
16270TIP3    H270226   2.128   1.332   4.094  0.1678 -2.0359  1.6619
16271TIP3   OH270227   2.528   0.368   4.684  0.3340 -0.3412 -0.0074
16271TIP3    H170228   2.474   0.441   4.651 -1.5553 -1.8900 -0.4607
16271TIP3    H270229   2.521   0.301   4.616  1.0857 -1.3935  0.9489
16272TIP3   OH270230   6.157   2.564  12.193  0.5333 -0.1993 -0.4885
16272TIP3    H170231   6.091   2.625  12.227  0.6791 -0.9161  1.1224
16272TIP3    H270232   6.191   2.607  12.114  0.6869  1.8229  0.6513
16273TIP3   OH270233   4.904   3.723  17.154 -0.5912 -0.5840 -0.6986
16273TIP3    H170234   4.854   3.754  17.230  0.7220 -2.3518  0.9486
16273TIP3    H270235   4.906   3.628  17.165  2.6805 -0.5843 -1.0239
16274TIP3   OH270236   3.774   3.135   5.308  0.2348 -1.0020 -0.3338
16274TIP3    H170237   3.807   3.049   5.336  0.3787 -0.9604 -0.3724
16274TIP3    H270238   3.802   3.195   5.378  0.7798 -0.8613 -0.6694
16275TIP3   OH270239   4.906   5.863   2.391  0.2180  0.8182  0.1133
16275TIP3    H170240   4.981   5.851   2.449  0.3589 -0.3962 -0.2964
16275TIP3    H270241   4.848   5.790   2.412 -0.2195  0.9826 -0.5145
16276TIP3   OH270242   2.166   2.969  14.864 -0.6257  0.1695 -0.6326
16276TIP3    H170243   2.113   2.889  14.873  0.7814 -0.7492 -0.3098
16276TIP3    H270244   2.180   2.999  14.953  1.9512 -1.3410 -0.4621
16277TIP3   OH270245   5.958   6.194   0.437  0.8673  0.1240  0.1186
16277TIP3    H170246   6.008   6.139   0.496 -0.4982  0.0254  1.2004
16277TIP3    H270247   5.952   6.278   0.482  1.9517  0.8243 -1.0066
16278TIP3   OH270248   5.406   1.865   1.933  0.3854 -0.5632 -0.6152
16278TIP3    H170249   5.406   1.905   2.020  1.5774 -1.1820 -0.3146
16278TIP3    H270250   5.337   1.911   1.885  1.0041  1.1161  0.0687
16279TIP3   OH270251   5.859   4.716  15.897 -0.2419  0.1125  0.2857
16279TIP3    H170252   5.766   4.735  15.881 -0.9966 -2.2764  1.6035
16279TIP3    H270253   5.858   4.642  15.957  2.5443  0.9066  1.3754
16280TIP3   OH270254   4.178   6.118   3.299  0.0932 -0.1656 -0.4421
16280TIP3    H170255   4.134   6.033   3.298 -0.5000  0.1271  0.4182
16280TIP3    H270256   4.155   6.158   3.216 -0.4217 -0.4409 -0.4339
16281TIP3   OH270257   2.886   1.568  14.220  0.1388  0.0888 -0.8434
16281TIP3    H170258   2.912   1.482  14.187  1.6230 -0.0761  0.7066
16281TIP3    H270259   2.829   1.550  14.294  0.4761  0.4335 -0.4942
16282TIP3   OH270260   3.732   2.856  11.669 -0.2404 -0.3526 -0.2429
16282TIP3    H170261   3.678   2.876  11.592  1.8155  0.4048 -1.5252
16282TIP3    H270262   3.749   2.762  11.663 -1.2653 -0.5641  0.0822
16283TIP3   OH270263   4.908   4.091   6.271  0.1933  0.1251  0.0111
16283TIP3    H170264   4.961   4.102   6.192 -0.3775 -1.2245 -0.5830
16283TIP3    H270265   4.849   4.167   6.271 -0.4261 -0.3412 -1.3665
16284TIP3   OH270266   6.228   5.055   1.655 -0.0366 -0.0720  0.0263
16284TIP3    H170267   6.199   5.082   1.742 -1.0373 -1.1787  0.0462
16284TIP3    H270268   6.151   5.013   1.616  1.4247 -2.7954 -0.0371
16285TIP3   OH270269   5.172   5.129  14.657  0.0639  0.1899 -0.1598
16285TIP3    H170270   5.256   5.084  14.663 -1.3585 -2.9075 -2.2590
16285TIP3    H270271   5.125   5.104  14.737  0.3101  0.1676 -0.0227
16286TIP3   OH270272   1.588   5.202  11.658  0.1568 -0.7857  0.0784
16286TIP3    H170273   1.557   5.258  11.730  1.1453 -0.1671  0.0407
16286TIP3    H270274   1.534   5.226  11.583 -1.6688 -2.2566  0.8952
16287TIP3   OH270275   4.181   1.990  12.798  0.3362 -0.7427 -0.1137
16287TIP3    H170276   4.145   1.915  12.750 -1.2950  0.5282 -0.9004
16287TIP3    H270277   4.149   1.979  12.887 -0.4761 -0.6006 -0.3872
16288TIP3   OH270278   1.539   4.439  14.923  0.1606 -0.6321  0.4851
16288TIP3    H170279   1.588   4.392  14.856  0.4400 -0.4759  0.5781
16288TIP3    H270280   1.552   4.388  15.003  2.4044  0.8314  1.1193
16289TIP3   OH270281   3.055   2.376   4.696 -0.2314  0.2000  0.3882
16289TIP3    H170282   2.984   2.340   4.750  0.1906 -2.0029 -0.4693
16289TIP3    H270283   3.049   2.471   4.708 -3.1861  0.0300  0.4726
16290TIP3   OH270284   3.128   2.514  15.818 -0.3372  0.0604 -0.4650
16290TIP3    H170285   3.051   2.569  15.825 -0.8276 -0.5379 -1.0806
16290TIP3    H270286   3.124   2.477  15.730  0.8425  0.3097 -0.6342
16291TIP3   OH270287   0.028   3.978  11.253 -0.7415  0.5135 -0.0045
16291TIP3    H170288   0.013   3.883  11.253 -0.7782  0.5179  0.6272
16291TIP3    H270289   0.069   3.996  11.169  0.4483 -0.2470  0.4085
16292TIP3   OH270290   4.939   5.124   5.524 -0.1244  0.1907 -0.5420
16292TIP3    H170291   4.868   5.146   5.584  1.2179  0.8752  0.8402
16292TIP3    H270292   4.952   5.029   5.535  1.0594  0.5356  1.3675
16293TIP3   OH270293   3.418   1.116  12.807 -0.3754 -0.8600  0.5042
16293TIP3    H170294   3.462   1.115  12.722 -0.7867  0.5611  0.2690
16293TIP3    H270295   3.398   1.024  12.824 -0.2963 -1.1594 -0.9460
16294TIP3   OH270296   2.355   2.675  17.225 -0.1156  0.4833  0.0969
16294TIP3    H170297   2.262   2.658  17.206  0.1399 -1.3260  0.3494
16294TIP3    H270298   2.395   2.588  17.228  1.2365  1.1438  1.8322
16295TIP3   OH270299   4.244   3.568   2.122  0.3953  0.7701 -0.4279
16295TIP3    H170300   4.221   3.594   2.211  0.7801 -1.2699  0.3058
16295TIP3    H270301   4.205   3.635   2.066 -0.4368  1.7061  1.2413
16296TIP3   OH270302   0.509   2.276   4.092 -0.3872  0.1200  0.0694
16296TIP3    H170303   0.435   2.326   4.057  0.5325  1.5037  0.0842
16296TIP3    H270304   0.511   2.196   4.039 -0.9385  0.7687 -0.9431
16297TIP3   OH270305   0.522   0.762  17.178 -0.1052  0.0880 -0.0923
16297TIP3    H170306   0.498   0.841  17.225  1.1060 -0.4400  1.4600
16297TIP3    H270307   0.582   0.716  17.237 -0.0849 -1.5413 -1.3402
16298TIP3   OH270308   3.977   0.556  11.450 -0.9379  0.8480  0.1719
16298TIP3    H170309   3.965   0.509  11.533 -2.7692 -0.2706 -0.6941
16298TIP3    H270310   3.947   0.494  11.384  2.3571  0.9674 -1.5262
16299TIP3   OH270311   1.721   5.115  14.872 -0.4920  0.0806  0.0734
16299TIP3    H170312   1.747   5.181  14.936  0.8801  0.5083 -0.8884
16299TIP3    H270313   1.704   5.036  14.923 -0.5978  0.7430  1.0719
16300TIP3   OH270314   2.118   5.191   0.854  0.1050 -0.2809  0.4671
16300TIP3    H170315   2.040   5.227   0.811  1.3432 -1.5239 -2.9248
16300TIP3    H270316   2.087   5.110   0.895 -0.3154 -0.9611 -1.1836
16301TIP3   OH270317   2.289   6.461   5.410  0.0160 -0.4356 -1.3935
16301TIP3    H170318   2.264   6.455   5.502 -0.6792  0.4921 -1.5180
16301TIP3    H270319   2.363   6.522   5.410 -0.0162 -0.3963 -1.4527
16302TIP3   OH270320   5.334   6.058   1.659  0.3245 -0.4942  0.3124
16302TIP3    H170321   5.296   6.067   1.747 -2.3948  0.5725 -0.9024
16302TIP3    H270322   5.311   5.968   1.632 -1.6175  0.2024 -0.4858
16303TIP3   OH270323   5.699   0.179  10.502  0.2714  0.4320 -0.4318
16303TIP3    H170324   5.667   0.258  10.458  0.7941  0.4338 -0.8107
16303TIP3    H270325   5.748   0.212  10.577 -0.1460  0.4453 -0.1643
16304TIP3   OH270326   4.293   5.759   2.241  0.4212 -0.4378  0.2568
16304TIP3    H170327   4.316   5.830   2.181 -0.5625 -2.6415 -2.8545
16304TIP3    H270328   4.329   5.787   2.326  0.8816  3.2899 -1.0599
16305TIP3   OH270329   0.174   6.070  15.780 -0.3986  0.4921  0.1770
16305TIP3    H170330   0.211   6.005  15.839 -0.2956 -0.5127 -0.9935
16305TIP3    H270331   0.250   6.119  15.747 -0.1151 -1.3322 -1.9420
16306TIP3   OH270332   2.486   1.228   6.009  0.6111  0.5624 -0.4850
16306TIP3    H170333   2.487   1.212   5.915  1.2365  1.7796 -0.7031
16306TIP3    H270334   2.494   1.142   6.049 -0.1773 -0.0058 -1.5445
16307TIP3   OH270335   3.522   0.294   1.621 -0.5730  0.1766  0.4066
16307TIP3    H170336   3.512   0.379   1.577  3.0207  0.8452  0.6847
16307TIP3    H270337   3.539   0.232   1.550  0.2083  0.3483  0.4325
16308TIP3   OH270338   1.481   6.353  14.959 -0.0987  0.2150  0.2910
16308TIP3    H170339   1.498   6.368  14.867 -0.4236 -0.8878  0.0413
16308TIP3    H270340   1.455   6.261  14.964 -1.3991  0.6072  1.2817
16309TIP3   OH270341   3.100   1.568   4.663  0.0513  0.8572  0.0017
16309TIP3    H170342   3.124   1.644   4.610  0.8624  1.0404  0.6290
16309TIP3    H270343   3.125   1.492   4.609 -0.8333  1.0169 -0.6574
16310TIP3   OH270344   1.743   4.369   5.020  0.0245 -0.1285 -0.0348
16310TIP3    H170345   1.682   4.300   4.995  0.7114 -1.6909  2.4722
16310TIP3    H270346   1.799   4.381   4.943 -0.8924 -1.4705 -0.9355
16311TIP3   OH270347   0.498   0.926   3.077  0.1080 -0.4022 -0.1493
16311TIP3    H170348   0.539   0.976   3.148 -1.3098 -0.3563  0.6526
16311TIP3    H270349   0.566   0.863   3.050  0.3852 -1.0128  1.8460
16312TIP3   OH270350   0.607   0.789   4.758 -0.0884 -0.1661 -0.6728
16312TIP3    H170351   0.639   0.835   4.835 -0.0846  0.7253 -1.2003
16312TIP3    H270352   0.641   0.700   4.767  1.2215  0.3430 -0.4246
16313TIP3   OH270353   5.754   1.521   1.570  0.0465 -0.5790  0.4402
16313TIP3    H170354   5.786   1.437   1.602 -0.9189 -0.9255  0.5011
16313TIP3    H270355   5.687   1.498   1.505 -0.1539  0.1421  0.3907
16314TIP3   OH270356   2.823   5.152  12.183 -0.1561  0.4890  0.0305
16314TIP3    H170357   2.745   5.195  12.148 -0.1865  0.5626  0.1889
16314TIP3    H270358   2.791   5.101  12.258  0.2786  2.2298  1.4430
16315TIP3   OH270359   4.263   0.366   2.649  0.1124 -0.2091 -0.5197
16315TIP3    H170360   4.268   0.387   2.742  3.8338  1.8681 -1.0712
16315TIP3    H270361   4.260   0.450   2.605  2.4769 -1.0122 -2.3687
16316TIP3   OH270362   2.517   2.333  11.527  0.1257 -0.0341  0.4223
16316TIP3    H170363   2.575   2.380  11.467 -0.7173  0.0235 -0.3592
16316TIP3    H270364   2.565   2.253  11.548  0.2037 -0.3012 -0.7518
16317TIP3   OH270365   5.174   4.239   2.133  0.6165  0.5232  0.2489
16317TIP3    H170366   5.199   4.329   2.153 -0.9101  1.0822 -0.3098
16317TIP3    H270367   5.128   4.245   2.049 -1.9637 -0.3773  1.5653
16318TIP3   OH270368   4.493   1.737   5.534  0.1606  0.3105 -0.3604
16318TIP3    H170369   4.429   1.699   5.596  0.7518 -3.3584 -1.8435
16318TIP3    H270370   4.566   1.676   5.536  0.5840  0.5941 -4.0048
16319TIP3   OH270371   1.724   2.271  15.987 -1.0535 -0.2200 -0.0975
16319TIP3    H170372   1.650   2.280  15.926 -2.1253 -0.1026  1.1908
16319TIP3    H270373   1.684   2.276  16.073  0.2008 -2.3315  0.6512
16320TIP3   OH270374   0.380   0.180   3.487 -0.0003  0.3931 -0.3108
16320TIP3    H170375   0.442   0.226   3.430 -1.2819 -0.3268 -2.3668
16320TIP3    H270376   0.294   0.205   3.453 -0.7676 -1.1047  0.4821
16321TIP3   OH270377   5.143   0.252  15.399  0.9455 -0.2035 -0.0880
16321TIP3    H170378   5.161   0.325  15.341  3.5412 -0.8908 -0.2157
16321TIP3    H270379   5.186   0.177  15.357  0.5768 -1.2418  1.3590
16322TIP3   OH270380   6.101   5.140   2.443 -0.0595 -0.3687 -0.6196
16322TIP3    H170381   6.087   5.105   2.355  0.3216 -0.2255 -0.7409
16322TIP3    H270382   6.157   5.076   2.486  0.3713 -0.0749 -0.7335
16323TIP3   OH270383   4.902   2.815   3.638  0.0027  0.4393  0.2176
16323TIP3    H170384   4.916   2.903   3.603 -1.1876  1.1473  1.4622
16323TIP3    H270385   4.928   2.756   3.567  1.0820  1.7828 -0.5273
16324TIP3   OH270386   5.060   0.573   0.807 -0.2976  0.8369  0.0901
16324TIP3    H170387   5.072   0.653   0.756  0.1662  1.8670  1.7910
16324TIP3    H270388   5.148   0.550   0.837 -0.9633  2.2466  3.3589
16325TIP3   OH270389   4.882   4.148   4.469  0.0477  0.5671 -0.2350
16325TIP3    H170390   4.968   4.113   4.494  0.3354  1.1546 -0.3742
16325TIP3    H270391   4.875   4.131   4.376 -0.8408 -1.2415  0.1441
16326TIP3   OH270392   6.718   1.698   5.853  0.2595  0.3296 -0.0732
16326TIP3    H170393   6.651   1.703   5.921  1.5573  0.9343  1.1655
16326TIP3    H270394   6.698   1.772   5.795 -0.1685  0.4665  0.2453
16327TIP3   OH270395   2.282   0.731   3.779 -0.6771 -0.5193  0.3638
16327TIP3    H170396   2.197   0.687   3.784 -0.6480 -0.7706 -1.1034
16327TIP3    H270397   2.303   0.731   3.685  2.1375 -2.7107  0.9315
16328TIP3   OH270398   1.343   3.264   0.330 -0.2284 -0.2769  0.1813
16328TIP3    H170399   1.427   3.237   0.366 -0.1082 -0.6160 -0.3626
16328TIP3    H270400   1.325   3.347   0.374  0.3495 -0.2420  0.3617
16329TIP3   OH270401   0.677   5.612   1.187  0.1858  0.0202 -0.0804
16329TIP3    H170402   0.628   5.688   1.218  0.0324 -0.4180  0.7651
16329TIP3    H270403   0.619   5.571   1.122  0.0413  0.3045 -0.1324
16330TIP3   OH270404   2.356   4.255   0.894 -0.1754 -0.2090 -0.3402
16330TIP3    H170405   2.434   4.204   0.873  0.2760  0.3918 -0.1409
16330TIP3    H270406   2.387   4.345   0.900 -0.7276 -0.0656  0.5411
16331TIP3   OH270407   0.197   5.697   3.140  0.9076  0.2193  0.6467
16331TIP3    H170408   0.126   5.675   3.079  1.2391  0.7849  0.0478
16331TIP3    H270409   0.153   5.728   3.219  0.4525 -1.5097  1.0922
16332TIP3   OH270410   3.291   5.044  11.666  0.0065 -0.1572 -0.3020
16332TIP3    H170411   3.380   5.044  11.701 -0.3620 -2.1075  0.6819
16332TIP3    H270412   3.298   5.002  11.581 -0.0720 -0.8349  0.0282
16333TIP3   OH270413   4.167   1.476  11.136 -0.4433 -0.5304 -1.1535
16333TIP3    H170414   4.117   1.555  11.155  0.3569 -0.3922  0.5042
16333TIP3    H270415   4.241   1.507  11.084  0.8734  0.1359  1.0437
16334TIP3   OH270416   1.935   2.807  14.234 -0.7220 -0.0932 -0.3505
16334TIP3    H170417   2.003   2.772  14.292 -1.4307  2.1177  1.9014
16334TIP3    H270418   1.858   2.753  14.252 -0.1383 -1.2957 -1.4146
16335TIP3   OH270419   4.527   4.349   2.342 -0.1163 -0.9669 -0.0616
16335TIP3    H170420   4.489   4.277   2.292 -1.0485 -1.0420  0.7303
16335TIP3    H270421   4.529   4.317   2.432  0.7058 -0.4942  0.0927
16336TIP3   OH270422   4.057   4.226  13.509  0.2002  0.4940  0.1151
16336TIP3    H170423   4.148   4.213  13.536 -0.3761  1.6279  2.7622
16336TIP3    H270424   4.040   4.319  13.525 -1.8704 -0.0290  1.2275
16337TIP3   OH270425   0.057   3.049  14.916  0.3219 -0.5830  0.1075
16337TIP3    H170426   0.111   2.997  14.857 -1.2273 -1.0108 -0.9760
16337TIP3    H270427   0.049   2.995  14.995  0.8366 -0.8455 -0.0165
16338TIP3   OH270428   4.576   4.782  15.538 -0.0324 -0.0161  0.5163
16338TIP3    H170429   4.489   4.817  15.518  0.0257 -0.0783  0.1464
16338TIP3    H270430   4.575   4.694  15.498  0.3209  0.1172  0.2105
16339TIP3   OH270431   5.790   5.524   3.429 -0.4242 -0.7127 -0.3411
16339TIP3    H170432   5.843   5.585   3.378  0.3025 -1.5595 -0.6075
16339TIP3    H270433   5.853   5.473   3.479 -1.0484 -0.9776  0.1868
16340TIP3   OH270434   0.236   1.339   3.794  0.5809 -0.4794  0.1446
16340TIP3    H170435   0.311   1.299   3.750 -1.1334 -1.7992 -1.7254
16340TIP3    H270436   0.216   1.279   3.866  0.4885 -0.8905 -0.2146
16341TIP3   OH270437   1.140   5.128   3.158  0.6984  0.2462  0.3631
16341TIP3    H170438   1.136   5.142   3.252  0.2059  1.6211  0.1608
16341TIP3    H270439   1.218   5.075   3.144 -0.4651 -1.8892  1.7442
16342TIP3   OH270440   5.598   6.477  16.811  0.2038 -0.0230 -0.3501
16342TIP3    H170441   5.661   6.478  16.883  0.0167 -1.5899 -0.1623
16342TIP3    H270442   5.610   6.392  16.769 -0.7218  0.2876 -1.2644
16343TIP3   OH270443   5.114   1.742   2.228 -0.2697 -0.2392 -0.4831
16343TIP3    H170444   5.103   1.832   2.257 -3.3148  0.4016 -3.3334
16343TIP3    H270445   5.179   1.748   2.157 -1.6691 -0.0138 -1.7641
16344TIP3   OH270446   4.726   4.591  10.901 -0.0143 -0.1135 -0.0953
16344TIP3    H170447   4.754   4.639  10.978  1.1840 -1.9666  0.6612
16344TIP3    H270448   4.796   4.528  10.885 -1.5640 -1.6707 -0.9994
16345TIP3   OH270449   6.367   0.224   0.482  0.1088 -0.3030 -0.2674
16345TIP3    H170450   6.404   0.143   0.447 -0.7549 -1.7785  2.1071
16345TIP3    H270451   6.365   0.210   0.576 -4.5502  0.5319 -0.1603
16346TIP3   OH270452   4.230   2.123  10.548 -0.1506 -0.4076 -0.1113
16346TIP3    H170453   4.169   2.186  10.587 -0.6436 -0.7315 -0.3648
16346TIP3    H270454   4.310   2.132  10.601 -0.2285  0.4097 -0.1267
16347TIP3   OH270455   6.076   0.352  16.707  0.1427 -0.3359 -0.5856
16347TIP3    H170456   6.151   0.301  16.738  0.0161 -0.3385 -0.2824
16347TIP3    H270457   6.024   0.368  16.786  0.0297  0.0068 -0.7318
16348TIP3   OH270458   6.665   4.854  16.650 -0.8270 -0.3250 -0.1196
16348TIP3    H170459   6.650   4.886  16.739  1.2640 -0.9512  0.4799
16348TIP3    H270460   6.756   4.824  16.649 -1.0151 -0.9836 -2.2739
16349TIP3   OH270461   0.973   2.734  13.401  0.8246  0.3438 -0.0026
16349TIP3    H170462   0.950   2.643  13.418 -0.1049  0.7138  0.7366
16349TIP3    H270463   1.005   2.767  13.485 -1.1265  1.3806  0.3528
16350TIP3   OH270464   3.059   4.617   4.050 -0.1849  0.1464 -0.5215
16350TIP3    H170465   3.127   4.559   4.018  0.2200 -0.3102  1.1418
16350TIP3    H270466   3.099   4.704   4.048  1.1897 -0.3644  2.3673
16351TIP3   OH270467   0.784   6.157   1.851 -0.2413  0.4577 -0.0989
16351TIP3    H170468   0.837   6.150   1.930 -0.9046  1.4083  0.4436
16351TIP3    H270469   0.703   6.199   1.880 -0.7549  0.2227 -1.1587
16352TIP3   OH270470   5.950   0.832  11.239  0.3090  0.2221 -0.3321
16352TIP3    H170471   5.969   0.756  11.295 -0.0238  0.3557 -0.0392
16352TIP3    H270472   5.918   0.793  11.158  1.1474  0.0155 -0.5733
16353TIP3   OH270473   0.799   1.783   4.414  0.4569  0.2180 -0.4002
16353TIP3    H170474   0.828   1.712   4.356  1.3161 -0.3454  0.6881
16353TIP3    H270475   0.860   1.855   4.397 -0.0201  0.4667 -1.0464
16354TIP3   OH270476   1.159   4.081  12.727  0.7853 -0.3181  0.1816
16354TIP3    H170477   1.248   4.116  12.727  0.1499  1.3828  0.0458
16354TIP3    H270478   1.142   4.058  12.636  0.7199  0.3759  0.0117
16355TIP3   OH270479   0.679   4.296   6.021  0.1693  0.2249  0.3778
16355TIP3    H170480   0.717   4.209   6.009  0.4285  0.3813  0.0610
16355TIP3    H270481   0.702   4.343   5.942 -0.3538  0.4439  0.3543
16356TIP3   OH270482   2.343   6.345   2.998 -0.0227  0.0235 -0.8962
16356TIP3    H170483   2.435   6.322   2.985  0.3816  0.9449  0.2095
16356TIP3    H270484   2.316   6.385   2.916  0.4222 -0.7151 -1.4014
16357TIP3   OH270485   6.170   1.853  12.999  0.2119  0.5420 -0.4007
16357TIP3    H170486   6.253   1.878  13.039  0.2751  0.8307 -0.7117
16357TIP3    H270487   6.172   1.757  12.997 -0.1445  0.4923  1.0180
16358TIP3   OH270488   2.905   0.655  13.488  0.1745  0.0782 -0.2985
16358TIP3    H170489   2.980   0.644  13.430 -0.0796  0.3064 -0.6675
16358TIP3    H270490   2.851   0.577  13.475 -0.3512  0.5631 -1.0551
16359TIP3   OH270491   2.411   6.407   4.808  0.6014  0.2014 -0.1662
16359TIP3    H170492   2.402   6.448   4.894 -0.2424 -1.5857  0.6177
16359TIP3    H270493   2.470   6.465   4.760 -0.0358  1.9751  1.1274
16360TIP3   OH270494   2.151   6.450  13.438  0.5184  0.0630 -0.3644
16360TIP3    H170495   2.148   6.472  13.345  0.6443 -0.0954 -0.4079
16360TIP3    H270496   2.174   6.531  13.482 -0.0920  0.2705 -0.4211
16361TIP3   OH270497   3.601   3.438   5.607  0.2595 -0.3750  0.0135
16361TIP3    H170498   3.582   3.344   5.612 -0.8729 -0.2292 -1.2481
16361TIP3    H270499   3.516   3.478   5.587  1.4140  0.5364 -3.4263
16362TIP3   OH270500   4.236   6.276  12.799  0.4428 -0.3340  0.3976
16362TIP3    H170501   4.245   6.319  12.715  0.6704 -2.3231 -0.6206
16362TIP3    H270502   4.326   6.260  12.828  0.3622  0.1069  0.9036
16363TIP3   OH270503   5.744   0.322  16.068 -0.1922  0.3092  0.5453
16363TIP3    H170504   5.710   0.391  16.010 -1.0124  0.2558  0.9632
16363TIP3    H270505   5.833   0.350  16.088  0.6426 -0.4159 -1.9429
16364TIP3   OH270506   0.792   2.296  17.146 -0.2614  0.0848  0.0027
16364TIP3    H170507   0.789   2.262  17.057 -0.1569 -0.5817  0.2501
16364TIP3    H270508   0.860   2.244  17.189 -1.3479 -0.6272  0.8908
16365TIP3   OH270509   0.247   5.379   1.619  0.0259  0.4775 -0.2208
16365TIP3    H170510   0.168   5.378   1.565 -0.8177  0.4089  0.9991
16365TIP3    H270511   0.242   5.462   1.667 -0.8575 -0.8960  2.1064
16366TIP3   OH270512   0.362   1.207  12.455 -0.2293  0.0037  0.4994
16366TIP3    H170513   0.297   1.227  12.521 -0.4216  0.9437  0.0268
16366TIP3    H270514   0.314   1.162  12.386 -0.1356 -0.4506  0.7253
16367TIP3   OH270515   5.678   4.617  10.199  0.6134  0.0673 -0.2843
16367TIP3    H170516   5.640   4.600  10.285  1.3009 -0.7138 -0.1242
16367TIP3    H270517   5.607   4.601  10.137 -0.1850  1.6529  0.1916
16368TIP3   OH270518   0.165   3.214  11.334 -0.1719  1.1569  0.4192
16368TIP3    H170519   0.144   3.255  11.418  2.9376  1.4394  1.1010
16368TIP3    H270520   0.206   3.131  11.357  0.0438  0.9017 -0.8649
16369TIP3   OH270521   4.448   3.157   5.771 -0.2963  0.4445 -0.0921
16369TIP3    H170522   4.496   3.233   5.802 -0.5286  0.0499  1.2667
16369TIP3    H270523   4.360   3.167   5.808 -1.2775  1.1281 -2.4875
16370TIP3   OH270524   3.994   3.064  14.294 -0.3712  0.3722  0.4590
16370TIP3    H170525   3.905   3.060  14.259 -0.5883 -0.3332  1.0623
16370TIP3    H270526   4.002   2.983  14.346  1.3906 -0.7222 -1.4471
16371TIP3   OH270527   2.400   1.477  12.379 -0.5188 -0.0040 -0.3255
16371TIP3    H170528   2.338   1.535  12.424  0.8284  0.0931  1.4974
16371TIP3    H270529   2.386   1.494  12.286 -2.5886  0.6701  0.0805
16372TIP3   OH270530   0.193   5.771   1.102  0.3313 -0.5750 -0.2855
16372TIP3    H170531   0.118   5.724   1.141  0.5713 -0.7157  0.0081
16372TIP3    H270532   0.228   5.710   1.037  0.7615 -0.8890  0.2297
16373TIP3   OH270533   4.700   4.421  14.817  0.1000 -0.7117 -0.7794
16373TIP3    H170534   4.685   4.391  14.906 -1.4873 -1.7399 -1.3657
16373TIP3    H270535   4.740   4.507  14.827 -0.1742 -0.7629  0.9195
16374TIP3   OH270536   2.314   4.117  12.645  0.3062  0.4161  0.5694
16374TIP3    H170537   2.364   4.196  12.622  0.4035  0.4155  0.7777
16374TIP3    H270538   2.355   4.086  12.726 -0.6251  0.9227  1.2349
16375TIP3   OH270539   0.454   5.576   4.116  0.3607 -1.0171 -0.0771
16375TIP3    H170540   0.435   5.603   4.206  0.4153 -1.0228 -0.0638
16375TIP3    H270541   0.546   5.599   4.103 -0.1377  0.7017 -0.7411
16376TIP3   OH270542   2.574   4.777  12.454  0.3845  0.5971  0.2147
16376TIP3    H170543   2.541   4.772  12.365 -0.9143 -1.7355  0.7883
16376TIP3    H270544   2.649   4.717  12.456 -0.4246 -0.4051  1.0228
16377TIP3   OH270545   0.237   4.102  16.821 -0.0201 -0.7270  0.0512
16377TIP3    H170546   0.161   4.048  16.844 -0.8489  1.3735  2.5134
16377TIP3    H270547   0.218   4.136  16.734 -1.6320 -0.7266  0.3904
16378TIP3   OH270548   6.361   6.716  14.263  0.2238 -0.8178 -0.6155
16378TIP3    H170549   6.372   6.783  14.331 -0.7032 -0.0628 -1.1849
16378TIP3    H270550   6.436   6.658  14.273 -0.4399 -1.3049  1.7268
16379TIP3   OH270551   6.177   0.851   3.063  0.3873 -0.1657 -0.5568
16379TIP3    H170552   6.183   0.828   2.970  1.1733 -1.0000 -0.3145
16379TIP3    H270553   6.104   0.799   3.096 -0.0630  0.3340 -0.7663
16380TIP3   OH270554   4.249   2.006   0.707 -0.1387  0.0278  0.3471
16380TIP3    H170555   4.342   2.029   0.715  0.6079 -2.5883 -0.2417
16380TIP3    H270556   4.225   1.976   0.794 -0.3138  0.3497  0.4069
16381TIP3   OH270557   0.900   6.772  12.363  0.0734  0.1353 -0.6080
16381TIP3    H170558   0.834   6.808  12.304  1.0305  1.1769 -1.0595
16381TIP3    H270559   0.964   6.731  12.304 -0.0547 -0.6869 -0.1845
16382TIP3   OH270560   2.931   6.486   1.602 -0.4575  0.0583  0.4995
16382TIP3    H170561   2.991   6.511   1.532 -0.4092  0.6950  0.7683
16382TIP3    H270562   2.968   6.406   1.638 -0.8573 -0.6660 -0.6662
16383TIP3   OH270563   2.160   0.482   2.707 -0.0519  0.6528 -0.2451
16383TIP3    H170564   2.255   0.473   2.712  0.0272  0.7538 -1.4145
16383TIP3    H270565   2.144   0.576   2.715 -0.0007  0.7107 -0.8303
16384TIP3   OH270566   5.152   2.222   5.971  0.4687  0.2540 -0.1921
16384TIP3    H170567   5.119   2.309   5.947  0.5040 -0.1512 -1.7409
16384TIP3    H270568   5.202   2.237   6.051  1.0512  1.7900 -0.8238
16385TIP3   OH270569   6.267   2.129   1.112 -0.1489  0.0297  0.2781
16385TIP3    H170570   6.271   2.177   1.030 -1.1805 -0.1275  0.1330
16385TIP3    H270571   6.201   2.175   1.165 -0.8872 -0.9939  0.2690
16386TIP3   OH270572   0.944   1.703   5.088 -0.1058  0.0135  0.6384
16386TIP3    H170573   0.853   1.724   5.065 -0.4065 -1.3847  0.4829
16386TIP3    H270574   0.983   1.787   5.112 -0.9454  0.9063 -1.0246
16387TIP3   OH270575   0.660   1.567  11.973  0.1291  0.3388  0.5814
16387TIP3    H170576   0.572   1.568  12.012  0.7814 -1.5053  2.1744
16387TIP3    H270577   0.650   1.514  11.894 -0.3230  0.6601  0.4223
16388TIP3   OH270578   5.790   2.493  13.526 -0.3474 -0.5236  0.1420
16388TIP3    H170579   5.884   2.474  13.524  0.2817  2.5395 -1.0347
16388TIP3    H270580   5.765   2.498  13.434 -1.4852 -0.4585  0.4537
16389TIP3   OH270581   3.056   2.772  14.954 -0.0202  0.1255  0.3680
16389TIP3    H170582   2.985   2.836  14.960 -3.3571 -3.3574 -0.4948
16389TIP3    H270583   3.070   2.744  15.045  0.1469  0.6839  0.5185
16390TIP3   OH270584   5.183   0.432  13.747  0.1634  0.3274  0.0919
16390TIP3    H170585   5.201   0.394  13.834  0.0676  0.1411  0.0301
16390TIP3    H270586   5.152   0.521  13.766  0.8325  0.5411  0.2155
16391TIP3   OH270587   5.971   3.813  14.845  0.0605  0.1407 -0.1738
16391TIP3    H170588   5.976   3.832  14.939 -0.8320 -0.8919  0.0868
16391TIP3    H270589   6.035   3.872  14.806  0.4124  0.6132  1.0788
16392TIP3   OH270590   5.227   3.187  16.378 -0.1461 -0.3450  0.1532
16392TIP3    H170591   5.159   3.127  16.347 -0.5098 -0.2187  0.6950
16392TIP3    H270592   5.180   3.268  16.398  0.2256 -0.1262  0.1515
16393TIP3   OH270593   0.601   3.515   1.953 -0.1452  0.1433 -0.0768
16393TIP3    H170594   0.532   3.481   1.896 -1.5026 -0.3498  1.8071
16393TIP3    H270595   0.554   3.557   2.025  1.5286  2.2581 -0.1455
16394TIP3   OH270596   4.828   0.355   1.617  0.3333 -0.5263 -0.2709
16394TIP3    H170597   4.914   0.396   1.630  0.9805 -1.1911 -2.3143
16394TIP3    H270598   4.847   0.273   1.571 -1.2218 -1.7202  1.1242
16395TIP3   OH270599   2.108   1.904   3.282  0.3847  0.3953 -0.5710
16395TIP3    H170600   2.112   2.000   3.282  0.8408  0.3783  0.1738
16395TIP3    H270601   2.150   1.878   3.364  0.5357 -0.4565 -0.9119
16396TIP3   OH270602   6.656   5.653   3.181  0.1606  0.0653  0.5414
16396TIP3    H170603   6.687   5.726   3.235 -0.1539 -0.0314  0.8505
16396TIP3    H270604   6.710   5.658   3.102  0.5358  0.2835  0.8093
16397TIP3   OH270605   4.057   4.691  13.295  0.7856  0.0436 -0.3285
16397TIP3    H170606   3.964   4.690  13.317  0.9376  2.6542  0.6973
16397TIP3    H270607   4.060   4.701  13.200 -0.0391  1.9312 -0.1753
16398TIP3   OH270608   1.743   3.520  13.045 -0.0188  0.3719 -0.1027
16398TIP3    H170609   1.797   3.468  13.105  3.6060  2.1893 -1.6472
16398TIP3    H270610   1.693   3.455  12.996 -1.1686 -1.2521  3.0854
16399TIP3   OH270611   5.394   4.379  13.844  0.3593  0.3658 -0.0154
16399TIP3    H170612   5.447   4.450  13.808 -0.4907  1.0846  0.1309
16399TIP3    H270613   5.456   4.308  13.860  0.8669  0.2787 -2.2164
16400TIP3   OH270614   6.573   3.026   5.801  0.4062  0.2494 -0.0788
16400TIP3    H170615   6.539   2.990   5.884  1.0537  0.5902  0.3336
16400TIP3    H270616   6.646   2.968   5.778 -1.0548 -1.0866 -1.4899
16401TIP3   OH270617   1.173   4.477  16.953 -0.6030  0.5717  0.1136
16401TIP3    H170618   1.213   4.421  17.020 -1.5101  0.2591  0.4123
16401TIP3    H270619   1.192   4.433  16.870 -0.6960  0.2038  0.2879
16402TIP3   OH270620   1.369   2.216   0.616  0.7182  0.5615  0.0542
16402TIP3    H170621   1.367   2.302   0.657 -0.1938  0.4334  0.2845
16402TIP3    H270622   1.300   2.166   0.659  0.5695  0.0281 -0.7691
16403TIP3   OH270623   4.975   3.133  15.550  0.1978 -0.2803 -1.1496
16403TIP3    H170624   4.965   3.129  15.645  1.3038  0.5366 -0.9901
16403TIP3    H270625   4.919   3.205  15.523  1.4404  0.8029 -0.8760
16404TIP3   OH270626   1.532   2.985  13.947  0.6162  0.4047 -0.2458
16404TIP3    H170627   1.485   2.915  13.991 -0.4359  0.0832 -1.8522
16404TIP3    H270628   1.607   3.004  14.004 -0.3980 -0.3892  1.3589
16405TIP3   OH270629   1.709   4.607  15.182 -0.0898 -0.2848  0.5814
16405TIP3    H170630   1.700   4.696  15.217 -0.3081  0.5037 -1.3958
16405TIP3    H270631   1.766   4.617  15.106 -1.6009 -1.5429 -0.7404
16406TIP3   OH270632   1.687   3.782  11.191 -0.4547  0.7223 -0.2828
16406TIP3    H170633   1.619   3.848  11.177 -0.6994  0.6771  0.6629
16406TIP3    H270634   1.751   3.797  11.122 -0.6683  1.7505 -0.2539
16407TIP3   OH270635   0.389   4.457   3.678 -0.0937  0.0468  0.7035
16407TIP3    H170636   0.404   4.515   3.604  0.6491 -1.6029 -0.4758
16407TIP3    H270637   0.301   4.422   3.663  0.5014 -1.1738 -0.0550
16408TIP3   OH270638   2.256   1.194   0.922 -0.4535 -0.6290  0.1924
16408TIP3    H170639   2.169   1.232   0.933  0.2846  0.9382  0.7187
16408TIP3    H270640   2.316   1.267   0.934  0.9707 -1.7985  0.3485
16409TIP3   OH270641   5.297   0.138  12.191 -0.2894 -0.0246 -0.4154
16409TIP3    H170642   5.369   0.199  12.206 -0.4775 -0.1351  1.0003
16409TIP3    H270643   5.327   0.055  12.230 -0.8482 -0.2947 -0.5526
16410TIP3   OH270644   5.808   3.021   0.519  0.1618 -0.1316  0.2110
16410TIP3    H170645   5.831   2.947   0.463  0.2111 -1.0278  1.4148
16410TIP3    H270646   5.715   3.036   0.501  0.1704 -0.4253 -0.0933
16411TIP3   OH270647   2.172   5.096  12.229  0.3181 -0.4185 -0.1915
16411TIP3    H170648   2.144   5.049  12.308  1.3693 -2.1372 -0.8100
16411TIP3    H270649   2.250   5.145  12.256  0.2550 -0.4293  0.0082
16412TIP3   OH270650   3.635   4.677   1.551 -0.3564  0.9460  0.7971
16412TIP3    H170651   3.589   4.740   1.495  0.1269  1.8339  1.3862
16412TIP3    H270652   3.651   4.602   1.494 -1.4561  1.1125  0.2476
16413TIP3   OH270653   3.439   0.959  11.679 -0.1545  0.2612 -0.0832
16413TIP3    H170654   3.495   0.911  11.740  0.8934  1.1445 -0.3335
16413TIP3    H270655   3.498   0.990  11.611 -0.9827  1.0029 -0.4878
16414TIP3   OH270656   0.977   1.043   5.172  0.5171 -0.4157 -0.2753
16414TIP3    H170657   0.943   1.128   5.143 -0.7566 -0.4938  0.9241
16414TIP3    H270658   1.068   1.062   5.198 -0.0047  0.7681  0.7486
16415TIP3   OH270659   6.312   5.510  11.410 -0.1768  0.4605 -0.4759
16415TIP3    H170660   6.389   5.557  11.441  0.1507  0.0213 -0.6169
16415TIP3    H270661   6.342   5.419  11.399 -1.1930 -0.1087  1.2522
16416TIP3   OH270662   2.124   0.659   0.033  0.7150  0.3555  0.0842
16416TIP3    H170663   2.140   0.732  -0.026 -2.1849  1.4689  0.6063
16416TIP3    H270664   2.159   0.582  -0.013  1.6032  1.7138 -1.5391
16417TIP3   OH270665   4.470   0.207   1.328  0.7181 -0.0180  0.5399
16417TIP3    H170666   4.486   0.267   1.254 -1.3460  1.1248  0.9952
16417TIP3    H270667   4.396   0.154   1.299 -1.9297  2.3035  2.8423
16418TIP3   OH270668   1.678   3.504  16.501  0.2102  0.1463  0.1051
16418TIP3    H170669   1.747   3.532  16.441  1.7342 -1.8755  0.8693
16418TIP3    H270670   1.690   3.558  16.579 -0.1718  0.9900 -0.4107
16419TIP3   OH270671   4.383   6.717   5.990 -0.1746  0.6206  0.0875
16419TIP3    H170672   4.445   6.763   6.046 -0.6735 -0.7284  1.7990
16419TIP3    H270673   4.315   6.782   5.971 -0.1754  1.0227  1.3666
16420TIP3   OH270674   0.692   0.923   0.217 -0.3798 -0.1129 -0.6166
16420TIP3    H170675   0.613   0.899   0.267 -0.7663  1.7969 -0.2854
16420TIP3    H270676   0.762   0.871   0.257 -1.5276 -2.1516 -1.1806
16421TIP3   OH270677   0.372   6.524   5.043  0.2325 -0.3279  0.5220
16421TIP3    H170678   0.369   6.465   4.967 -0.8049  0.3549  0.0251
16421TIP3    H270679   0.403   6.607   5.007  1.1874 -0.4160  1.1285
16422TIP3   OH270680   4.043   4.056  14.005 -0.6999 -0.6372 -0.3080
16422TIP3    H170681   4.008   4.038  14.092 -2.7698 -2.1760 -1.4028
16422TIP3    H270682   4.003   3.989  13.949  1.8302 -0.6700 -2.1550
16423TIP3   OH270683   3.799   6.251   5.993  0.3763 -0.1313  0.0070
16423TIP3    H170684   3.708   6.230   5.971 -0.1858  1.1165  1.0858
16423TIP3    H270685   3.803   6.242   6.088  0.6380  2.6667  0.2789
16424TIP3   OH270686   2.937   4.455   6.086  0.1943  0.4279 -0.2018
16424TIP3    H170687   2.952   4.548   6.069  0.9638  0.3023 -0.2388
16424TIP3    H270688   2.895   4.422   6.007  1.0847  0.4785 -0.7112
16425TIP3   OH270689   3.472   5.557   3.013 -0.1912 -0.6107 -0.3752
16425TIP3    H170690   3.438   5.624   3.072  0.8448  0.0897 -0.5695
16425TIP3    H270691   3.397   5.533   2.958 -0.0732  1.7866 -1.6030
16426TIP3   OH270692   1.604   3.737  13.771  0.2273 -0.7347 -0.1093
16426TIP3    H170693   1.666   3.793  13.820  1.5588 -1.1461 -1.2848
16426TIP3    H270694   1.594   3.659  13.826 -1.9027  0.7490  1.7098
16427TIP3   OH270695   6.461   1.264  13.361 -0.3781 -0.7428  0.3944
16427TIP3    H170696   6.402   1.214  13.305 -0.2263 -2.2925  1.5950
16427TIP3    H270697   6.474   1.347  13.314 -1.6448 -1.3106 -0.9926
16428TIP3   OH270698   3.215   0.307   5.240  0.2448 -0.2570 -0.0850
16428TIP3    H170699   3.210   0.240   5.309 -0.6575 -0.8429 -0.7055
16428TIP3    H270700   3.268   0.376   5.278  0.8060 -1.1250  0.7464
16429TIP3   OH270701   0.621   2.228   4.342  0.2904  0.0012  0.1767
16429TIP3    H170702   0.614   2.238   4.247  0.3520 -1.8262 -0.0476
16429TIP3    H270703   0.545   2.175   4.366  0.9142 -0.5412  0.9706
16430TIP3   OH270704   0.111   4.646  14.811  0.3615 -0.3914 -0.2489
16430TIP3    H170705   0.170   4.581  14.850  1.2008 -0.7145 -2.0345
16430TIP3    H270706   0.143   4.730  14.844  0.6904 -0.6989  0.2282
16431TIP3   OH270707   0.453   1.829  12.898  0.0182  0.3787  0.8006
16431TIP3    H170708   0.464   1.924  12.889 -1.0352  0.2874 -1.9003
16431TIP3    H270709   0.358   1.816  12.896  0.2076 -0.9140 -1.3695
16432TIP3   OH270710   1.833   1.858   3.292  0.0489 -0.4792 -0.9752
16432TIP3    H170711   1.754   1.909   3.271  0.1260 -0.8822 -2.2992
16432TIP3    H270712   1.903   1.924   3.295 -0.6638  0.1860  2.3383
16433TIP3   OH270713   0.362   2.679  13.730  0.1494 -0.0374  0.0841
16433TIP3    H170714   0.271   2.664  13.753  0.1527 -1.0694 -0.5436
16433TIP3    H270715   0.412   2.633  13.798  0.2026  0.5650  0.4537
16434TIP3   OH270716   3.737   3.291  15.619 -0.0084  0.4639 -0.3513
16434TIP3    H170717   3.827   3.324  15.612  0.1590  0.3965  1.2187
16434TIP3    H270718   3.738   3.210  15.569  0.5425  0.9839 -1.1977
16435TIP3   OH270719   0.958   0.208  14.912 -0.4966 -0.5287  0.2648
16435TIP3    H170720   0.890   0.242  14.853 -0.2654 -2.9952 -1.4868
16435TIP3    H270721   1.016   0.283  14.927 -2.0676  0.8742 -0.4461
16436TIP3   OH270722   2.099   4.324  13.044  0.1668  0.9873 -0.1639
16436TIP3    H170723   2.121   4.251  13.103 -1.7757  1.7041  1.5053
16436TIP3    H270724   2.106   4.286  12.956 -0.6975 -1.2081  0.6647
16437TIP3   OH270725   2.550   4.153   3.877 -0.5093  0.4547  0.3073
16437TIP3    H170726   2.501   4.113   3.805  1.8229 -1.2248 -0.4358
16437TIP3    H270727   2.486   4.163   3.947 -2.0322 -1.2207 -0.7768
16438TIP3   OH270728   5.134   5.258   1.784 -0.1025  0.4052  0.1178
16438TIP3    H170729   5.167   5.212   1.861 -0.4237 -1.1760 -0.6725
16438TIP3    H270730   5.191   5.335   1.776 -0.3449  0.8223  2.1690
16439TIP3   OH270731   2.271   5.975  12.202  0.2960  0.1221  0.3792
16439TIP3    H170732   2.227   5.979  12.117 -1.3781 -0.7489  1.1645
16439TIP3    H270733   2.215   6.025  12.261  2.0890  1.7608  0.7262
16440TIP3   OH270734   2.515   0.956  12.450  0.4289 -0.4503  0.3490
16440TIP3    H170735   2.433   1.004  12.458 -0.2907 -1.4263 -1.0593
16440TIP3    H270736   2.566   1.005  12.387  1.0391  0.2889  1.4030
16441TIP3   OH270737   1.658   2.133  13.699 -0.2735  0.2139 -0.2682
16441TIP3    H170738   1.657   2.212  13.645  0.0243 -0.1844 -0.8690
16441TIP3    H270739   1.581   2.084  13.670 -0.2285  0.0936 -0.1837
16442TIP3   OH270740   3.201   4.605  13.451  0.1894  0.1059  0.0152
16442TIP3    H170741   3.129   4.669  13.449  1.6363  1.7272 -1.6914
16442TIP3    H270742   3.240   4.616  13.538  1.0958  2.3336 -0.6505
16443TIP3   OH270743   4.396   6.692  15.898  0.3593  0.3973  0.5695
16443TIP3    H170744   4.417   6.757  15.831 -0.5149  1.0496  0.9150
16443TIP3    H270745   4.439   6.725  15.977  3.4578 -1.6425 -0.2022
16444TIP3   OH270746   2.445   3.560   2.072 -0.2829 -0.2462 -0.4725
16444TIP3    H170747   2.375   3.504   2.104 -0.4849 -0.3089 -1.0113
16444TIP3    H270748   2.503   3.500   2.024  0.2105 -0.2203  0.0857
16445TIP3   OH270749   3.293   5.441  17.028  0.2177  0.7676 -0.5309
16445TIP3    H170750   3.325   5.358  16.993 -2.1361  0.3508 -1.7618
16445TIP3    H270751   3.198   5.431  17.032  0.0959  2.4409  1.8224
16446TIP3   OH270752   6.441   5.455   2.883 -0.0471  0.1981  0.1748
16446TIP3    H170753   6.394   5.530   2.847 -1.0751 -0.5369 -0.0524
16446TIP3    H270754   6.460   5.480   2.974  0.6873  1.2087 -0.2488
16447TIP3   OH270755   6.643   5.499   1.376  0.4236 -0.2723  0.0661
16447TIP3    H170756   6.554   5.468   1.360  0.6468 -0.7911 -0.1795
16447TIP3    H270757   6.694   5.419   1.388  0.8490  0.0251  0.2477
16448TIP3   OH270758   2.328   2.426   1.173  0.3218  0.4055  0.1898
16448TIP3    H170759   2.326   2.438   1.078  0.1823 -0.0878  0.1316
16448TIP3    H270760   2.328   2.331   1.186 -0.6541  0.4684  0.7053
16449TIP3   OH270761   0.804   2.166   2.661  0.5611  0.8043  0.6360
16449TIP3    H170762   0.727   2.110   2.665  0.5902  0.7776  0.8245
16449TIP3    H270763   0.869   2.115   2.613 -0.9590  2.4966 -3.3553
16450TIP3   OH270764   6.379   0.138  14.461 -0.4583  0.6113 -0.3518
16450TIP3    H170765   6.451   0.186  14.501 -0.4717  2.0905 -2.0632
16450TIP3    H270766   6.304   0.197  14.468 -1.3986 -0.6818  0.8851
16451TIP3   OH270767   6.707   2.828  13.680 -0.9747 -0.0556 -0.2790
16451TIP3    H170768   6.747   2.915  13.684  1.2869 -1.0548  0.0767
16451TIP3    H270769   6.758   2.781  13.613  0.3464 -2.2506  2.1381
16452TIP3   OH270770   0.004   0.513  11.675  0.2952 -0.2602  0.0267
16452TIP3    H170771   0.036   0.591  11.721 -1.4252  0.2921  0.3377
16452TIP3    H270772  -0.025   0.546  11.590 -1.1317 -0.3957  0.4350
16453TIP3   OH270773   3.587   1.049   5.562  0.2061 -0.1102  0.4591
16453TIP3    H170774   3.572   0.971   5.616  0.3576 -0.9588 -0.7272
16453TIP3    H270775   3.682   1.059   5.560  0.2212 -0.3388 -0.0173
16454TIP3   OH270776   1.860   1.377   4.636  0.4113  0.1900 -0.3794
16454TIP3    H170777   1.944   1.423   4.641 -0.1707  1.0184  2.6169
16454TIP3    H270778   1.833   1.386   4.544  2.7068  1.4715 -0.9586
16455TIP3   OH270779   4.919   2.545   4.845 -0.1682  0.7859  0.2812
16455TIP3    H170780   4.874   2.461   4.849  1.4237 -0.0647  0.5178
16455TIP3    H270781   4.849   2.608   4.827 -1.2044 -0.7307 -1.2325
16456TIP3   OH270782   2.554   5.747  15.061  0.3725 -0.4193  0.0116
16456TIP3    H170783   2.648   5.739  15.073  0.4100 -1.6325 -1.0428
16456TIP3    H270784   2.519   5.661  15.084 -0.5095  0.0963  0.6337
16457TIP3   OH270785   5.619   1.580   3.262 -0.2831  0.3157  0.4065
16457TIP3    H170786   5.665   1.548   3.184 -0.5468 -0.1036  0.4202
16457TIP3    H270787   5.669   1.544   3.336  0.0382  0.8127  0.4351
16458TIP3   OH270788   1.176   4.133   1.905  0.8175  0.3868  0.0687
16458TIP3    H170789   1.151   4.083   1.982  2.0784  1.4863  1.2098
16458TIP3    H270790   1.097   4.134   1.850 -0.0214 -0.5594  1.2516
16459TIP3   OH270791   4.336   6.577   5.448 -0.3890 -0.2776  0.3449
16459TIP3    H170792   4.376   6.501   5.404  0.6230  1.0138 -0.9928
16459TIP3    H270793   4.358   6.565   5.540 -0.1918 -1.5960  0.1419
16460TIP3   OH270794   1.773   6.434   3.262 -0.2684  0.5286  0.4546
16460TIP3    H170795   1.795   6.379   3.338  0.4715 -0.2366 -0.3097
16460TIP3    H270796   1.820   6.394   3.189 -1.5036  0.8763 -0.5441
16461TIP3   OH270797   0.716   2.351  14.414  0.2297  0.5146  0.2490
16461TIP3    H170798   0.759   2.418  14.360 -1.8024  2.6092  1.1138
16461TIP3    H270799   0.768   2.346  14.493 -0.2893  2.0212  0.7023
16462TIP3   OH270800   6.491   5.998   4.124  0.3722 -0.2938 -0.2783
16462TIP3    H170801   6.572   6.032   4.163 -0.5831 -0.1577  1.6449
16462TIP3    H270802   6.446   6.076   4.092 -1.5290  0.3172  3.5824
16463TIP3   OH270803   2.513   6.125   1.849 -0.2940  0.3549  0.6238
16463TIP3    H170804   2.420   6.146   1.855 -0.3657  0.2473 -0.1476
16463TIP3    H270805   2.518   6.032   1.870 -0.2278  0.6121  1.7892
16464TIP3   OH270806   5.916   6.741  12.608 -0.2589 -0.2157  0.2533
16464TIP3    H170807   5.962   6.791  12.676 -0.7114  2.6719 -1.4934
16464TIP3    H270808   5.986   6.701  12.557  0.1299 -0.7690  1.2012
16465TIP3   OH270809   1.338   0.805   4.345 -0.4494  0.0654  0.6190
16465TIP3    H170810   1.318   0.872   4.279 -0.7866 -2.3393 -1.8167
16465TIP3    H270811   1.256   0.757   4.356  0.1917 -0.8878  1.2326
16466TIP3   OH270812   4.960   4.105   3.805  0.3108 -0.1259 -0.2509
16466TIP3    H170813   4.879   4.061   3.779 -0.4620  0.8649  0.4566
16466TIP3    H270814   4.951   4.194   3.769  0.0085  0.7144  1.8513
16467TIP3   OH270815   3.570   1.349   1.884 -0.1047 -0.0523 -0.4029
16467TIP3    H170816   3.479   1.330   1.907  0.5281 -1.3095  1.1852
16467TIP3    H270817   3.567   1.372   1.791 -1.9612 -0.6706 -0.5196
16468TIP3   OH270818   3.820   0.474  15.616 -0.5459  0.4110 -0.5186
16468TIP3    H170819   3.784   0.562  15.607 -1.8292 -0.1947 -1.4769
16468TIP3    H270820   3.800   0.431  15.533 -0.2561 -0.9086  0.0754
16469TIP3   OH270821   2.212   1.767  14.624 -0.4084 -0.2001 -0.1567
16469TIP3    H170822   2.297   1.778  14.582 -1.1066 -1.1999 -1.8875
16469TIP3    H270823   2.170   1.853  14.617 -0.6566 -0.4364 -1.8619
16470TIP3   OH270824   1.265   2.542   1.071 -0.3326  0.2858  0.3393
16470TIP3    H170825   1.239   2.616   1.016  1.0829  0.0445 -0.6861
16470TIP3    H270826   1.359   2.551   1.081 -0.0800 -1.5419 -0.0714
16471TIP3   OH270827   3.165   1.215   6.290  0.6055 -0.2611  0.2504
16471TIP3    H170828   3.168   1.122   6.270 -0.1419 -0.0712 -0.8116
16471TIP3    H270829   3.140   1.220   6.382 -1.8250 -1.0783 -0.3265
16472TIP3   OH270830   1.193   4.442   2.851  0.3010  0.2073 -0.1188
16472TIP3    H170831   1.216   4.534   2.840  1.3470 -0.3770 -3.7498
16472TIP3    H270832   1.098   4.440   2.852  0.2577  1.2156 -1.5243
16473TIP3   OH270833   0.639   1.492  14.638 -0.4419  0.6626 -0.0332
16473TIP3    H170834   0.714   1.510  14.581 -0.7613  0.2234 -0.5898
16473TIP3    H270835   0.612   1.403  14.615 -1.4093  0.9795 -0.1374
16474TIP3   OH270836   4.076   2.944  12.079  0.1789 -0.0773 -0.3161
16474TIP3    H170837   4.026   2.903  12.149 -0.3127  0.9139 -0.0823
16474TIP3    H270838   4.132   2.874  12.046  0.1350 -0.6615  0.8032
16475TIP3   OH270839   1.632   3.573  11.375  0.5329  0.1902  0.3659
16475TIP3    H170840   1.599   3.605  11.459  2.6239 -0.3629  1.4241
16475TIP3    H270841   1.661   3.652  11.329 -1.6434  0.6114 -0.3149
16476TIP3   OH270842   4.746   5.908  15.625 -0.1611  0.2082 -0.2426
16476TIP3    H170843   4.714   5.996  15.644 -1.2202  0.0928 -1.4144
16476TIP3    H270844   4.728   5.895  15.532 -2.0948 -2.0891  0.3975
16477TIP3   OH270845   1.785   2.774   5.741  0.3858  0.2274 -0.1810
16477TIP3    H170846   1.852   2.737   5.798  0.7728 -1.1158 -1.4894
16477TIP3    H270847   1.795   2.728   5.658 -1.6330  0.5730 -0.6594
16478TIP3   OH270848   4.220   4.097  12.619 -0.4100  0.1690  0.0051
16478TIP3    H170849   4.298   4.140  12.652 -0.0308 -1.2040  0.9591
16478TIP3    H270850   4.203   4.027  12.683 -1.7249 -0.2835 -0.8255
16479TIP3   OH270851   4.746   5.424  13.637  0.4844  0.2643  0.0183
16479TIP3    H170852   4.792   5.354  13.591  1.5936  0.8161  0.2690
16479TIP3    H270853   4.815   5.480  13.671 -0.3961  2.6066 -1.8734
16480TIP3   OH270854   6.289   0.810  16.310  0.3162  0.3272 -0.2268
16480TIP3    H170855   6.224   0.744  16.335  0.2323  0.8178  0.8984
16480TIP3    H270856   6.238   0.889  16.296  0.7393  0.9320  1.4936
16481TIP3   OH270857   5.115   1.467   0.881 -0.1271  0.6026 -0.3754
16481TIP3    H170858   5.049   1.500   0.820  0.6816 -0.2299 -1.7401
16481TIP3    H270859   5.182   1.429   0.824 -0.2383 -1.8414  1.0788
16482TIP3   OH270860   3.474   5.842   2.086  0.0543 -0.3018  0.2266
16482TIP3    H170861   3.521   5.792   2.020 -0.1814 -0.5765  0.2636
16482TIP3    H270862   3.497   5.801   2.169  0.5874  0.2322  0.3436
16483TIP3   OH270863   1.936   4.638  16.857  0.0133 -0.0955  0.7210
16483TIP3    H170864   2.001   4.707  16.865 -0.9806  0.6996  1.9970
16483TIP3    H270865   1.862   4.668  16.909 -1.4533 -0.8987 -0.8560
16484TIP3   OH270866   6.419   0.598   0.316 -0.0115 -0.3600 -0.5160
16484TIP3    H170867   6.474   0.661   0.269 -0.2453 -0.0289 -0.3405
16484TIP3    H270868   6.464   0.514   0.304 -0.7361 -0.5103 -2.4296
16485TIP3   OH270869   5.524   1.287  12.258  0.2567 -0.1160  0.2200
16485TIP3    H170870   5.570   1.228  12.318 -0.0422  0.2054  0.7621
16485TIP3    H270871   5.578   1.366  12.255 -0.6010  0.5121  1.3623
16486TIP3   OH270872   5.990   2.644   4.273 -0.2526  0.2058 -0.1259
16486TIP3    H170873   6.033   2.625   4.189 -0.8362  1.1948 -0.6520
16486TIP3    H270874   5.900   2.665   4.250 -0.4846  0.2196  0.7816
16487TIP3   OH270875   1.314   6.288   3.517 -0.0589  0.8956  0.0995
16487TIP3    H170876   1.243   6.246   3.469  2.1535 -0.7710 -1.8259
16487TIP3    H270877   1.317   6.378   3.484 -1.2394  0.9664  0.1805
16488TIP3   OH270878   4.843   3.478  16.798  0.7273 -0.0912 -0.5680
16488TIP3    H170879   4.750   3.490  16.817  1.0504  0.0555  1.0037
16488TIP3    H270880   4.859   3.385  16.815  1.1805  0.1973  0.6089
16489TIP3   OH270881   5.460   2.548  11.147  0.1964 -0.2545 -0.5379
16489TIP3    H170882   5.402   2.613  11.107  0.3507  1.4249  1.9090
16489TIP3    H270883   5.458   2.474  11.086 -2.5293  0.7576 -1.7484
16490TIP3   OH270884   5.321   4.179  12.695 -0.0657 -0.8784 -0.3020
16490TIP3    H170885   5.246   4.162  12.752 -0.3868 -0.6061 -0.6452
16490TIP3    H270886   5.392   4.125  12.732 -0.0339 -0.0680  0.8385
16491TIP3   OH270887   3.878   5.880   5.453  0.1571 -0.0192  0.1960
16491TIP3    H170888   3.852   5.947   5.516  0.1566  1.0053 -0.8802
16491TIP3    H270889   3.926   5.816   5.505 -4.3195 -1.8871  2.2141
16492TIP3   OH270890   1.478   5.324  14.844  0.2536 -0.0829 -0.2297
16492TIP3    H170891   1.504   5.392  14.906  0.4769 -1.0424  0.7314
16492TIP3    H270892   1.523   5.245  14.874 -1.3466 -1.0603 -0.3578
16493TIP3   OH270893   3.276   6.477  12.165  0.1443  0.0209  0.6039
16493TIP3    H170894   3.343   6.442  12.107  2.0354 -0.2815  2.8601
16493TIP3    H270895   3.270   6.570  12.143  0.9919 -0.0507  0.0497
16494TIP3   OH270896   3.590   5.458  16.183  0.6620  0.0145  0.0081
16494TIP3    H170897   3.583   5.545  16.221 -1.0091 -0.5299  1.0033
16494TIP3    H270898   3.606   5.400  16.258  0.0971 -0.7352 -0.4450
16495TIP3   OH270899   3.452   5.978  15.847  0.5516  0.3563 -0.4937
16495TIP3    H170900   3.523   6.003  15.906  1.4556  0.2185 -1.5073
16495TIP3    H270901   3.376   6.029  15.876  1.6096  2.0907 -0.7271
16496TIP3   OH270902   2.912   1.314   2.495  0.0880  0.2249 -0.2812
16496TIP3    H170903   2.939   1.405   2.479 -1.1739  0.3411 -1.8918
16496TIP3    H270904   2.835   1.303   2.440 -0.5927 -1.4028  0.9966
16497TIP3   OH270905   4.629   3.164  16.900 -0.0852  0.1666  0.3127
16497TIP3    H170906   4.594   3.234  16.845 -0.2108  0.7000  1.0678
16497TIP3    H270907   4.693   3.120  16.845 -0.6744  0.2932 -0.4763
16498TIP3   OH270908   2.274   5.694   4.587  0.0176 -0.0679  0.4115
16498TIP3    H170909   2.247   5.778   4.622 -0.6322 -0.1180  0.0626
16498TIP3    H270910   2.337   5.715   4.518  1.4021  0.0186  1.6907
16499TIP3   OH270911   0.725   6.607  12.868  0.5059  0.4411 -0.0942
16499TIP3    H170912   0.713   6.702  12.862  1.7298  0.6990  1.4174
16499TIP3    H270913   0.758   6.582  12.782  0.8233  1.4802 -0.2799
16500TIP3   OH270914   4.033   5.863   3.325 -0.0180 -0.0028  0.0047
16500TIP3    H170915   4.064   5.845   3.236  0.0135 -1.1816  0.2438
16500TIP3    H270916   3.978   5.787   3.346  1.1417 -0.4256  1.5265
16501TIP3   OH270917   0.254   3.119  13.713  0.1553 -0.1498  0.4583
16501TIP3    H170918   0.293   3.191  13.664 -1.1387 -0.0924 -0.5201
16501TIP3    H270919   0.326   3.081  13.762  1.3347  0.2739 -0.9167
16502TIP3   OH270920   4.297   1.152   0.574  0.2505 -0.3289 -0.0463
16502TIP3    H170921   4.245   1.209   0.518 -0.5732 -0.9998  0.0391
16502TIP3    H270922   4.330   1.210   0.643 -0.3939  0.0926 -0.0881
16503TIP3   OH270923   1.438   3.864   2.197  1.0969  0.6466  0.1327
16503TIP3    H170924   1.485   3.835   2.275  1.8365 -1.2330 -0.9613
16503TIP3    H270925   1.483   3.820   2.125 -1.8675 -0.6414 -1.0172
16504TIP3   OH270926   4.438   5.587  12.504 -0.4525 -0.3866  0.0162
16504TIP3    H170927   4.395   5.533  12.570  0.0928  0.6360  1.2481
16504TIP3    H270928   4.500   5.528  12.461 -0.7220 -1.0384  0.5160
16505TIP3   OH270929   1.383   6.106  15.001  0.2557  0.2875  0.3765
16505TIP3    H170930   1.392   6.034  14.938 -1.3291 -0.0674  0.5220
16505TIP3    H270931   1.428   6.075  15.079 -0.2402 -0.4666  0.3669
16506TIP3   OH270932   3.541   1.200   0.530  0.0555 -0.2348  0.0657
16506TIP3    H170933   3.546   1.120   0.582  1.6741  0.2607  0.7236
16506TIP3    H270934   3.456   1.237   0.551 -0.9916 -2.1157 -0.7549
16507TIP3   OH270935   0.783   3.791  14.128 -0.0972  0.4574  0.2557
16507TIP3    H170936   0.689   3.809  14.124  0.0667  1.3291  0.3699
16507TIP3    H270937   0.789   3.709  14.178 -0.8274  0.0827 -0.2533
16508TIP3   OH270938   3.553   0.008   3.789 -0.5182 -0.1999  0.6998
16508TIP3    H170939   3.643   0.025   3.818 -0.2755 -2.3574  1.3044
16508TIP3    H270940   3.500   0.068   3.841  0.4716  0.2623  1.2049
16509TIP3   OH270941   2.693   3.164  12.664  0.1303 -1.0769 -0.3525
16509TIP3    H170942   2.700   3.169  12.759 -0.5462  1.7227 -0.4055
16509TIP3    H270943   2.784   3.167  12.633  0.3764 -2.4595  0.1930
16510TIP3   OH270944   5.761   6.024   6.215 -0.1868  0.0365  0.0112
16510TIP3    H170945   5.853   6.023   6.241 -0.5723  1.0170  1.4775
16510TIP3    H270946   5.740   6.117   6.207 -1.4063 -0.1421  1.0105
16511TIP3   OH270947   0.629   1.404  14.886 -0.0229  0.1770  0.1381
16511TIP3    H170948   0.535   1.385  14.894  0.4072 -2.0658  0.1770
16511TIP3    H270949   0.639   1.438  14.797 -0.8015  0.0851  0.0091
16512TIP3   OH270950   3.247   2.496   3.936 -0.0171 -0.2518  0.0133
16512TIP3    H170951   3.304   2.514   3.862 -1.1076  0.8743 -0.5828
16512TIP3    H270952   3.249   2.401   3.947  1.0989 -0.3091 -0.6854
16513TIP3   OH270953   6.642   5.285   0.919  0.2528  0.2995  0.3045
16513TIP3    H170954   6.612   5.195   0.905  0.9825 -0.1557  1.6066
16513TIP3    H270955   6.635   5.326   0.832  2.2729 -1.7390 -0.8853
16514TIP3   OH270956   5.397   2.784   0.873  0.2518 -0.2471 -0.0816
16514TIP3    H170957   5.473   2.726   0.874 -0.2331 -0.9401 -1.6339
16514TIP3    H270958   5.355   2.770   0.958  1.4032 -0.4632  0.4630
16515TIP3   OH270959   0.035   4.257  17.105  0.2278 -0.0995 -0.1724
16515TIP3    H170960   0.042   4.324  17.036  1.6148  0.5702  0.5816
16515TIP3    H270961   0.017   4.307  17.185  1.7130 -0.5609  0.4771
16516TIP3   OH270962   6.611   4.186   3.456  0.6812 -0.0153 -0.1408
16516TIP3    H170963   6.634   4.094   3.446  0.7216 -0.0013 -0.1726
16516TIP3    H270964   6.606   4.199   3.551  1.3027  0.1053 -0.1192
16517TIP3   OH270965   4.461   3.541   3.113  0.5611  0.3623  0.0330
16517TIP3    H170966   4.456   3.450   3.143 -0.5365  0.7381  1.0447
16517TIP3    H270967   4.381   3.553   3.062  0.5340  0.8563  0.1919
16518TIP3   OH270968   6.556   4.367   3.941 -0.4145 -0.1279  0.2220
16518TIP3    H170969   6.546   4.330   4.029 -1.7951  1.1311  0.6178
16518TIP3    H270970   6.526   4.457   3.950  1.2967  0.5856 -1.1189
16519TIP3   OH270971   6.308   0.501  12.098  0.1332 -0.2336 -0.0077
16519TIP3    H170972   6.331   0.556  12.022  1.0917  0.2011  0.5933
16519TIP3    H270973   6.272   0.421  12.059  1.0344 -0.2039 -0.9417
16520TIP3   OH270974   4.161   3.118   0.145  0.3294 -0.0067  0.1215
16520TIP3    H170975   4.107   3.196   0.158 -2.0834 -1.4019 -1.1049
16520TIP3    H270976   4.212   3.110   0.225 -0.3749  2.0709  0.8063
16521TIP3   OH270977   5.000   0.758  12.224  0.4662  0.6583 -0.0339
16521TIP3    H170978   5.052   0.835  12.202 -2.6026  2.4199 -1.4193
16521TIP3    H270979   5.013   0.699  12.150  0.2388  1.2229 -0.5268
16522TIP3   OH270980   1.468   3.702   5.791  0.5338  0.0820  0.2094
16522TIP3    H170981   1.439   3.734   5.705  2.4306  0.3037 -0.3738
16522TIP3    H270982   1.478   3.782   5.844 -0.6086 -0.0524  0.6412
16523TIP3   OH270983   1.688   3.154  16.070 -0.5136 -0.6516  0.1242
16523TIP3    H170984   1.605   3.108  16.081 -0.8829 -0.3746 -1.3282
16523TIP3    H270985   1.667   3.245  16.089 -0.5092 -0.6052 -0.0936
16524TIP3   OH270986   5.558   5.803   4.843  0.0041 -0.4550  0.2551
16524TIP3    H170987   5.601   5.732   4.891  0.6783 -0.1734  0.0843
16524TIP3    H270988   5.492   5.837   4.903 -0.3676 -1.2749  0.3104
16525TIP3   OH270989   3.582   2.464  15.108 -0.2327  0.1029 -0.6174
16525TIP3    H170990   3.637   2.400  15.065  0.3449 -0.2724  0.6604
16525TIP3    H270991   3.498   2.420  15.120  0.1208 -0.3757  0.1313
16526TIP3   OH270992   4.032   3.464  17.021  0.6003  0.2402  0.1220
16526TIP3    H170993   3.965   3.469  17.089  0.1188  0.8944 -0.4051
16526TIP3    H270994   4.077   3.381  17.039 -0.1883 -0.0856  0.6168
16527TIP3   OH270995   3.478   6.082   4.251  0.4034 -0.4336 -0.4102
16527TIP3    H170996   3.538   6.145   4.212 -0.5769  0.3831 -0.6051
16527TIP3    H270997   3.405   6.076   4.189  0.7874 -2.2504 -0.7242
16528TIP3   OH270998   1.220   0.277  15.155  0.0963 -0.8891  0.3277
16528TIP3    H170999   1.208   0.189  15.119 -2.4390 -0.0865 -0.8552
16528TIP3    H271000   1.195   0.269  15.247 -1.2452 -1.1685 -0.0506
16529TIP3   OH271001   5.900   0.467  14.392 -0.5795  0.1567 -0.0242
16529TIP3    H171002   5.863   0.552  14.414  0.5427  0.3699  1.1226
16529TIP3    H271003   5.863   0.407  14.457 -1.6779 -0.3177 -1.0721
16530TIP3   OH271004   0.850   1.100   1.771  0.5437  0.6504 -0.4077
16530TIP3    H171005   0.801   1.170   1.728 -0.6341  0.2878  0.3271
16530TIP3    H271006   0.790   1.066   1.837  1.0736 -1.1138 -0.8240
16531TIP3   OH271007   0.256   3.519   4.779 -0.0196 -0.0118 -0.7098
16531TIP3    H171008   0.340   3.475   4.795 -0.7301 -1.1202  0.0382
16531TIP3    H271009   0.280   3.608   4.755  1.3718 -0.2610 -0.2910
16532TIP3   OH271010   2.167   3.367   4.246 -0.1544 -0.5671  0.0097
16532TIP3    H171011   2.258   3.378   4.218 -0.0101 -1.9691 -0.1110
16532TIP3    H271012   2.150   3.442   4.303  0.6469  0.4455 -1.0622
16533TIP3   OH271013   6.429   5.589  12.291 -0.1556  0.4663  0.3781
16533TIP3    H171014   6.492   5.547  12.232  0.2459 -1.3086  2.0045
16533TIP3    H271015   6.481   5.654  12.338  0.0205  0.3882  0.2933
16534TIP3   OH271016   4.490   6.467   5.098  0.1304  0.5805 -0.4130
16534TIP3    H171017   4.457   6.426   5.178 -0.0984 -1.6733 -1.6304
16534TIP3    H271018   4.580   6.436   5.091  0.0556  0.5291 -1.1832
16535TIP3   OH271019   0.426   0.474   1.395  0.0969 -0.5271  0.4662
16535TIP3    H171020   0.439   0.380   1.381 -1.5353 -0.5187 -1.3432
16535TIP3    H271021   0.514   0.510   1.393  0.7147 -1.9659  0.7241
16536TIP3   OH271022   4.992   1.396  16.048 -0.3400 -0.0319  0.1588
16536TIP3    H171023   5.059   1.385  16.116 -0.1822 -1.2811 -0.1833
16536TIP3    H271024   4.995   1.314  15.998 -0.1480  1.0363 -1.6188
16537TIP3   OH271025   6.311   1.351  13.608  0.2344 -0.1315 -0.3188
16537TIP3    H171026   6.342   1.403  13.534  0.1839 -2.5191 -2.1061
16537TIP3    H271027   6.230   1.310  13.576  0.6683 -1.8820  0.7309
16538TIP3   OH271028   6.670   5.798  15.756 -0.3175  0.2669  0.5962
16538TIP3    H171029   6.594   5.806  15.698  0.1258 -0.1470 -0.0527
16538TIP3    H271030   6.682   5.886  15.792 -0.8307  0.4373  0.3489
16539TIP3   OH271031   1.819   6.666   5.940 -0.0362  0.3629 -0.2139
16539TIP3    H171032   1.768   6.726   5.994 -1.7374 -0.4088 -0.9147
16539TIP3    H271033   1.837   6.714   5.860 -1.1491  0.0550 -0.6571
16540TIP3   OH271034   0.092   4.755   2.300 -0.2223  0.5044 -0.3031
16540TIP3    H171035   0.079   4.689   2.368 -0.4659  0.9409  0.0768
16540TIP3    H271036   0.185   4.749   2.278  0.6538  2.5912  2.4198
16541TIP3   OH271037   2.435   2.832   5.071  0.1084 -0.3566  0.4827
16541TIP3    H171038   2.376   2.768   5.110  0.3592  0.4449  2.1980
16541TIP3    H271039   2.451   2.897   5.140  1.1414  0.6903 -0.6979
16542TIP3   OH271040   6.705   1.828   3.205  0.0600 -0.0716  0.3463
16542TIP3    H171041   6.618   1.814   3.167  0.8891 -0.6426 -1.3804
16542TIP3    H271042   6.728   1.745   3.246  0.4654 -0.4346 -0.6048
16543TIP3   OH271043   2.560   1.032  14.772 -0.3867  0.3708 -0.4707
16543TIP3    H171044   2.585   1.123  14.788 -1.6428  0.6110  0.1894
16543TIP3    H271045   2.601   1.010  14.689  0.6188  1.2724 -0.2291
16544TIP3   OH271046   5.423   1.348   0.221  0.2122  0.2988  0.0970
16544TIP3    H171047   5.346   1.353   0.164 -0.0949 -0.3534  0.4527
16544TIP3    H271048   5.478   1.421   0.192 -0.8680  1.2204  0.3240
16545TIP3   OH271049   2.574   5.606  11.483  0.5003 -0.3614  0.2473
16545TIP3    H171050   2.538   5.645  11.403  1.1252 -0.3613 -0.0375
16545TIP3    H271051   2.607   5.521  11.456 -0.7225 -1.0374  0.8409
16546TIP3   OH271052   2.418   0.448   2.778 -0.3994  0.6166 -0.5890
16546TIP3    H171053   2.476   0.437   2.702  1.3306 -0.7980  0.8630
16546TIP3    H271054   2.457   0.520   2.827  0.5795 -0.7704  0.7321
16547TIP3   OH271055   3.074   0.060  15.801  0.2609  0.5742  0.0158
16547TIP3    H171056   3.103   0.052  15.891 -1.2495  0.9367  0.5545
16547TIP3    H271057   3.115  -0.013  15.756 -2.2536 -2.1153  1.8997
16548TIP3   OH271058   5.069   2.476   2.541 -0.3200  0.1938 -0.1528
16548TIP3    H171059   5.052   2.426   2.461  0.0068  1.3964 -0.9871
16548TIP3    H271060   5.091   2.564   2.510 -1.1801  0.9332  1.3079
16549TIP3   OH271061   1.447   6.605  14.366 -1.4969  0.3811  0.3281
16549TIP3    H171062   1.504   6.534  14.396 -0.5918  1.6041  1.5661
16549TIP3    H271063   1.443   6.665  14.440 -0.9995  2.3808 -1.2286
16550TIP3   OH271064   0.006   0.594  13.714  0.5838 -0.1573  0.9391
16550TIP3    H171065   0.050   0.566  13.793  2.4183  0.2174  0.0794
16550TIP3    H271066  -0.029   0.514  13.675  0.0154 -0.3809  1.9124
16551TIP3   OH271067   1.638   5.248  13.408 -0.6207  0.3732  0.0480
16551TIP3    H171068   1.612   5.219  13.320 -0.4603  2.4778 -0.7277
16551TIP3    H271069   1.733   5.260  13.402 -0.7209  1.3567  0.2293
16552TIP3   OH271070   0.920   5.340  12.941 -0.1448 -0.0654  0.1184
16552TIP3    H171071   0.858   5.269  12.956 -0.7845  0.4430 -0.0771
16552TIP3    H271072   0.866   5.419  12.940  0.5059  0.3824 -0.0619
16553TIP3   OH271073   1.227   0.952  14.348  0.2934  0.2746 -0.1442
16553TIP3    H171074   1.198   1.035  14.310  0.1311 -0.4840 -1.7094
16553TIP3    H271075   1.161   0.932  14.415 -0.4829  0.6581 -0.7903
16554TIP3   OH271076   4.608   4.243  12.178  0.1153 -0.0892 -0.3691
16554TIP3    H171077   4.518   4.265  12.202 -0.6478 -0.5294 -2.6322
16554TIP3    H271078   4.640   4.321  12.132 -0.0360 -0.8743 -1.8492
16555TIP3   OH271079   2.523   5.559  15.808  0.2989 -0.5133 -0.4599
16555TIP3    H171080   2.438   5.527  15.837  0.3485 -0.3042 -0.0801
16555TIP3    H271081   2.504   5.635  15.754  0.2775 -0.0810  0.1533
16556TIP3   OH271082   5.938   3.743  16.961 -0.0246  0.3108  0.8236
16556TIP3    H171083   5.960   3.694  16.882 -1.7768 -0.8889  1.0578
16556TIP3    H271084   5.982   3.697  17.032  0.9573  0.9668  0.6457
16557TIP3   OH271085   2.061   0.968  13.141 -0.6686  0.1534 -0.3746
16557TIP3    H171086   1.966   0.966  13.144 -0.6906 -0.1239 -1.0658
16557TIP3    H271087   2.084   1.060  13.127 -0.8701  0.1136 -1.0071
16558TIP3   OH271088   4.197   1.571  14.224 -0.3236 -0.7720 -0.5321
16558TIP3    H171089   4.182   1.661  14.252 -1.3824 -0.4186 -2.1790
16558TIP3    H271090   4.110   1.534  14.215  0.0440 -1.3106 -1.9274
16559TIP3   OH271091   2.360   5.561  15.036  0.2458  0.4779 -0.4013
16559TIP3    H171092   2.305   5.638  15.027  0.7288  1.0739  1.4487
16559TIP3    H271093   2.349   5.513  14.954 -0.3578  2.3064 -1.4009
16560TIP3   OH271094   3.254   4.284   2.261 -0.2272  0.3673 -0.4647
16560TIP3    H171095   3.304   4.316   2.186  0.5992  0.5135  0.1448
16560TIP3    H271096   3.239   4.361   2.315  0.4372  0.0046  0.2448
16561TIP3   OH271097   6.212   6.547   0.763  0.6316  0.6115 -0.2130
16561TIP3    H171098   6.117   6.543   0.772  0.8126  0.8243  1.9217
16561TIP3    H271099   6.227   6.569   0.671 -1.3757  0.2958 -0.6167
16562TIP3   OH271100   1.933   3.860  11.301  0.6457 -0.4084  0.0668
16562TIP3    H171101   1.847   3.862  11.259  0.7380 -1.7491 -0.2084
16562TIP3    H271102   1.994   3.837  11.230  0.8300 -2.4845  0.8578
16563TIP3   OH271103   1.427   3.078  15.797 -0.2992 -0.3765 -0.2946
16563TIP3    H171104   1.389   3.149  15.849  3.0549 -0.7029  2.8106
16563TIP3    H271105   1.493   3.121  15.742  1.0030 -0.8635  0.8373
16564TIP3   OH271106   1.188   3.375   4.536  0.2104 -0.0786  0.2390
16564TIP3    H171107   1.107   3.332   4.566  0.3052 -0.5441 -0.1747
16564TIP3    H271108   1.199   3.345   4.446  1.1991 -0.5288  0.5087
16565TIP3   OH271109   3.039   1.452   3.763 -0.3875 -0.2956  0.2262
16565TIP3    H171110   3.091   1.459   3.844 -0.2242 -1.7155  0.2502
16565TIP3    H271111   3.073   1.523   3.707 -0.3503  0.5556  1.3092
16566TIP3   OH271112   3.805   6.498   1.062  0.4508 -0.7098 -0.0384
16566TIP3    H171113   3.884   6.508   1.009  1.4863 -2.2564  1.1755
16566TIP3    H271114   3.776   6.588   1.079  1.8160 -0.1408 -0.6553
16567TIP3   OH271115   3.889   2.430  12.646 -0.0695 -0.0139 -0.5028
16567TIP3    H171116   3.896   2.368  12.574  0.9018 -0.4073 -0.0812
16567TIP3    H271117   3.964   2.489  12.634  0.1260 -0.1113  0.2021
16568TIP3   OH271118   6.486   0.892  16.470  0.4291 -0.1264  0.3248
16568TIP3    H171119   6.522   0.959  16.412  2.3640  0.4070  2.0969
16568TIP3    H271120   6.428   0.841  16.413  1.3857  1.0648 -1.8084
16569TIP3   OH271121   0.762   4.047  15.660 -0.2588 -0.0705  0.0249
16569TIP3    H171122   0.765   4.124  15.716  2.1562 -0.4306  0.4280
16569TIP3    H271123   0.829   3.988  15.695 -0.0136 -1.1043 -2.0654
16570TIP3   OH271124   6.698   3.012  13.248  0.0578 -0.1721  0.3126
16570TIP3    H171125   6.760   3.069  13.202  0.7272 -2.4323 -1.6564
16570TIP3    H271126   6.626   3.070  13.272  1.6151  1.9106  0.1267
16571TIP3   OH271127   2.203   1.141  11.271  0.1435 -0.3442  0.2123
16571TIP3    H171128   2.230   1.165  11.360  0.6270 -2.6391  0.7171
16571TIP3    H271129   2.271   1.180  11.215  0.6199 -0.0883  0.9518
16572TIP3   OH271130   6.745   3.656   1.078  0.0655  0.3437  0.1016
16572TIP3    H171131   6.659   3.687   1.049 -0.2900 -1.0916 -0.4347
16572TIP3    H271132   6.796   3.648   0.998 -0.8797 -3.5208 -0.1821
16573TIP3   OH271133   0.551   3.736  16.707 -0.1634 -0.3488 -0.1426
16573TIP3    H171134   0.573   3.683  16.784 -2.3860 -0.7755  0.2405
16573TIP3    H271135   0.554   3.826  16.738  0.2884 -0.4393  0.0887
16574TIP3   OH271136   3.660   2.143  12.689  0.5372 -0.2236  0.6367
16574TIP3    H171137   3.640   2.189  12.608  0.4866  0.3121  0.9499
16574TIP3    H271138   3.713   2.068  12.662  1.3569  0.5022  0.2183
16575TIP3   OH271139   3.802   4.067  10.685 -0.2933  0.2440  0.0404
16575TIP3    H171140   3.843   3.982  10.702 -0.4567  0.1575 -0.0003
16575TIP3    H271141   3.714   4.059  10.722 -0.9539 -0.2386 -1.5816
16576TIP3   OH271142   1.184   0.694  13.362 -0.4465  0.5502 -0.6271
16576TIP3    H171143   1.147   0.608  13.385  0.9266 -0.0454 -0.6260
16576TIP3    H271144   1.154   0.752  13.433 -1.9716  0.2507 -0.9945
16577TIP3   OH271145   5.379   6.489  14.762 -0.0834 -0.3637  0.1569
16577TIP3    H171146   5.345   6.407  14.798  1.9618 -1.5039 -0.3771
16577TIP3    H271147   5.452   6.512  14.819 -0.9577  1.3757  0.5896
16578TIP3   OH271148   4.876   4.976   1.689 -0.5645  0.7710 -0.3494
16578TIP3    H171149   4.815   4.977   1.763 -0.8068  0.3956 -0.5429
16578TIP3    H271150   4.863   5.061   1.646 -1.1855  0.5545 -0.5838
16579TIP3   OH271151   2.910   3.449  11.519  0.3424  0.4834  0.2007
16579TIP3    H171152   2.942   3.444  11.428 -0.8745 -1.5535 -0.1431
16579TIP3    H271153   2.910   3.542  11.539  0.5515  0.9739 -1.9288
16580TIP3   OH271154   6.442   4.895  12.053 -0.1565  0.1689  0.0319
16580TIP3    H171155   6.401   4.811  12.071 -0.4709  0.4546  0.6730
16580TIP3    H271156   6.507   4.876  11.986  0.0297 -0.6536  0.4370
16581TIP3   OH271157   2.279   3.909   1.299  0.4624  0.5387  0.0755
16581TIP3    H171158   2.253   3.876   1.385  0.8030  1.0474  0.3741
16581TIP3    H271159   2.320   3.994   1.317 -0.1664  1.0020 -0.6654
16582TIP3   OH271160   5.292   3.896   3.329 -0.7673  0.5064 -0.0399
16582TIP3    H171161   5.327   3.897   3.418 -1.1175  0.0871  0.1042
16582TIP3    H271162   5.336   3.969   3.285  0.7392 -0.3853 -0.0321
16583TIP3   OH271163   3.889   0.200   1.952  0.3412  0.0181  0.1370
16583TIP3    H171164   3.864   0.257   1.879 -0.9710 -0.6566  0.0378
16583TIP3    H271165   3.981   0.220   1.968  0.2073  1.3227 -0.6578
16584TIP3   OH271166   0.919   4.078  13.271  0.2889  0.3193 -0.0361
16584TIP3    H171167   0.943   4.068  13.178 -0.3357  0.4298 -0.2114
16584TIP3    H271168   1.000   4.108  13.313  0.0604  2.2196 -0.8927
16585TIP3   OH271169   2.075   2.530   5.232 -0.1251 -0.4773 -0.1450
16585TIP3    H171170   2.008   2.485   5.182  1.1275 -0.0277 -2.2684
16585TIP3    H271171   2.098   2.468   5.302 -1.0346 -1.6122 -0.8355
16586TIP3   OH271172   5.805   3.438   3.960  0.3675 -0.4657 -0.4627
16586TIP3    H171173   5.814   3.343   3.951  0.9581 -0.3274 -1.3499
16586TIP3    H271174   5.731   3.461   3.904 -1.0140 -0.6447  1.2453
16587TIP3   OH271175   5.754   0.329   4.886 -0.0427 -0.0094 -0.1260
16587TIP3    H171176   5.709   0.257   4.930  0.6017 -0.4372 -0.1569
16587TIP3    H271177   5.847   0.318   4.909  0.2121  0.1675 -1.0213
16588TIP3   OH271178   0.498   5.383   5.263 -0.3380 -0.0637  0.5694
16588TIP3    H171179   0.531   5.436   5.191  0.0439  0.6630  1.2668
16588TIP3    H271180   0.574   5.335   5.294 -0.6435 -0.8712  0.0654
16589TIP3   OH271181   6.353   2.340  16.299 -0.0823 -0.0185  0.2086
16589TIP3    H171182   6.445   2.335  16.324 -0.1759  2.3530  1.2057
16589TIP3    H271183   6.310   2.378  16.376 -1.9930 -1.6089 -0.0360
16590TIP3   OH271184   1.195   6.393   4.836  0.1851 -0.3247  0.0957
16590TIP3    H171185   1.230   6.369   4.922  1.3041 -2.3519 -0.8709
16590TIP3    H271186   1.258   6.456   4.801  0.3319 -0.3523  0.3094
16591TIP3   OH271187   6.146   4.839  11.597 -0.3819 -0.2901  0.4860
16591TIP3    H171188   6.082   4.909  11.586 -1.3570 -1.0738  1.0729
16591TIP3    H271189   6.126   4.802  11.683  1.0339 -0.3715  0.7919
16592TIP3   OH271190   3.102   6.053  15.606  0.4317  0.3547  0.9311
16592TIP3    H171191   3.123   5.989  15.537  1.3542  1.0006  0.6016
16592TIP3    H271192   3.007   6.054  15.609  0.3893 -0.0732  0.0258
16593TIP3   OH271193   5.054   2.359  14.458  0.4769  0.2045 -0.0302
16593TIP3    H171194   5.098   2.320  14.534  1.0692 -1.1093 -1.0280
16593TIP3    H271195   5.119   2.419  14.422  1.1409 -1.0526 -0.9645
16594TIP3   OH271196   5.646   2.553  13.259  0.0250  0.3432  0.2892
16594TIP3    H171197   5.554   2.530  13.268 -0.0497  0.4078 -0.2438
16594TIP3    H271198   5.650   2.646  13.280  0.0882  0.1728  1.0290
16595TIP3   OH271199   2.688   1.145  16.668 -0.3190  0.3806  0.1376
16595TIP3    H171200   2.740   1.108  16.740  1.6071 -2.6736 -2.6579
16595TIP3    H271201   2.631   1.073  16.641  0.5029  0.7359 -2.7116
16596TIP3   OH271202   0.595   2.244  16.100  0.0762 -0.4687 -0.0086
16596TIP3    H171203   0.573   2.336  16.114 -1.0036 -0.7072 -0.0537
16596TIP3    H271204   0.512   2.198  16.116  0.2796 -1.3025 -1.3302
16597TIP3   OH271205   5.716   3.566  11.000 -0.0817  0.0915  0.1085
16597TIP3    H171206   5.714   3.561  10.904  2.5169 -0.0743  0.0374
16597TIP3    H271207   5.797   3.523  11.025  0.3674  2.0700  2.2485
16598TIP3   OH271208   4.465   4.942   4.640 -0.1717  0.3974  0.1491
16598TIP3    H171209   4.482   4.977   4.727 -1.7961  0.4581  0.4432
16598TIP3    H271210   4.440   5.019   4.588  0.1683  0.2635 -0.2191
16599TIP3   OH271211   5.894   2.745  13.259 -0.3812  0.0640 -0.5454
16599TIP3    H171212   5.869   2.800  13.334 -3.3137 -3.0102  0.8587
16599TIP3    H271213   5.833   2.769  13.190 -0.6032 -0.2920 -0.4708
16600TIP3   OH271214   1.088   0.167  16.776 -0.1771 -0.0224  0.1146
16600TIP3    H171215   1.144   0.233  16.736 -0.2420 -0.1764 -0.2318
16600TIP3    H271216   1.072   0.200  16.865  1.0469 -0.3320  0.4559
16601TIP3   OH271217   2.370   3.056   2.216 -0.1949  0.4032 -0.2282
16601TIP3    H171218   2.347   3.145   2.243  1.2756  0.0964  2.2661
16601TIP3    H271219   2.423   3.068   2.137 -2.2376  1.5425 -1.4735
16602TIP3   OH271220   4.196   6.645  17.112  0.3111 -0.4432  0.2838
16602TIP3    H171221   4.291   6.641  17.097  0.5048 -2.5345  1.8184
16602TIP3    H271222   4.182   6.729  17.156  1.1160  0.8831 -1.8889
16603TIP3   OH271223   4.296   1.335   2.789 -0.0613  0.0242 -0.0629
16603TIP3    H171224   4.353   1.286   2.849  0.8842 -0.5573 -1.3912
16603TIP3    H271225   4.334   1.423   2.787  0.3816 -0.1666 -0.3847
16604TIP3   OH271226   0.638   1.927   4.240 -0.1978 -0.2393 -0.0941
16604TIP3    H171227   0.570   1.973   4.289  0.0486  1.7859 -1.5614
16604TIP3    H271228   0.683   1.874   4.305 -2.3798 -0.6709  1.1253
16605TIP3   OH271229   4.008   4.620  12.757 -0.0332  0.2896  0.3036
16605TIP3    H171230   4.089   4.576  12.732  0.6645  1.8569 -0.2731
16605TIP3    H271231   3.940   4.575  12.706  0.8106  0.6007 -1.1446
16606TIP3   OH271232   3.917   1.377  14.869  0.3937  0.2252 -0.1838
16606TIP3    H171233   3.875   1.338  14.945  0.8797  0.3565  0.1551
16606TIP3    H271234   3.845   1.409  14.814 -0.0053 -1.1550 -0.4679
16607TIP3   OH271235   3.156   4.248   3.322  0.5713 -0.1699  0.2776
16607TIP3    H171236   3.186   4.261   3.232  0.6910 -0.4772  0.2721
16607TIP3    H271237   3.194   4.164   3.348  1.2832  0.3479  0.9207
16608TIP3   OH271238   2.574   3.919  15.979 -0.3944 -0.0330 -0.2037
16608TIP3    H171239   2.632   3.847  16.005  1.0501  0.7814 -1.0798
16608TIP3    H271240   2.486   3.881  15.980  0.3126 -1.7203 -0.3561
16609TIP3   OH271241   4.997   2.584   5.456 -0.0811 -0.0280 -0.1170
16609TIP3    H171242   4.917   2.626   5.487  1.4236  3.4985 -0.6943
16609TIP3    H271243   5.063   2.607   5.521  0.6621 -2.1680 -0.0865
16610TIP3   OH271244   6.485   6.442   0.782 -0.1908 -0.4040  0.3849
16610TIP3    H171245   6.528   6.459   0.699 -0.5648 -1.1837  0.0278
16610TIP3    H271246   6.398   6.482   0.774 -0.6677 -1.5005 -0.0515
16611TIP3   OH271247   2.677   0.026   1.693 -0.0837  0.5764 -0.0896
16611TIP3    H171248   2.750  -0.023   1.730 -1.4550 -0.2109  1.6454
16611TIP3    H271249   2.600  -0.006   1.740 -1.5551  1.4254 -1.8287
16612TIP3   OH271250   5.171   2.557   1.709  0.9803  0.3533  0.0600
16612TIP3    H171251   5.178   2.477   1.657 -0.4185  0.3135 -0.0914
16612TIP3    H271252   5.132   2.529   1.792  0.2810  0.9002 -0.0778
16613TIP3   OH271253   1.116   3.740   0.255 -0.1716  0.2910  0.1909
16613TIP3    H171254   1.173   3.680   0.207 -1.1332  0.2523 -0.9278
16613TIP3    H271255   1.061   3.779   0.187  1.2150  3.3186  0.6937
16614TIP3   OH271256   4.918   4.069  12.663 -0.5344 -0.3345  0.4521
16614TIP3    H171257   4.863   4.039  12.591  3.2437  0.8792 -3.1190
16614TIP3    H271258   4.889   4.158  12.680 -1.2724 -0.5367  0.2740
16615TIP3   OH271259   2.142   4.807  15.435  0.1028 -0.1042 -0.2875
16615TIP3    H171260   2.148   4.774  15.524 -2.2640 -2.5111 -0.9300
16615TIP3    H271261   2.181   4.738  15.381 -0.4128  0.3630 -1.2693
16616TIP3   OH271262   1.826   4.180   0.894  0.0531  0.2123 -0.3671
16616TIP3    H171263   1.739   4.219   0.886  1.0016  2.1503 -2.0108
16616TIP3    H271264   1.869   4.231   0.963  0.2079 -0.0676 -0.2566
16617TIP3   OH271265   1.363   3.241   3.483  0.4901  0.1809  0.7376
16617TIP3    H171266   1.448   3.225   3.442  0.2871 -1.1120  0.7923
16617TIP3    H271267   1.301   3.245   3.409  0.3937 -0.3296  0.7860
16618TIP3   OH271268   0.398   2.085  13.144 -1.0647 -0.4914 -0.5980
16618TIP3    H171269   0.460   2.028  13.189  0.5206  0.8853 -0.9694
16618TIP3    H271270   0.313   2.063  13.182 -0.3631 -2.4329 -0.0898
16619TIP3   OH271271   3.749   5.747  12.674  0.0516 -0.0011 -0.5900
16619TIP3    H171272   3.705   5.666  12.650 -2.4728  0.8537  0.9185
16619TIP3    H271273   3.759   5.741  12.769 -0.5480  1.6008 -0.4086
16620TIP3   OH271274   3.906   4.760   6.301  0.0178  0.1192  0.4720
16620TIP3    H171275   3.871   4.710   6.374  0.4074  0.1192  0.6583
16620TIP3    H271276   3.866   4.721   6.223  0.4887 -0.6337  0.5991
16621TIP3   OH271277   3.551   5.812   0.599  0.0730  0.3031 -0.5739
16621TIP3    H171278   3.495   5.775   0.668  2.9903  1.2526  2.4627
16621TIP3    H271279   3.629   5.843   0.646  0.7591  4.0202 -3.8905
16622TIP3   OH271280   6.426   3.711  16.409 -0.2654  0.4761  0.3625
16622TIP3    H171281   6.447   3.624  16.441 -0.1566 -0.3274 -1.8198
16622TIP3    H271282   6.478   3.720  16.329  0.5722  2.9646  1.1381
16623TIP3   OH271283   3.342   2.272   5.304  0.1925 -0.7465  0.1935
16623TIP3    H171284   3.437   2.286   5.312  0.1702  0.1662 -1.0156
16623TIP3    H271285   3.303   2.350   5.345 -0.0394 -0.9261  0.3154
16624TIP3   OH271286   3.879   5.479  15.429 -0.6715 -0.1035  0.4432
16624TIP3    H171287   3.951   5.514  15.376 -1.2142  0.7618  0.2650
16624TIP3    H271288   3.870   5.542  15.500 -1.2581 -0.2068  0.4590
16625TIP3   OH271289   0.681   2.287  16.907  0.4341 -0.0619  0.2404
16625TIP3    H171290   0.758   2.319  16.862  0.0993  0.2552 -0.1015
16625TIP3    H271291   0.613   2.282  16.840  0.4930 -1.5314  0.2618
16626TIP3   OH271292   4.330   5.312  13.983  0.5422 -0.7905  0.3979
16626TIP3    H171293   4.251   5.349  14.022 -0.0453 -2.0465  0.4275
16626TIP3    H271294   4.386   5.388  13.966 -1.8257  0.4610 -2.2950
16627TIP3   OH271295   1.740   3.917  13.562 -0.0069  0.6662 -0.5323
16627TIP3    H171296   1.656   3.953  13.591  0.2458  2.0569 -1.5299
16627TIP3    H271297   1.751   3.838  13.615 -1.0578  1.4724  0.9268
16628TIP3   OH271298   4.883   3.053  13.614 -0.2366 -0.2935  0.7384
16628TIP3    H171299   4.888   3.080  13.705 -0.8477 -0.5601  0.8570
16628TIP3    H271300   4.970   3.018  13.594 -0.1572 -0.3987  1.2708
16629TIP3   OH271301   3.465   0.971   2.820 -0.3642 -0.0239 -0.2769
16629TIP3    H171302   3.443   0.879   2.838  2.1043 -0.1147  2.5381
16629TIP3    H271303   3.451   1.016   2.903  2.1013  1.4041 -0.5922
16630TIP3   OH271304   4.126   6.748   3.380 -0.5419  0.1996  0.0802
16630TIP3    H171305   4.197   6.684   3.375 -1.1002 -0.5698  1.7431
16630TIP3    H271306   4.154   6.819   3.322  1.6235 -0.0452  0.7837
16631TIP3   OH271307   6.426   1.552  10.643 -0.0610  0.1283 -0.1433
16631TIP3    H171308   6.359   1.526  10.706  0.1388 -0.2922 -0.1023
16631TIP3    H271309   6.388   1.627  10.597  0.7073  1.9049  2.0411
16632TIP3   OH271310   1.507   0.431  11.020 -0.0758  0.6065 -0.0056
16632TIP3    H171311   1.549   0.516  11.010  0.6129  0.4201  1.2177
16632TIP3    H271312   1.580   0.368  11.013 -0.4649  0.1617 -0.0782
16633TIP3   OH271313   3.212   5.626  12.443  0.1906 -0.2826  0.1776
16633TIP3    H171314   3.284   5.681  12.474  0.6855  0.0261 -1.4658
16633TIP3    H271315   3.238   5.537  12.466 -0.0805  0.0563  1.8368
16634TIP3   OH271316   4.839   2.907  14.088 -0.2522  0.1732 -0.0781
16634TIP3    H171317   4.905   2.868  14.146  0.5378  2.8405  0.9016
16634TIP3    H271318   4.840   3.000  14.110 -0.9499  1.0391 -3.4139
16635TIP3   OH271319   1.614   0.602  17.137 -0.1753  0.2635  0.3310
16635TIP3    H171320   1.683   0.595  17.203  0.1253  1.0527  0.1004
16635TIP3    H271321   1.547   0.541  17.167  1.1651 -1.4782 -0.1045
16636TIP3   OH271322   3.217   3.764  14.293 -0.6590 -0.0100  0.1146
16636TIP3    H171323   3.263   3.705  14.233 -0.1644  0.7538 -0.2705
16636TIP3    H271324   3.227   3.724  14.379  1.9526  0.8700  0.2407
16637TIP3   OH271325   5.759   4.842   0.167  0.0973  0.1353 -0.1177
16637TIP3    H171326   5.811   4.921   0.156 -0.5514  0.4493 -0.9708
16637TIP3    H271327   5.683   4.854   0.109 -0.4450 -0.7235  0.3977
16638TIP3   OH271328   2.879   2.972   6.010  0.6072  0.0639  1.0393
16638TIP3    H171329   2.838   3.042   6.062  0.4720  1.1019 -0.4449
16638TIP3    H271330   2.916   2.913   6.076 -0.8984  0.5316  2.3596
16639TIP3   OH271331   5.250   1.201  16.256  0.6499  0.6915  0.3804
16639TIP3    H171332   5.215   1.286  16.283  0.9878  0.7888  0.5106
16639TIP3    H271333   5.292   1.218  16.172 -0.8003  0.2953 -0.4457
16640TIP3   OH271334   1.157   3.898  14.187  0.4851 -0.4804  0.1154
16640TIP3    H171335   1.190   3.846  14.261  1.0771  0.3225  0.4236
16640TIP3    H271336   1.229   3.957  14.166 -0.4695  0.7430  0.2737
16641TIP3   OH271337   4.122   1.506  15.582 -1.2180  0.2594  0.7008
16641TIP3    H171338   4.174   1.438  15.624 -1.0402  0.5595  0.9613
16641TIP3    H271339   4.171   1.528  15.503 -1.2767  0.0870  0.6144
16642TIP3   OH271340   2.293   5.052   3.150  0.1854 -0.7194 -0.3219
16642TIP3    H171341   2.255   4.969   3.177  2.3120 -1.7457 -0.3826
16642TIP3    H271342   2.311   5.043   3.057  0.8426 -0.3775 -0.2395
16643TIP3   OH271343   2.777   5.755  10.802 -0.0027  0.3055  0.2114
16643TIP3    H171344   2.861   5.787  10.769  0.3311 -0.5324  0.2217
16643TIP3    H271345   2.711   5.803  10.752  0.4830  1.2533  0.4827
16644TIP3   OH271346   0.226   5.053  15.805 -0.2451  0.0443 -0.3483
16644TIP3    H171347   0.321   5.052  15.808 -0.1828  0.0936 -1.6902
16644TIP3    H271348   0.200   5.121  15.866  0.4659 -1.7899  2.0639
16645TIP3   OH271349   0.350   3.395  16.336 -0.1350  0.3534  0.3952
16645TIP3    H171350   0.393   3.309  16.331  0.4893  0.5902  1.6345
16645TIP3    H271351   0.336   3.419  16.244  0.1288 -0.8460  0.0226
16646TIP3   OH271352   0.366   6.239   2.222  0.0087  0.1773 -0.4284
16646TIP3    H171353   0.304   6.312   2.219 -2.0244 -1.4492  0.9476
16646TIP3    H271354   0.394   6.235   2.314  2.1581  0.8492 -1.0135
16647TIP3   OH271355   1.539   4.683  11.041  0.1219  0.7086  0.2642
16647TIP3    H171356   1.530   4.607  10.985 -0.9384  0.8823  0.1937
16647TIP3    H271357   1.614   4.731  11.005 -1.6111  1.7395 -2.0969
16648TIP3   OH271358   4.293   2.986   0.710 -0.0280  0.1606  0.1522
16648TIP3    H171359   4.308   2.968   0.803  1.9604  2.0715  0.2546
16648TIP3    H271360   4.202   2.963   0.695 -0.4528  0.1061  2.6706
16649TIP3   OH271361   1.906   4.552  10.557  0.2967  0.0108 -0.2623
16649TIP3    H171362   1.874   4.586  10.473  1.3100  0.6499 -0.3997
16649TIP3    H271363   1.855   4.599  10.623 -0.9952 -1.0035 -0.5360
16650TIP3   OH271364   4.524   0.016  12.518 -0.4895 -0.3930 -0.2934
16650TIP3    H171365   4.521   0.034  12.612  0.8288 -0.3084 -0.2485
16650TIP3    H271366   4.614  -0.011  12.502 -0.9405 -1.2876 -1.3861
16651TIP3   OH271367   4.559   1.761  12.968  0.5723  0.3267  0.1236
16651TIP3    H171368   4.522   1.821  12.903  0.5691  1.4494  1.1404
16651TIP3    H271369   4.632   1.718  12.923  1.2783  1.9125 -0.2991
16652TIP3   OH271370   2.130   4.664   2.155  0.7190  0.1810  0.0582
16652TIP3    H171371   2.134   4.725   2.229  1.2628 -0.3297  0.4508
16652TIP3    H271372   2.108   4.720   2.080 -0.0482  0.6653  0.6380
16653TIP3   OH271373   1.428   1.512   3.291 -0.0534 -0.6739  0.3287
16653TIP3    H171374   1.410   1.514   3.197  3.1650  2.9921 -0.3371
16653TIP3    H271375   1.388   1.592   3.325  0.5973 -0.9041  1.6812
16654TIP3   OH271376   4.346   0.502  15.411 -0.1768 -0.2693  0.1474
16654TIP3    H171377   4.342   0.598  15.408 -1.1699 -0.3533 -1.1196
16654TIP3    H271378   4.275   0.477  15.470  1.1558 -0.1580  1.8479
16655TIP3   OH271379   4.412   5.076  13.893 -0.6472 -0.3666  0.4710
16655TIP3    H171380   4.386   5.159  13.932 -1.2203  0.1341 -0.9495
16655TIP3    H271381   4.372   5.010  13.950  0.2323  0.3001  1.8922
16656TIP3   OH271382   1.292   3.054  13.638  0.6412 -0.1233 -0.3585
16656TIP3    H171383   1.278   3.124  13.702  0.5663 -1.0752  0.6784
16656TIP3    H271384   1.228   3.071  13.569  0.4430  0.6742  0.0183
16657TIP3   OH271385   4.194   4.409  11.675  0.4719 -0.5763  0.2482
16657TIP3    H171386   4.098   4.405  11.679  0.3286  0.9545 -0.9376
16657TIP3    H271387   4.216   4.360  11.596  0.4980  0.7917 -0.6105
16658TIP3   OH271388   4.572   2.368  15.178 -0.0485 -0.0207 -0.3274
16658TIP3    H171389   4.649   2.383  15.123 -1.1499  0.9438 -1.6345
16658TIP3    H271390   4.606   2.320  15.254  1.5609 -1.0451 -1.6541
16659TIP3   OH271391   0.117   2.346  11.682 -0.4846 -0.3157 -0.1189
16659TIP3    H171392   0.055   2.364  11.753 -2.4200 -0.4241 -1.7360
16659TIP3    H271393   0.089   2.404  11.611  0.7647 -0.9785 -1.1696
16660TIP3   OH271394   4.982   5.203   5.256 -1.1421 -0.8012  0.5435
16660TIP3    H171395   5.045   5.275   5.268 -0.9143 -0.8216 -0.4775
16660TIP3    H271396   4.977   5.162   5.342 -0.0079 -0.5908  0.7296
16661TIP3   OH271397   4.431   3.757  14.247 -0.7286 -0.1515 -0.3348
16661TIP3    H171398   4.355   3.814  14.244 -2.2367 -2.1166 -0.6235
16661TIP3    H271399   4.465   3.757  14.157 -1.2296 -0.3654 -0.5264
16662TIP3   OH271400   1.645   6.304   5.520 -0.1245  0.3326 -0.0787
16662TIP3    H171401   1.617   6.363   5.589  0.1200 -1.2327  1.4115
16662TIP3    H271402   1.738   6.288   5.538 -0.3025 -0.8819 -0.1335
16663TIP3   OH271403   2.004   3.382  11.055  0.1307  0.8201  0.1294
16663TIP3    H171404   2.042   3.414  10.972 -0.8922 -0.0497 -0.6812
16663TIP3    H271405   2.041   3.295  11.066 -2.3662 -0.4470 -1.1835
16664TIP3   OH271406   4.390   1.627   0.833 -0.2398 -0.1955  0.0906
16664TIP3    H171407   4.453   1.692   0.802 -0.3033 -0.4340 -0.5475
16664TIP3    H271408   4.442   1.569   0.889  0.3338 -0.9948 -1.2641
16665TIP3   OH271409   5.124   2.971   2.969 -0.4436  0.1624  0.0451
16665TIP3    H171410   5.101   3.063   2.971 -2.3985 -0.3155  1.1259
16665TIP3    H271411   5.063   2.932   2.906  2.1673  0.0373 -2.4940
16666TIP3   OH271412   0.079   0.632   1.212 -0.4592  0.0712  0.3577
16666TIP3    H171413   0.146   0.597   1.153  0.8564  2.5865  0.2951
16666TIP3    H271414   0.102   0.597   1.298  0.6271  0.4699  0.2390
16667TIP3   OH271415   3.949   2.355   3.022 -0.1777  0.1985  0.2429
16667TIP3    H171416   4.002   2.366   2.943 -2.3821  2.0010 -1.0501
16667TIP3    H271417   3.866   2.397   3.001 -1.5288 -1.0651  2.8253
16668TIP3   OH271418   2.314   0.843   0.856  0.2279 -0.3957  1.1010
16668TIP3    H171419   2.258   0.914   0.889 -0.3527  0.3684 -1.4552
16668TIP3    H271420   2.364   0.882   0.785  0.0916 -2.4550 -0.1780
16669TIP3   OH271421   3.073   0.383  17.056  0.3852 -0.2864  0.0365
16669TIP3    H171422   3.142   0.448  17.061  0.8185 -0.7669  0.3388
16669TIP3    H271423   3.007   0.414  17.118  0.4729  0.0012 -0.0137
16670TIP3   OH271424   1.342   6.274   3.193 -0.7891 -0.1776  0.5069
16670TIP3    H171425   1.252   6.293   3.167 -0.6761 -0.8718 -0.3739
16670TIP3    H271426   1.385   6.360   3.193 -0.8930 -0.1206 -1.1867
16671TIP3   OH271427   6.708   3.392   1.268  0.0144  0.4011  0.6627
16671TIP3    H171428   6.776   3.325   1.259  0.7132  1.1682  0.2137
16671TIP3    H271429   6.632   3.356   1.222 -0.5666 -1.3697  2.9021
16672TIP3   OH271430   4.311   2.785  15.962  0.0134  0.2268  0.0407
16672TIP3    H171431   4.258   2.814  16.036 -0.0140 -0.2890  0.2287
16672TIP3    H271432   4.250   2.738  15.906 -0.1267  1.3081 -0.7025
16673TIP3   OH271433   4.789   0.788   2.502 -0.5321 -0.8772 -0.7317
16673TIP3    H171434   4.822   0.699   2.510  0.7497 -0.3980 -0.4727
16673TIP3    H271435   4.867   0.840   2.484 -1.0873  0.3639  0.3637
16674TIP3   OH271436   2.841   1.732   0.070 -0.3835 -0.5272  0.3061
16674TIP3    H171437   2.880   1.816   0.092 -0.1623 -0.5537  0.0126
16674TIP3    H271438   2.764   1.754   0.018 -1.1492 -0.4462  1.4615
16675TIP3   OH271439   5.757   2.017  15.106 -0.2331 -0.0903  0.2965
16675TIP3    H171440   5.782   2.047  15.193  1.1895  0.7337 -0.3708
16675TIP3    H271441   5.723   2.095  15.062 -1.6124 -0.6497  0.3258
16676TIP3   OH271442   4.503   2.076  16.127 -0.1552  0.0843 -0.1153
16676TIP3    H171443   4.453   2.091  16.047  0.4143 -0.0873 -0.5102
16676TIP3    H271444   4.536   1.986  16.118  1.9875  0.8983 -0.8660
16677TIP3   OH271445   5.404   2.365  10.948  0.1890  0.1093 -0.0183
16677TIP3    H171446   5.328   2.350  10.892  0.0048 -0.5461  0.3993
16677TIP3    H271447   5.469   2.301  10.917 -0.1650 -0.7501  0.9697
16678TIP3   OH271448   5.663   4.559   3.591 -0.1527 -0.4185  0.7025
16678TIP3    H171449   5.682   4.474   3.630  1.1132  0.2495  1.5742
16678TIP3    H271450   5.746   4.587   3.552 -0.3737  0.7165  1.0178
16679TIP3   OH271451   4.784   6.342   0.366 -0.0041  0.2494 -0.0424
16679TIP3    H171452   4.786   6.288   0.445 -0.2991  1.0029  0.4811
16679TIP3    H271453   4.703   6.392   0.372  0.1858  0.6363 -0.6078
16680TIP3   OH271454   4.319   5.648   4.426 -0.4373 -0.4254  0.4526
16680TIP3    H171455   4.376   5.583   4.384 -2.0032 -1.0743 -0.6897
16680TIP3    H271456   4.249   5.597   4.466  0.2918  0.2939  2.7218
16681TIP3   OH271457   4.500   1.767   4.163  0.1804  0.2438 -0.5887
16681TIP3    H171458   4.571   1.718   4.121  0.6428  0.4717 -0.0843
16681TIP3    H271459   4.510   1.856   4.131 -0.1369  0.1891 -0.8405
16682TIP3   OH271460   5.271   6.436  16.685 -0.4029  0.4683  0.5640
16682TIP3    H171461   5.272   6.441  16.781  0.4302  0.6829  0.5451
16682TIP3    H271462   5.305   6.520  16.656 -0.4710  0.3294  0.0749
16683TIP3   OH271463   2.347   0.497  11.856 -0.3422 -0.3249  0.1569
16683TIP3    H171464   2.398   0.511  11.936 -0.9400  1.0729  0.3079
16683TIP3    H271465   2.257   0.513  11.882 -0.7662 -1.9165 -0.3206
16684TIP3   OH271466   3.034   2.080   4.651  0.8503 -0.0035  0.3276
16684TIP3    H171467   2.973   2.022   4.696  0.4457  1.1818  1.3265
16684TIP3    H271468   2.979   2.137   4.598  1.3059 -1.1763 -1.4519
16685TIP3   OH271469   4.723   2.878  12.960 -0.5743  0.0020 -0.3619
16685TIP3    H171470   4.630   2.863  12.943 -0.7037  1.4669 -1.0217
16685TIP3    H271471   4.725   2.946  13.027  0.0115  0.2200 -0.5951
16686TIP3   OH271472   4.646   2.069  12.519 -0.3846  0.1681 -0.0671
16686TIP3    H171473   4.592   2.103  12.591 -1.3348 -0.6084 -0.4007
16686TIP3    H271474   4.606   2.105  12.440  0.2029  0.4027 -0.2606
16687TIP3   OH271475   1.396   1.518   0.145 -0.0982 -0.4815  0.5332
16687TIP3    H171476   1.336   1.557   0.209  0.9085  0.4438  0.9247
16687TIP3    H271477   1.369   1.554   0.061 -1.0732 -1.2733  0.4913
16688TIP3   OH271478   0.201   1.458  15.407  0.2346 -0.2702  0.1687
16688TIP3    H171479   0.109   1.430  15.409  0.2294 -0.2300  0.4878
16688TIP3    H271480   0.202   1.540  15.456  0.2984  0.1547 -0.5298
16689TIP3   OH271481   4.794   2.319  16.162  0.0033  0.2261 -0.2194
16689TIP3    H171482   4.813   2.227  16.179  0.9520  0.6662  1.2097
16689TIP3    H271483   4.847   2.367  16.226 -1.9554  1.6958  0.3568
16690TIP3   OH271484   6.705   2.383  10.426 -1.1085 -0.4952  0.3951
16690TIP3    H171485   6.787   2.431  10.422 -0.6500 -1.2127  0.9244
16690TIP3    H271486   6.651   2.432  10.488 -0.9465 -0.2170  0.3149
16691TIP3   OH271487   0.465   1.668   2.486  0.6107 -0.2792  0.2104
16691TIP3    H171488   0.523   1.598   2.457  0.4343  0.4308 -1.9144
16691TIP3    H271489   0.513   1.748   2.468 -0.1597  0.2380  0.4434
16692TIP3   OH271490   6.259   3.259   5.153 -0.3809 -0.2994 -0.4030
16692TIP3    H171491   6.258   3.182   5.096 -0.0758 -1.0911  0.6690
16692TIP3    H271492   6.248   3.333   5.092 -2.1264 -1.2611 -1.2951
16693TIP3   OH271493   2.075   2.068  11.516  0.1762 -0.1424 -0.1686
16693TIP3    H171494   2.166   2.092  11.499  1.5492 -2.5625  3.2883
16693TIP3    H271495   2.046   2.133  11.581 -0.4891  0.4212 -1.0195
16694TIP3   OH271496   4.204   1.824  13.629  0.7344 -0.0205 -0.3031
16694TIP3    H171497   4.183   1.851  13.539 -1.2766  0.1097  0.1686
16694TIP3    H271498   4.174   1.897  13.683 -0.6219 -1.2522  0.6492
16695TIP3   OH271499   0.685   6.260   2.834  0.3040 -0.6004 -0.1136
16695TIP3    H171500   0.640   6.315   2.899  0.6452 -1.4968  0.8914
16695TIP3    H271501   0.616   6.234   2.774 -0.3231 -1.0441  0.7815
16696TIP3   OH271502   2.485   4.747  11.239  0.2694  0.3175 -0.1609
16696TIP3    H171503   2.402   4.738  11.285  0.7682 -1.0586  0.4876
16696TIP3    H271504   2.470   4.707  11.153  0.1788  0.3228 -0.1469
16697TIP3   OH271505   0.366   5.514  13.391  0.7735  0.0345 -0.2376
16697TIP3    H171506   0.273   5.496  13.399  0.7138  0.9774  1.1652
16697TIP3    H271507   0.372   5.609  13.383  1.4030 -0.2057 -3.5438
16698TIP3   OH271508   2.199   0.648   1.456 -0.5714 -0.6513  0.3335
16698TIP3    H171509   2.253   0.622   1.382 -0.7697  0.3100 -0.1558
16698TIP3    H271510   2.111   0.617   1.434 -0.8596  0.6276 -0.3678
16699TIP3   OH271511   2.327   0.964   0.357 -0.3486  0.5556 -0.3023
16699TIP3    H171512   2.279   1.022   0.297 -1.8391  0.9982  1.2801
16699TIP3    H271513   2.259   0.926   0.412  0.8435 -1.1205  0.0340
16700TIP3   OH271514   1.557   1.108   4.055  0.5601  0.3120  0.4172
16700TIP3    H171515   1.638   1.092   4.104  1.4631  1.1822 -0.7516
16700TIP3    H271516   1.567   1.198   4.023 -0.4541  0.0796 -0.5402
16701TIP3   OH271517   5.064   1.290   2.309 -0.2416 -0.2788 -0.1251
16701TIP3    H171518   5.120   1.363   2.282 -0.8591  0.5059  0.6553
16701TIP3    H271519   5.087   1.276   2.401 -1.4561  0.1841  0.2584
16702TIP3   OH271520   4.541   4.771  12.154 -0.3996  0.2671  0.0476
16702TIP3    H171521   4.467   4.830  12.139 -0.6149  0.0923  0.4107
16702TIP3    H271522   4.615   4.828  12.173 -0.9325  0.3723  1.8398
16703TIP3   OH271523   2.978   4.459  13.615  0.2022  0.2189 -0.4146
16703TIP3    H171524   2.981   4.464  13.519 -2.1704  1.0412 -0.4826
16703TIP3    H271525   2.941   4.372  13.633 -0.0761  0.3692 -0.2609
16704TIP3   OH271526   3.159   2.587   1.782 -0.3745  0.2898  0.1271
16704TIP3    H171527   3.223   2.655   1.762  0.1153  0.2235  1.4421
16704TIP3    H271528   3.083   2.634   1.816 -0.4774  0.2524 -0.0453
16705TIP3   OH271529   3.459   2.204   0.807  0.3780 -0.3483 -0.2224
16705TIP3    H171530   3.524   2.272   0.823 -0.0677  0.7882 -3.0122
16705TIP3    H271531   3.480   2.171   0.719 -1.6278 -1.2760 -0.3838
16706TIP3   OH271532   5.859   4.367   1.857 -0.5648  0.6456  0.0767
16706TIP3    H171533   5.870   4.297   1.921 -1.2529  1.3752  0.9990
16706TIP3    H271534   5.850   4.322   1.773 -0.2099 -0.3347  0.5629
16707TIP3   OH271535   6.582   3.046  11.861 -0.7828  0.2839  0.5177
16707TIP3    H171536   6.520   3.108  11.898 -1.7047 -1.4274  1.9046
16707TIP3    H271537   6.656   3.047  11.921 -0.0660  1.2708 -0.3680
16708TIP3   OH271538   6.438   2.817  14.969 -0.3226  0.0720 -0.1875
16708TIP3    H171539   6.397   2.903  14.974 -1.0417 -0.3577  1.2359
16708TIP3    H271540   6.425   2.778  15.055 -0.2130 -1.5663 -0.8924
16709TIP3   OH271541   0.195   4.123  16.547 -0.6623 -0.0945 -0.4711
16709TIP3    H171542   0.126   4.173  16.503 -1.2067 -0.1821  0.2661
16709TIP3    H271543   0.275   4.148  16.502 -1.0901  0.5151 -0.9079
16710TIP3   OH271544   3.680   1.518  15.993 -0.2764  0.2376  1.0096
16710TIP3    H171545   3.614   1.577  15.957  0.1444  0.1844  0.1147
16710TIP3    H271546   3.631   1.440  16.020 -0.3801 -0.6427 -1.4985
16711TIP3   OH271547   0.166   2.667  12.751 -0.2782 -0.1756  0.3032
16711TIP3    H171548   0.101   2.606  12.717  0.5978  0.6703 -2.9821
16711TIP3    H271549   0.249   2.620  12.746 -0.0382  0.1913  0.7198
16712TIP3   OH271550   3.831   4.823   5.276 -0.2277 -0.2808 -0.7692
16712TIP3    H171551   3.918   4.823   5.237 -0.5811  1.0098 -1.5684
16712TIP3    H271552   3.846   4.852   5.366  0.2829 -0.9768 -0.6239
16713TIP3   OH271553   3.192   2.144   0.876 -0.5091 -0.0683  0.0791
16713TIP3    H171554   3.278   2.178   0.850  0.5183 -1.0078  2.1681
16713TIP3    H271555   3.206   2.104   0.962 -2.7110 -1.5904 -0.2162
16714TIP3   OH271556   0.686   1.762   4.930  0.0141  0.1428  0.0558
16714TIP3    H171557   0.666   1.804   4.847 -0.0126  0.1803  0.0815
16714TIP3    H271558   0.620   1.795   4.991  1.6627  2.2555  0.7778
16715TIP3   OH271559   2.160   5.109  12.967  0.2649  0.1304 -0.3340
16715TIP3    H171560   2.206   5.026  12.981  1.8102  1.0644  0.3296
16715TIP3    H271561   2.172   5.128  12.874  0.1312 -0.2623 -0.4309
16716TIP3   OH271562   0.387   6.787  12.239  0.4455 -0.1585 -0.5156
16716TIP3    H171563   0.314   6.724  12.236  0.0509  0.2111  1.0206
16716TIP3    H271564   0.350   6.864  12.281  1.7773 -0.0200  0.4059
16717TIP3   OH271565   1.289   2.401  14.964  0.0611  0.4771  0.3382
16717TIP3    H171566   1.282   2.444  15.049 -0.2200  0.9499  0.0784
16717TIP3    H271567   1.214   2.342  14.960  0.2467  0.2268  0.5460
16718TIP3   OH271568   1.977   2.027  14.305 -0.0347  0.0343 -0.3771
16718TIP3    H171569   2.011   2.115  14.291 -0.8036  0.3179 -0.4320
16718TIP3    H271570   1.900   2.021  14.250 -1.1875  0.0509  1.2021
16719TIP3   OH271571   3.036   1.004   0.757 -0.3573  0.1784 -0.0644
16719TIP3    H171572   3.091   1.055   0.817 -0.4183  0.9888 -0.7050
16719TIP3    H271573   3.030   1.057   0.678 -0.6900 -0.6687 -0.6169
16720TIP3   OH271574   1.792   4.733   1.935  0.7843  0.1888  0.6468
16720TIP3    H171575   1.864   4.793   1.953 -0.0936  1.5405 -0.3035
16720TIP3    H271576   1.757   4.711   2.022  0.8225  1.3974  0.9716
16721TIP3   OH271577   1.819   1.322   3.449 -0.5700  0.3542  0.4216
16721TIP3    H171578   1.897   1.323   3.504 -1.3173 -0.5793  1.5373
16721TIP3    H271579   1.754   1.371   3.500 -1.3535 -0.7774  0.5170
16722TIP3   OH271580   2.844   0.755  11.175 -0.0695 -0.4882  0.1505
16722TIP3    H171581   2.895   0.749  11.255 -1.8793 -0.8276  1.3146
16722TIP3    H271582   2.875   0.683  11.121  1.4944  0.0323  0.3367
16723TIP3   OH271583   5.869   0.919   2.511 -0.1115  0.0648 -0.1838
16723TIP3    H171584   5.815   0.849   2.473  0.4363 -0.9745  0.8941
16723TIP3    H271585   5.818   0.949   2.587 -0.2451  0.6896 -0.5228
16724TIP3   OH271586   0.126   0.415  17.065 -0.3535 -0.4069 -0.3918
16724TIP3    H171587   0.114   0.448  17.155 -0.3108  0.3794 -0.6699
16724TIP3    H271588   0.213   0.377  17.065 -0.4504 -0.6408 -0.0305
16725TIP3   OH271589   3.571   5.406   2.629 -0.5822  0.3789 -0.4288
16725TIP3    H171590   3.544   5.403   2.537 -1.0611  1.6324 -0.3282
16725TIP3    H271591   3.493   5.435   2.676 -1.1927 -2.8485  0.7334
16726TIP3   OH271592   2.008   4.937   1.652  0.2807 -0.2429 -0.1092
16726TIP3    H171593   1.950   5.003   1.615 -1.1312 -0.1694  2.1193
16726TIP3    H271594   2.033   4.882   1.577 -0.9835  0.9694 -1.4559
16727TIP3   OH271595   4.048   0.311  13.665  0.2284 -1.0075 -0.5148
16727TIP3    H171596   3.966   0.358  13.652 -0.7752 -2.9167 -1.2179
16727TIP3    H271597   4.107   0.376  13.702 -1.2060  0.7306 -1.2191
16728TIP3   OH271598   5.613   3.433  13.967 -0.2350  0.5323 -0.4480
16728TIP3    H171599   5.534   3.393  14.003  0.4025  0.2626  0.6719
16728TIP3    H271600   5.607   3.525  13.993 -0.1947  0.5203 -0.3969
16729TIP3   OH271601   4.593   5.025   5.916  0.1628  0.3367  0.6530
16729TIP3    H171602   4.548   5.074   5.985  1.0466  1.6084  0.3431
16729TIP3    H271603   4.672   4.991   5.958  0.6017  0.9431  0.3203
16730TIP3   OH271604   1.282   0.116  16.553  0.4509 -0.2756 -0.0666
16730TIP3    H171605   1.276   0.087  16.644  0.2427  0.2465  0.0908
16730TIP3    H271606   1.212   0.069  16.508 -0.8965  1.1197  0.5029
16731TIP3   OH271607   0.750   6.104  11.831  0.1947  0.4330 -0.2555
16731TIP3    H171608   0.718   6.094  11.741 -0.8766  0.9660  0.0579
16731TIP3    H271609   0.671   6.099  11.885  0.8994 -0.5331  0.7094
16732TIP3   OH271610   0.049   0.507  16.822 -0.2483 -0.7240 -1.0182
16732TIP3    H171611   0.090   0.480  16.904 -1.3151 -0.6908 -0.4647
16732TIP3    H271612  -0.037   0.540  16.847 -0.5328 -0.5711 -2.1333
16733TIP3   OH271613   4.704   5.063  14.465  0.2232 -0.9967 -0.1869
16733TIP3    H171614   4.762   5.037  14.393 -1.2905 -3.3709 -0.6133
16733TIP3    H271615   4.746   5.028  14.543  0.3459 -1.0746 -0.2854
16734TIP3   OH271616   1.758   0.555   0.395 -0.3149  0.7684  0.3545
16734TIP3    H171617   1.669   0.549   0.359  0.3029  0.4313 -1.1676
16734TIP3    H271618   1.809   0.493   0.342  0.9658  1.4546  0.7712
16735TIP3   OH271619   1.912   6.584   6.306 -0.0442  0.0396 -0.6310
16735TIP3    H171620   1.927   6.659   6.363 -0.2202 -0.6168  0.2811
16735TIP3    H271621   1.817   6.580   6.295 -0.2152 -1.3748  1.1379
16736TIP3   OH271622   3.816   5.072  16.993 -0.4338 -0.2360  0.0303
16736TIP3    H171623   3.835   5.132  16.922  4.3010 -1.1791  0.3409
16736TIP3    H271624   3.803   5.128  17.070  2.2349  0.5001 -0.0301
16737TIP3   OH271625   0.733   2.966  14.288  0.1172 -0.3853  0.8441
16737TIP3    H171626   0.644   2.983  14.318  0.2963 -1.0564  1.7947
16737TIP3    H271627   0.725   2.955  14.194 -0.3406  2.5744  0.4921
16738TIP3   OH271628   0.112   4.184  10.685 -0.0775  0.1825 -0.3525
16738TIP3    H171629   0.038   4.228  10.728  0.8911  0.4446  1.0895
16738TIP3    H271630   0.078   4.097  10.662 -1.1334  0.6595 -0.6019
16739TIP3   OH271631   5.323   0.644  12.069 -0.2344  0.1238  0.3030
16739TIP3    H171632   5.415   0.671  12.063 -0.4629  1.5863  2.5563
16739TIP3    H271633   5.310   0.627  12.163 -1.7246 -2.1119 -0.2731
16740TIP3   OH271634   0.998   0.355   0.460  0.1885 -0.0685 -0.2824
16740TIP3    H171635   1.021   0.445   0.483  0.9325 -0.6856  1.4712
16740TIP3    H271636   1.071   0.325   0.406  1.9288 -0.8899  2.4262
16741TIP3   OH271637   0.603   3.710   0.807 -1.1896  0.1723 -0.0979
16741TIP3    H171638   0.544   3.785   0.811 -0.5617  0.7325 -0.9772
16741TIP3    H271639   0.576   3.662   0.729 -1.3939 -0.3545  0.2927
16742TIP3   OH271640   1.369   3.995   5.893  0.3571 -0.0382  0.0595
16742TIP3    H171641   1.287   3.996   5.843  0.1677  1.1599  0.3626
16742TIP3    H271642   1.349   4.044   5.973  1.5524  0.8707 -0.1769
16743TIP3   OH271643   4.384   5.328   4.124  0.2259 -0.4446  0.1166
16743TIP3    H171644   4.312   5.305   4.182  0.5526 -0.2261  0.6140
16743TIP3    H271645   4.420   5.408   4.160 -0.6425  0.6525 -1.3806
16744TIP3   OH271646   5.856   3.400  12.371 -0.1040 -0.1497 -1.1940
16744TIP3    H171647   5.844   3.314  12.332  0.7314 -0.3043 -1.1186
16744TIP3    H271648   5.816   3.461  12.309 -2.8305 -0.7899 -0.1183
16745TIP3   OH271649   1.299   1.676  17.181  0.2727  0.1275 -0.0772
16745TIP3    H171650   1.288   1.640  17.093 -0.9096  1.0643 -0.3276
16745TIP3    H271651   1.210   1.690  17.212  0.7048  1.3160  0.6463
16746TIP3   OH271652   3.806   6.152  15.867 -0.2513 -0.0613 -0.5037
16746TIP3    H171653   3.729   6.161  15.924 -0.6929  0.7560 -1.2171
16746TIP3    H271654   3.820   6.240  15.832  2.0374  0.1802  0.9312
16747TIP3   OH271655   1.904   3.377  13.215  0.0985  0.5165  0.0404
16747TIP3    H171656   1.983   3.383  13.163 -1.6291 -1.7079 -3.0023
16747TIP3    H271657   1.925   3.316  13.285  1.4126  0.8715 -0.0456
16748TIP3   OH271658   6.474   4.082   4.915  0.5110  0.5970  0.1257
16748TIP3    H171659   6.404   4.093   4.979 -0.4517 -0.0575 -0.7904
16748TIP3    H271660   6.541   4.032   4.961 -0.5465 -0.6280  0.3713
16749TIP3   OH271661   5.738   4.348  16.355  0.6819 -0.2943  0.3644
16749TIP3    H171662   5.688   4.272  16.323 -1.3309  2.1437 -2.6125
16749TIP3    H271663   5.672   4.405  16.395  1.6006  1.4515 -0.5717
16750TIP3   OH271664   5.624   3.245   2.863 -0.3550  0.2875 -0.5388
16750TIP3    H171665   5.579   3.247   2.778  0.4254  2.4029 -0.9426
16750TIP3    H271666   5.572   3.303   2.919 -0.3307 -0.3625  0.1703
16751TIP3   OH271667   6.185   1.666   3.100 -0.6143 -0.0026 -1.2245
16751TIP3    H171668   6.106   1.676   3.153 -0.6736  0.2962 -1.3709
16751TIP3    H271669   6.170   1.722   3.024  0.6780  1.7743 -0.1869
16752TIP3   OH271670   3.794   1.022  11.817  0.3355 -0.2757  0.0659
16752TIP3    H171671   3.767   1.064  11.899  1.8802 -1.6625  1.3080
16752TIP3    H271672   3.889   1.032  11.814  0.1096  1.4972 -2.5634
16753TIP3   OH271673   6.465   0.415   4.884 -0.8669  0.2256  0.0126
16753TIP3    H171674   6.511   0.335   4.910  0.8979  1.6524  1.3463
16753TIP3    H271675   6.495   0.431   4.794  1.8931  1.5775  1.1454
16754TIP3   OH271676   2.516   0.691   2.864  0.5049 -0.3261  0.1227
16754TIP3    H171677   2.604   0.673   2.896  1.3476  1.5866 -1.0816
16754TIP3    H271678   2.517   0.783   2.840 -1.5493 -0.5215 -0.8123
16755TIP3   OH271679   6.114   1.272  14.392 -0.0687 -0.2672 -0.0013
16755TIP3    H171680   6.084   1.358  14.363  0.3855 -0.0035  0.3135
16755TIP3    H271681   6.068   1.210  14.334 -0.9266  0.1480  0.2364
16756TIP3   OH271682   2.871   5.944  15.772 -0.0116 -1.1405  0.5488
16756TIP3    H171683   2.860   6.003  15.847  0.9841 -0.9327  0.5405
16756TIP3    H271684   2.956   5.903  15.786  1.7631  1.3636 -2.1444
16757TIP3   OH271685   5.138   3.051   0.843 -0.1064  0.1736 -0.6451
16757TIP3    H171686   5.216   3.014   0.803  0.1891  0.0262  0.0456
16757TIP3    H271687   5.168   3.134   0.882 -0.4414  0.4405 -0.9503
16758TIP3   OH271688   0.014   0.083  15.265  0.0290  0.3972 -0.1988
16758TIP3    H171689   0.017   0.168  15.222  0.7123 -0.3342 -1.6256
16758TIP3    H271690   0.077   0.029  15.217 -1.0771 -1.1980  0.0846
16759TIP3   OH271691   0.628   3.167  16.500  0.2008  0.2643 -0.0696
16759TIP3    H171692   0.593   3.146  16.414  0.8373 -2.3199  0.2655
16759TIP3    H271693   0.567   3.231  16.536 -0.4942  0.7767 -2.1202
16760TIP3   OH271694   3.076   1.309   6.869 -0.8795  0.0647  0.0145
16760TIP3    H171695   2.980   1.305   6.864 -0.9310 -1.5627  1.4515
16760TIP3    H271696   3.105   1.230   6.822 -0.3099 -0.1923  0.7970
16761TIP3   OH271697   5.718   1.440  11.575  0.4813  0.0839 -0.7089
16761TIP3    H171698   5.664   1.442  11.496 -0.2368  0.0192 -0.2210
16761TIP3    H271699   5.796   1.490  11.551  0.0159  0.5492 -1.2764
16762TIP3   OH271700   3.691   0.666  14.543 -0.2660 -0.0235 -0.3040
16762TIP3    H171701   3.702   0.596  14.607  1.1498 -0.2045 -0.7354
16762TIP3    H271702   3.779   0.699  14.529 -0.8342  1.3535 -0.6636
16763TIP3   OH271703   4.717   0.043  14.361  0.6391  0.4986  0.3898
16763TIP3    H171704   4.791   0.097  14.335  0.4427  1.3799  1.5687
16763TIP3    H271705   4.734  -0.043  14.323  0.1842  1.7673 -2.8681
16764TIP3   OH271706   5.482   3.266  12.337 -0.1234 -0.5829  0.6687
16764TIP3    H171707   5.448   3.332  12.277 -1.7979 -0.1566  2.0547
16764TIP3    H271708   5.543   3.215  12.284 -0.6626  0.5290 -1.0640
16765TIP3   OH271709   0.688   1.458  15.274 -1.2525 -0.3005 -0.3502
16765TIP3    H171710   0.704   1.435  15.366 -0.2206  0.8848 -0.2248
16765TIP3    H271711   0.597   1.433  15.259 -1.1186 -1.5049  0.6808
16766TIP3   OH271712   6.330   5.395   2.019  0.2453 -0.0957  0.2763
16766TIP3    H171713   6.262   5.398   2.087  0.4137  0.8825  0.3993
16766TIP3    H271714   6.378   5.315   2.037  0.6222  0.4306  1.6292
16767TIP3   OH271715   0.747   3.186   5.818  0.0627 -0.4134 -0.3261
16767TIP3    H171716   0.746   3.216   5.909  0.3774 -0.4918 -0.2945
16767TIP3    H271717   0.767   3.265   5.767  0.5154 -0.4940 -0.2743
16768TIP3   OH271718   3.788   0.985   0.416 -0.1734 -0.3387 -0.2793
16768TIP3    H171719   3.724   1.027   0.359  0.2046 -0.9769 -1.2067
16768TIP3    H271720   3.741   0.968   0.497 -0.6490  0.8287 -0.3113
16769TIP3   OH271721   1.783   3.362   4.478  0.1232  0.4136  0.5046
16769TIP3    H171722   1.759   3.386   4.568 -1.6850 -0.1163  0.1881
16769TIP3    H271723   1.858   3.304   4.488  1.0378  1.7491  1.5752
16770TIP3   OH271724   1.277   6.419  12.192 -0.5727 -0.4711 -0.4248
16770TIP3    H171725   1.240   6.476  12.125 -1.4466 -1.2923 -0.6529
16770TIP3    H271726   1.209   6.415  12.260  1.2652  2.3447  1.7116
16771TIP3   OH271727   1.973   3.880  16.446  0.3602  0.6372 -0.2269
16771TIP3    H171728   1.909   3.908  16.511 -0.5539  1.1866 -1.3483
16771TIP3    H271729   2.051   3.858  16.497 -0.4186  0.8373  1.0682
16772TIP3   OH271730   4.470   1.866  15.707 -0.0261  0.0511 -0.4465
16772TIP3    H171731   4.459   1.921  15.785 -1.0517 -0.2047 -0.4039
16772TIP3    H271732   4.385   1.869  15.663  0.8842  1.0841 -2.1569
16773TIP3   OH271733   0.080   3.209  11.693  0.5401 -0.3039 -0.1762
16773TIP3    H171734   0.089   3.113  11.699 -0.0643 -0.3448  0.1289
16773TIP3    H271735   0.037   3.234  11.774 -2.5536 -0.1818 -1.7855
16774TIP3   OH271736   5.781   5.770   3.110  0.1564  0.2435  0.3254
16774TIP3    H171737   5.791   5.723   3.027  0.2718 -0.8713  0.9679
16774TIP3    H271738   5.690   5.798   3.110  0.2404  0.5355 -0.3287
16775TIP3   OH271739   2.768   1.157  13.982  0.1619  0.6947  0.4663
16775TIP3    H171740   2.824   1.080  13.990 -0.5269 -0.1160 -1.9987
16775TIP3    H271741   2.788   1.209  14.059  0.2379 -2.2128  2.5176
16776TIP3   OH271742   5.876   6.709   2.907 -0.6009  0.5465  0.2084
16776TIP3    H171743   5.969   6.729   2.894 -0.9929  2.5052  0.2311
16776TIP3    H271744   5.875   6.623   2.948  1.2519  0.8888  1.0129
16777TIP3   OH271745   3.318   5.036   2.476  0.6090  0.1161  0.5069
16777TIP3    H171746   3.376   5.008   2.405 -0.3933  0.0805 -0.3050
16777TIP3    H271747   3.355   5.119   2.506  1.2543 -0.0553  0.2030
16778TIP3   OH271748   2.192   2.562   6.816 -0.4689 -0.3987 -0.1628
16778TIP3    H171749   2.252   2.532   6.748 -0.4693  0.8291 -0.7143
16778TIP3    H271750   2.143   2.633   6.776 -0.9497 -0.1108  0.9000
16779TIP3   OH271751   2.937   0.705  13.130  0.1297 -0.2323 -0.3432
16779TIP3    H171752   2.969   0.672  13.046 -1.2947  0.3578 -1.1436
16779TIP3    H271753   3.010   0.692  13.191  1.5651  0.3006 -1.9074
16780TIP3   OH271754   0.731   1.511  13.306  0.3892  0.3768 -0.3120
16780TIP3    H171755   0.766   1.427  13.338 -1.0292  0.3410  1.1663
16780TIP3    H271756   0.780   1.527  13.225  1.4176 -1.3607 -0.0688
16781TIP3   OH271757   1.335   5.471  14.419  0.0796  0.0861  0.1075
16781TIP3    H171758   1.326   5.433  14.332  0.1345 -0.7734  0.4789
16781TIP3    H271759   1.297   5.559  14.410  1.8010  0.7196 -1.2671
16782TIP3   OH271760   4.287   4.104  13.890  0.2211 -0.3544 -0.3799
16782TIP3    H171761   4.331   4.042  13.832  0.2710  0.7132 -1.5038
16782TIP3    H271762   4.223   4.051  13.938  1.4470 -1.5841 -0.0584
16783TIP3   OH271763   0.671   2.364  13.617  0.4043 -0.3169 -0.2952
16783TIP3    H171764   0.632   2.440  13.573 -1.5998 -2.0416 -1.5897
16783TIP3    H271765   0.608   2.342  13.686  0.5225 -1.3904 -0.5362
16784TIP3   OH271766   5.268   6.207   1.437 -0.2527 -0.0906 -0.0589
16784TIP3    H171767   5.288   6.162   1.519  1.6364  0.0180 -0.4366
16784TIP3    H271768   5.175   6.191   1.423 -0.3919 -0.8688  1.6410
16785TIP3   OH271769   4.362   4.083  11.319  0.1726 -0.4325  0.3695
16785TIP3    H171770   4.394   4.125  11.239 -1.1550 -0.5750 -0.2362
16785TIP3    H271771   4.383   3.990  11.308 -1.8820 -0.7764 -0.7382
16786TIP3   OH271772   2.852   6.067  16.845  0.0257 -0.7388 -0.1393
16786TIP3    H171773   2.910   6.087  16.772  0.1975 -2.0539 -0.3914
16786TIP3    H271774   2.900   6.095  16.923  1.4726 -2.7620 -0.2608
16787TIP3   OH271775   1.494   2.143   4.157 -0.3764 -0.1949 -0.6221
16787TIP3    H171776   1.586   2.126   4.139 -0.4980  0.8612 -2.4792
16787TIP3    H271777   1.493   2.185   4.242  0.9300  0.3702 -0.8740
16788TIP3   OH271778   4.105   3.970  17.013  0.3855 -0.0185  0.4184
16788TIP3    H171779   4.069   3.882  17.020  1.4935 -0.5879 -0.8893
16788TIP3    H271780   4.199   3.957  17.004  0.6792  1.3528  1.2690
16789TIP3   OH271781   6.182   1.582  15.589 -0.1089 -0.3638 -0.0746
16789TIP3    H171782   6.090   1.575  15.617 -0.4215 -0.3243 -1.0958
16789TIP3    H271783   6.201   1.498  15.548  0.6962 -0.8396  1.2422
16790TIP3   OH271784   0.450   0.917   6.123  0.3996  0.5165 -0.2265
16790TIP3    H171785   0.445   0.827   6.155 -0.5817  0.5255 -0.3518
16790TIP3    H271786   0.492   0.910   6.038 -2.3404 -0.1719 -1.5814
16791TIP3   OH271787   2.927   6.696   0.163  0.0808  0.3392  0.6823
16791TIP3    H171788   3.004   6.655   0.203  0.4928  0.2951 -0.1416
16791TIP3    H271789   2.958   6.783   0.136  0.0766  0.0272 -0.3711
16792TIP3   OH271790   3.497   2.189  14.738 -0.4351  0.1046 -0.7899
16792TIP3    H171791   3.521   2.221  14.825  1.4710 -2.3654 -0.3560
16792TIP3    H271792   3.572   2.209  14.682  0.0504 -1.9410 -0.9100
16793TIP3   OH271793   4.932   3.341  14.452 -0.1926 -0.2471  0.2637
16793TIP3    H171794   4.957   3.258  14.411 -0.5374 -0.2074 -0.0289
16793TIP3    H271795   4.981   3.408  14.404  1.0532 -0.3907  1.3221
16794TIP3   OH271796   1.715   4.730  16.362  0.3329  0.4395  0.2656
16794TIP3    H171797   1.788   4.670  16.370  1.6088  2.0838  1.3419
16794TIP3    H271798   1.667   4.721  16.445  2.0595  2.8090  1.5788
16795TIP3   OH271799   5.406   4.939  14.723  0.3709 -0.0852  0.0467
16795TIP3    H171800   5.428   4.908  14.811  0.8577  1.0781  0.3470
16795TIP3    H271801   5.408   4.860  14.669 -0.9194 -0.9934  1.2545
16796TIP3   OH271802   3.714   5.628   2.867 -0.7918  0.2078 -0.1502
16796TIP3    H171803   3.624   5.594   2.859 -0.4081 -1.0219  0.6692
16796TIP3    H271804   3.709   5.693   2.937 -0.9265 -0.2965  0.3130
16797TIP3   OH271805   0.676   0.336   6.094  0.3717 -0.1679  0.1761
16797TIP3    H171806   0.716   0.391   6.161 -0.9238  1.0650 -0.0429
16797TIP3    H271807   0.691   0.382   6.012 -2.0193  0.6325  0.1624
16798TIP3   OH271808   6.353   6.133   0.430 -0.2379  0.8443  0.4054
16798TIP3    H171809   6.427   6.177   0.389  1.1055 -1.3704  0.3766
16798TIP3    H271810   6.276   6.174   0.391  0.9765  0.6589 -2.3063
16799TIP3   OH271811   6.285   2.254   3.560 -0.0791  0.0214 -0.4766
16799TIP3    H171812   6.365   2.222   3.602 -1.3100 -0.0852  1.8798
16799TIP3    H271813   6.297   2.349   3.554  0.2505 -0.0009 -0.1826
16800TIP3   OH271814   1.169   4.482  11.446 -0.4290 -0.3264  0.2682
16800TIP3    H171815   1.250   4.498  11.493 -0.3570  1.6994 -0.5245
16800TIP3    H271816   1.126   4.567  11.441 -2.5332 -1.3296  0.5162
16801TIP3   OH271817   3.931   0.469   5.789  0.0415  0.0953 -0.2113
16801TIP3    H171818   3.892   0.434   5.709 -0.2275 -0.8381  0.3306
16801TIP3    H271819   3.902   0.560   5.791  0.9692  0.4683 -1.7615
16802TIP3   OH271820   6.586   3.320   1.699  0.0582 -0.0608  0.1442
16802TIP3    H171821   6.604   3.396   1.643  1.7226 -0.7930 -0.3319
16802TIP3    H271822   6.528   3.265   1.646 -0.9544  0.7405  0.3959
16803TIP3   OH271823   4.836   6.045  13.320 -0.3865  0.0236 -0.3003
16803TIP3    H171824   4.843   6.067  13.413 -0.4729 -2.4019  0.3046
16803TIP3    H271825   4.927   6.044  13.288 -0.1608 -1.5429  0.3534
16804TIP3   OH271826   2.796   6.722   0.707 -0.6284  0.9149  0.7860
16804TIP3    H171827   2.748   6.797   0.741 -0.5204  1.8476 -1.0971
16804TIP3    H271828   2.728   6.660   0.679 -0.7996  2.2245 -1.8530
16805TIP3   OH271829   4.322   4.817  15.440 -0.2244  0.4467  0.7986
16805TIP3    H171830   4.322   4.910  15.415 -0.9420 -0.0297 -1.0450
16805TIP3    H271831   4.230   4.791  15.436 -0.2261  0.0598  2.9348
16806TIP3   OH271832   0.030   1.033  17.103 -0.1224 -0.3719  0.4080
16806TIP3    H171833   0.066   0.958  17.057  0.5654  0.5131 -0.5234
16806TIP3    H271834   0.066   1.109  17.058 -3.2443  0.5663 -0.6698
16807TIP3   OH271835   2.210   4.413  17.202  0.2666 -0.1203  0.2686
16807TIP3    H171836   2.255   4.446  17.280  3.9436  0.5044 -2.0205
16807TIP3    H271837   2.127   4.461  17.200  1.5508  2.2338  1.9831
16808TIP3   OH271838   0.825   6.702  13.248 -0.2052 -0.4245 -0.0787
16808TIP3    H171839   0.844   6.744  13.164 -0.4855 -1.8088 -0.8441
16808TIP3    H271840   0.729   6.696  13.250 -0.2719  0.7845  0.9333
16809TIP3   OH271841   1.534   2.932   4.913 -0.2335  0.2135 -0.3379
16809TIP3    H171842   1.624   2.942   4.944 -0.0141 -0.9982 -0.5856
16809TIP3    H271843   1.537   2.956   4.821 -0.0832 -0.2492 -0.4526
16810TIP3   OH271844   0.665   5.001  13.788 -0.0804  0.1925  0.1951
16810TIP3    H171845   0.756   4.994  13.818 -0.3556 -1.5807  0.6927
16810TIP3    H271846   0.671   5.004  13.693  0.4775 -0.5617  0.2013
16811TIP3   OH271847   2.236   3.381  15.577  0.1659  0.0825 -0.3657
16811TIP3    H171848   2.156   3.329  15.567  0.0422  0.2427 -0.2085
16811TIP3    H271849   2.302   3.318  15.606 -0.6823  0.5392  2.7048
16812TIP3   OH271850   2.608   4.813  16.291 -0.0939  0.3608  0.1368
16812TIP3    H171851   2.550   4.748  16.252  1.3420  0.0781 -1.5793
16812TIP3    H271852   2.553   4.890  16.304 -0.7177  0.3100 -2.0744
16813TIP3   OH271853   3.336   1.823   0.434 -0.4857 -0.1738  0.6936
16813TIP3    H171854   3.248   1.849   0.462 -0.4855 -0.5035  0.9985
16813TIP3    H271855   3.321   1.767   0.357 -0.5168  0.1541  0.4564
16814TIP3   OH271856   5.765   2.747   6.163  0.3529 -0.0588 -0.3030
16814TIP3    H171857   5.842   2.768   6.110 -0.7057  1.1007 -1.3976
16814TIP3    H271858   5.696   2.804   6.130 -1.2456 -1.7222  0.0433
16815TIP3   OH271859   0.848   6.537   2.427 -0.3875  0.3375 -0.4792
16815TIP3    H171860   0.918   6.510   2.367 -0.5803  0.2301 -0.6540
16815TIP3    H271861   0.867   6.629   2.445  1.6830 -0.5171  2.0535
16816TIP3   OH271862   2.547   4.429   6.640  0.9935  0.3041 -0.8887
16816TIP3    H171863   2.579   4.428   6.550 -0.5353 -0.4245 -1.4509
16816TIP3    H271864   2.584   4.350   6.680  1.2609  0.3587 -1.0304
16817TIP3   OH271865   5.784   1.892  11.248  0.4341  0.0756  0.2505
16817TIP3    H171866   5.761   1.920  11.160  0.5132  0.7779  0.4556
16817TIP3    H271867   5.857   1.948  11.273 -1.0710  1.4378  1.6541
16818TIP3   OH271868   6.274   4.874   1.316 -0.7464 -0.3209  0.2622
16818TIP3    H171869   6.253   4.807   1.250 -1.3035 -0.6499  0.7605
16818TIP3    H271870   6.223   4.847   1.393 -1.7642  1.2395  0.1488
16819TIP3   OH271871   3.138   1.443  12.211  0.0129  0.0875  0.0663
16819TIP3    H171872   3.057   1.404  12.177 -0.3963  0.2224  0.8725
16819TIP3    H271873   3.109   1.524  12.253  0.4160 -0.4240  1.3547
16820TIP3   OH271874   5.449   3.030  11.263 -0.7911 -0.4975  0.2109
16820TIP3    H171875   5.438   3.123  11.241 -1.5830 -0.1614  1.9366
16820TIP3    H271876   5.360   2.995  11.263 -0.4850 -1.2839 -0.5134
16821TIP3   OH271877   3.516   5.473  13.379  0.4052  0.4612 -0.0946
16821TIP3    H171878   3.512   5.397  13.437  0.7243  0.4492 -0.0867
16821TIP3    H271879   3.504   5.548  13.436 -0.7818  0.3790 -0.2214
16822TIP3   OH271880   5.626   1.655  13.766 -0.6594  0.1953 -1.1109
16822TIP3    H171881   5.674   1.728  13.727 -0.1662 -0.1581 -1.1624
16822TIP3    H271882   5.680   1.629  13.841 -0.8050 -0.1592 -1.1302
16823TIP3   OH271883   1.135   3.572   2.060 -0.3024 -1.0902 -0.3758
16823TIP3    H171884   1.197   3.634   2.022 -0.9592 -1.4150 -2.0097
16823TIP3    H271885   1.079   3.546   1.987 -2.4652 -0.6749  1.0932
16824TIP3   OH271886   0.169   1.018   2.560 -0.2481 -0.1558 -0.2508
16824TIP3    H171887   0.216   1.011   2.643 -0.8519 -0.5254  0.0649
16824TIP3    H271888   0.122   0.934   2.552 -0.4479  0.0076 -0.8044
16825TIP3   OH271889   2.328   1.837  15.023 -0.6568  0.3958 -0.1101
16825TIP3    H171890   2.260   1.852  14.958 -1.4811 -2.8369 -0.0784
16825TIP3    H271891   2.283   1.845  15.107 -0.7240 -0.5051 -0.0599
16826TIP3   OH271892   1.381   3.115   1.488  0.7280  0.2914 -0.0984
16826TIP3    H171893   1.303   3.130   1.542 -0.2293 -0.3361 -1.2756
16826TIP3    H271894   1.423   3.201   1.482  0.0789  0.6561  0.4722
16827TIP3   OH271895   2.434   2.535   5.472  0.0203 -0.3187  0.3681
16827TIP3    H171896   2.509   2.554   5.528  0.0705  0.7508 -0.0417
16827TIP3    H271897   2.425   2.440   5.475  0.6631 -0.3536  1.3567
16828TIP3   OH271898   2.557   4.486  15.963  0.2703  0.5063  0.0706
16828TIP3    H171899   2.535   4.393  15.972 -0.0174  0.4158 -1.5800
16828TIP3    H271900   2.630   4.488  15.901  1.6593  1.2251  1.6677
16829TIP3   OH271901   4.820   2.690  11.735 -0.6110  0.1478  0.3074
16829TIP3    H171902   4.813   2.697  11.830  1.7334 -2.2470  0.7015
16829TIP3    H271903   4.827   2.596  11.718 -0.3634  0.5795 -2.1995
16830TIP3   OH271904   1.748   5.166   5.253 -0.5291 -0.7473 -0.4584
16830TIP3    H171905   1.707   5.084   5.225 -0.9768  0.0937 -2.3118
16830TIP3    H271906   1.821   5.138   5.309 -0.6866 -2.3986 -1.0497
16831TIP3   OH271907   0.769   2.815   1.128 -0.1518 -0.2459 -0.1268
16831TIP3    H171908   0.806   2.877   1.191  0.3336  0.4046 -1.0406
16831TIP3    H271909   0.699   2.771   1.175 -0.4179  0.9221  0.5683
16832TIP3   OH271910   4.438   4.817   2.873  0.0895  0.5512  0.7103
16832TIP3    H171911   4.389   4.894   2.843 -0.8947 -0.2338  0.2430
16832TIP3    H271912   4.464   4.772   2.792  1.4400  0.8623  0.9608
16833TIP3   OH271913   1.182   6.109  14.366  0.0595  0.3673 -0.9207
16833TIP3    H171914   1.225   6.053  14.302 -0.4601 -0.0840 -0.8749
16833TIP3    H271915   1.219   6.196  14.350  1.0180 -0.0158 -0.8611
16834TIP3   OH271916   1.517   5.284   5.403 -0.2984 -0.3850  0.4358
16834TIP3    H171917   1.602   5.266   5.361  0.9171  0.8812  2.2695
16834TIP3    H271918   1.539   5.305   5.494 -2.6843 -0.9368  1.1760
16835TIP3   OH271919   4.359   6.291   1.066 -0.1801  0.3431  0.3658
16835TIP3    H171920   4.387   6.320   1.152 -0.9036  2.4832 -0.0986
16835TIP3    H271921   4.438   6.296   1.012  0.4501 -1.7215  1.0580
16836TIP3   OH271922   5.309   1.507  16.794  0.0219 -0.5461 -0.1749
16836TIP3    H171923   5.382   1.536  16.739 -1.2215 -0.4318 -1.8136
16836TIP3    H271924   5.329   1.416  16.815  0.0771 -0.8722 -1.5878
16837TIP3   OH271925   5.846   4.631   1.775 -0.3006  0.3448 -0.3361
16837TIP3    H171926   5.867   4.538   1.777  1.6903  0.7502 -1.1073
16837TIP3    H271927   5.750   4.634   1.776 -0.3850 -1.7080 -0.4786
16838TIP3   OH271928   4.184   0.700   5.487  0.1815 -0.0138 -0.1718
16838TIP3    H171929   4.221   0.773   5.537 -1.7992  0.6368  0.3776
16838TIP3    H271930   4.090   0.707   5.500 -0.0379 -2.9202  0.2694
16839TIP3   OH271931   5.925   3.322  12.692 -0.2644 -0.4977  0.4904
16839TIP3    H171932   5.919   3.362  12.606 -0.0865  1.6023  1.4244
16839TIP3    H271933   5.916   3.228  12.676  0.2615 -0.1677 -1.8502
16840TIP3   OH271934   5.313   0.710   3.704  0.7932  0.8043 -0.0643
16840TIP3    H171935   5.348   0.623   3.685 -0.8302 -0.0424  0.6531
16840TIP3    H271936   5.324   0.759   3.622  0.2806 -0.5877 -0.9868
16841TIP3   OH271937   0.883   4.715  14.817 -0.0688 -0.2470 -0.3491
16841TIP3    H171938   0.800   4.718  14.768  0.3531  0.4494 -1.0420
16841TIP3    H271939   0.885   4.628  14.855 -0.9076 -0.4383 -0.7209
16842TIP3   OH271940   3.162   3.377  12.124  0.5157  0.8231  0.1573
16842TIP3    H171941   3.082   3.383  12.072  0.4311  1.4294  0.3614
16842TIP3    H271942   3.221   3.324  12.071  0.8363  2.3796 -1.0654
16843TIP3   OH271943   1.210   4.953   3.991 -0.3222 -0.0069 -0.3085
16843TIP3    H171944   1.214   4.946   4.087 -0.3336  0.3984 -0.2744
16843TIP3    H271945   1.146   5.023   3.976 -0.7769 -0.4907 -0.6268
16844TIP3   OH271946   4.046   1.088  13.200 -0.7640  0.4471  0.4776
16844TIP3    H171947   4.059   1.148  13.126 -0.1882  0.8774  0.9173
16844TIP3    H271948   4.023   1.146  13.273 -0.7070  0.0807  0.7837
16845TIP3   OH271949   3.446   2.848   0.434  0.4650 -0.4990 -0.1974
16845TIP3    H171950   3.476   2.783   0.498 -2.0055 -0.0084  1.4829
16845TIP3    H271951   3.446   2.931   0.481 -0.2418  0.0721 -1.1755
16846TIP3   OH271952   2.616   1.512   6.125 -0.2762 -0.2916 -0.1221
16846TIP3    H171953   2.691   1.462   6.092  0.2166  0.1896  0.2522
16846TIP3    H271954   2.651   1.599   6.142 -0.8350 -0.1661  0.4161
16847TIP3   OH271955   2.895   6.407  14.745 -0.0930  0.0132 -0.2733
16847TIP3    H171956   2.954   6.407  14.670 -0.3458 -0.5018 -0.4718
16847TIP3    H271957   2.943   6.456  14.813  1.2440 -1.7371  0.0972
16848TIP3   OH271958   6.528   3.556  16.990  0.2797 -0.2103 -0.4205
16848TIP3    H171959   6.454   3.595  16.944 -0.6175 -0.3627  0.8827
16848TIP3    H271960   6.490   3.517  17.069  2.2669  3.3181  2.4367
16849TIP3   OH271961   5.106   1.882  14.650  0.3597  0.1577 -0.0995
16849TIP3    H171962   5.104   1.972  14.682  0.1662  0.0576  0.1646
16849TIP3    H271963   5.188   1.846  14.684 -0.4623 -0.3483  1.3445
16850TIP3   OH271964   4.073   1.750  15.391  0.1686 -0.9968  0.7009
16850TIP3    H171965   4.142   1.700  15.348  0.0846  0.8243 -1.6395
16850TIP3    H271966   3.991   1.711  15.358  0.1041  0.6925 -1.1871
16851TIP3   OH271967   6.082   6.513  14.969  0.1843  0.3760 -0.1683
16851TIP3    H171968   6.087   6.450  15.041 -1.0270 -0.3654 -0.7202
16851TIP3    H271969   5.989   6.533  14.960  0.6064  2.8023  0.4466
16852TIP3   OH271970   1.191   1.242  16.535 -0.1851 -0.3226 -0.6342
16852TIP3    H171971   1.100   1.266  16.550 -0.0938 -1.7124  2.5339
16852TIP3    H271972   1.188   1.177  16.465 -1.7174 -0.9112 -0.0354
16853TIP3   OH271973   3.527   2.050   4.141 -0.2847 -0.0261  0.8115
16853TIP3    H171974   3.618   2.044   4.168 -0.8534 -3.2282  2.3788
16853TIP3    H271975   3.488   2.114   4.202  0.6748  0.5774  0.7978
16854TIP3   OH271976   5.278   0.194   0.605 -0.0990 -0.4008 -0.9443
16854TIP3    H171977   5.317   0.133   0.543  0.5399  0.3193 -1.2715
16854TIP3    H271978   5.185   0.196   0.582 -0.3092 -1.9661 -0.3016
16855TIP3   OH271979   2.571   1.071   2.404  0.5223 -0.0597 -0.0726
16855TIP3    H171980   2.566   1.039   2.494  2.2610 -2.2077 -0.6865
16855TIP3    H271981   2.660   1.051   2.377  0.0936  0.7951 -2.2128
16856TIP3   OH271982   2.510   4.863   0.528 -0.3598 -0.3821  0.5465
16856TIP3    H171983   2.464   4.832   0.606  0.1048 -0.3808  0.8221
16856TIP3    H271984   2.461   4.940   0.500 -2.8502 -2.5936 -1.4190
16857TIP3   OH271985   4.972   2.621  16.045  0.0734 -0.5809 -0.6951
16857TIP3    H171986   4.945   2.541  16.090 -0.3881 -1.1655 -2.0114
16857TIP3    H271987   5.065   2.630  16.066 -0.6178  0.3931  2.2616
16858TIP3   OH271988   3.430   5.700   4.420  0.1784 -0.9115 -0.3638
16858TIP3    H171989   3.433   5.697   4.515  2.2265 -1.4495 -0.4171
16858TIP3    H271990   3.463   5.614   4.392 -1.5863 -1.2292 -1.5502
16859TIP3   OH271991   2.913   2.384  13.275  0.1281  0.0322  0.3368
16859TIP3    H171992   2.863   2.418  13.201  0.7174  0.3488  0.0842
16859TIP3    H271993   2.875   2.427  13.352 -0.3944 -0.1965  0.2112
16860TIP3   OH271994   5.385   4.944  11.097  0.2996  0.1737  0.2370
16860TIP3    H171995   5.423   4.959  11.183 -0.0247  0.9811  0.2488
16860TIP3    H271996   5.420   5.014  11.042 -1.4673  1.1926  0.3570
16861TIP3   OH271997   6.398   1.161  15.319  0.3788  0.4528 -0.3289
16861TIP3    H171998   6.472   1.101  15.308 -0.5739 -0.6232 -0.9903
16861TIP3    H271999   6.391   1.206  15.235 -0.4147 -0.2683 -0.6573
16862TIP3   OH272000   4.898   0.509  11.489 -0.8151  0.1106  0.5325
16862TIP3    H172001   4.845   0.483  11.564  0.7877 -1.5473  1.1294
16862TIP3    H272002   4.960   0.573  11.525  1.1265 -2.0117  1.0544
16863TIP3   OH272003   4.302   3.037  14.663  0.3649 -0.5909  0.1804
16863TIP3    H172004   4.281   3.130  14.653 -1.8130 -1.0310  0.3256
16863TIP3    H272005   4.387   3.036  14.707  0.3175  1.3306  0.3720
16864TIP3   OH272006   1.661   0.880   0.959  0.1067  0.2046  0.1406
16864TIP3    H172007   1.711   0.958   0.935 -2.0084  1.6570  0.4055
16864TIP3    H272008   1.714   0.838   1.026  0.8602  1.8471  0.6050
16865TIP3   OH272009   6.498   5.187   2.020  0.8278 -0.1018  0.4015
16865TIP3    H172010   6.571   5.243   2.048  2.1193 -1.2724 -0.5875
16865TIP3    H272011   6.482   5.130   2.094 -1.0231  2.0370  1.7336
16866TIP3   OH272012   4.526   1.695  11.545 -0.3315  0.6611 -0.7703
16866TIP3    H172013   4.495   1.705  11.455  0.0521  2.8342 -0.6739
16866TIP3    H272014   4.458   1.737  11.598  0.0176  0.4290 -0.1377
16867TIP3   OH272015   2.904   6.777   1.144  0.4587 -0.0723  0.2034
16867TIP3    H172016   2.847   6.711   1.184  0.6046 -0.2982  0.0340
16867TIP3    H272017   2.875   6.860   1.183  0.1581 -0.2136  0.2794
16868TIP3   OH272018   0.796   1.840   6.191  0.5187  0.1419 -0.6360
16868TIP3    H172019   0.810   1.836   6.286 -1.5525  0.9419 -0.2608
16868TIP3    H272020   0.839   1.921   6.163  0.2187  0.4626 -0.1811
16869TIP3   OH272021   0.911   3.185   0.561  0.0511 -0.0057 -0.0854
16869TIP3    H172022   0.946   3.169   0.649 -0.5045 -0.9376 -0.0302
16869TIP3    H272023   0.984   3.164   0.502 -0.6150 -2.6967 -0.0082
16870TIP3   OH272024   3.541   1.990   1.367 -0.3687 -0.4099  0.1420
16870TIP3    H172025   3.478   2.002   1.296  1.0338  0.5701 -0.9873
16870TIP3    H272026   3.531   2.068   1.422  0.2920  0.0793 -0.4127
16871TIP3   OH272027   2.766   2.641   2.244  0.1231 -0.6790 -0.3745
16871TIP3    H172028   2.817   2.565   2.272 -1.0461 -1.1673  0.4940
16871TIP3    H272029   2.816   2.679   2.172  2.4709 -0.2695  1.4288
16872TIP3   OH272030   2.696   2.643   4.587  0.3868  0.1658  0.1082
16872TIP3    H172031   2.690   2.666   4.494 -2.0329  4.0505  1.0775
16872TIP3    H272032   2.615   2.595   4.606  0.6654 -0.2308  0.2956
16873TIP3   OH272033   5.497   4.141  13.672 -0.6924 -0.3282  0.1598
16873TIP3    H172034   5.591   4.159  13.667 -0.5032 -0.3487  2.8909
16873TIP3    H272035   5.455   4.223  13.644  0.1550  0.2541  0.5746
16874TIP3   OH272036   4.612   4.097   2.984 -0.1657  0.3183  0.0445
16874TIP3    H172037   4.536   4.075   3.037 -1.0979  0.6306 -1.1427
16874TIP3    H272038   4.599   4.189   2.960  1.7728  1.0699  1.7835
16875TIP3   OH272039   6.270   0.538  11.165  0.1685  0.0082 -0.6189
16875TIP3    H172040   6.177   0.514  11.165  0.0831  0.3221  0.0722
16875TIP3    H272041   6.280   0.591  11.086 -0.0308 -0.8053 -1.1983
16876TIP3   OH272042   1.942   3.688  14.904  0.0646  0.1586 -0.2569
16876TIP3    H172043   2.024   3.706  14.857  0.8798 -1.0744  0.6512
16876TIP3    H272044   1.893   3.769  14.899  0.4507  0.2711 -2.6120
16877TIP3   OH272045   3.423   4.918   5.256 -0.6438  0.5559  0.4537
16877TIP3    H172046   3.446   4.912   5.163 -0.8276 -0.0649  0.4399
16877TIP3    H272047   3.492   4.971   5.295  0.2863 -0.4734  0.2414
16878TIP3   OH272048   3.253   2.416   6.502  0.7454 -0.5158 -0.1496
16878TIP3    H172049   3.284   2.330   6.530 -0.4964 -0.8914  0.0983
16878TIP3    H272050   3.213   2.455   6.580 -0.5280 -0.5634 -0.7551
16879TIP3   OH272051   3.331   4.605   1.591 -0.4713  0.0378  0.2323
16879TIP3    H172052   3.285   4.632   1.512 -0.2733 -1.3475 -0.3637
16879TIP3    H272053   3.415   4.650   1.586  0.5974 -2.0509 -1.6956
16880TIP3   OH272054   5.152   4.347  13.271  0.6394 -0.0478  0.0727
16880TIP3    H172055   5.164   4.280  13.339  0.6439  0.3210  0.4386
16880TIP3    H272056   5.173   4.302  13.189  1.5598 -0.2455  0.4079
16881TIP3   OH272057   2.633   2.891   4.882 -0.4465 -0.1221  0.2680
16881TIP3    H172058   2.674   2.811   4.850  1.0902 -0.0415  1.8860
16881TIP3    H272059   2.565   2.862   4.942  0.0761 -0.2516  0.8136
16882TIP3   OH272060   3.190   2.573  12.862 -0.1664 -0.3677 -0.2854
16882TIP3    H172061   3.192   2.540  12.772  2.3216  0.3404 -0.5148
16882TIP3    H272062   3.199   2.668  12.854 -2.3085 -0.0532  0.6267
16883TIP3   OH272063   6.706   3.082  11.313  0.3227  0.3484 -0.3596
16883TIP3    H172064   6.668   3.167  11.334  0.1649  0.4809 -1.1568
16883TIP3    H272065   6.797   3.089  11.343  0.4351  0.9588 -0.8273
16884TIP3   OH272066   5.546   4.049  12.776 -0.7862  0.2398  0.3930
16884TIP3    H172067   5.531   4.060  12.870 -1.0538  1.4013  0.2154
16884TIP3    H272068   5.614   3.982  12.771  0.9084  1.8315  1.4811
16885TIP3   OH272069   3.995   6.582   0.703 -0.2017 -0.1348 -0.6513
16885TIP3    H172070   4.027   6.647   0.641  1.0099 -1.5433 -1.5471
16885TIP3    H272071   3.961   6.633   0.776  1.8585  1.4714 -0.7805
16886TIP3   OH272072   0.185   5.983   5.846 -0.1744 -0.4453  0.3523
16886TIP3    H172073   0.257   6.015   5.901 -1.0174  0.6161  0.8525
16886TIP3    H272074   0.228   5.926   5.781  1.0129 -0.4648  1.1350
16887TIP3   OH272075   5.799   3.475   0.996 -0.9166 -0.6658 -0.2286
16887TIP3    H172076   5.833   3.469   1.085 -0.2425 -1.1512 -0.5158
16887TIP3    H272077   5.759   3.389   0.979 -0.7888 -0.6742 -0.4977
16888TIP3   OH272078   4.303   2.858   4.757 -0.0584  0.2656 -0.0027
16888TIP3    H172079   4.235   2.793   4.739  1.1893 -0.9186 -0.4954
16888TIP3    H272080   4.304   2.866   4.853  0.8994 -1.6924  0.1784
16889TIP3   OH272081   6.767   6.649  14.981  0.2514 -0.1914 -0.4080
16889TIP3    H172082   6.790   6.603  14.899  3.8063  1.5006 -0.4301
16889TIP3    H272083   6.851   6.672  15.020 -1.4372  1.2996  2.4935
16890TIP3   OH272084   6.546   5.867   2.219  0.9629  0.1673 -0.5932
16890TIP3    H172085   6.471   5.813   2.193  1.3215  0.0129 -1.3077
16890TIP3    H272086   6.519   5.956   2.196 -0.4103  0.5559  2.3330
16891TIP3   OH272087   1.156   1.571   5.493 -0.0128  0.1366  0.4629
16891TIP3    H172088   1.129   1.524   5.414 -0.1556  0.0482  0.5634
16891TIP3    H272089   1.251   1.561   5.497 -0.1543 -1.0597  1.0601
16892TIP3   OH272090   1.700   1.498  16.669 -0.3588  0.0800 -0.4208
16892TIP3    H172091   1.701   1.504  16.574 -0.9488 -2.6347 -0.6283
16892TIP3    H272092   1.768   1.434  16.690 -0.7234  0.1152  0.9385
16893TIP3   OH272093   2.262   4.506  15.534  0.0034  0.2039  0.3892
16893TIP3    H172094   2.298   4.560  15.604  1.0304 -0.1348  0.1200
16893TIP3    H272095   2.280   4.555  15.454 -0.8060  0.3916  0.3099
16894TIP3   OH272096   2.310   5.224  11.373  0.3361 -0.1610  0.5904
16894TIP3    H172097   2.357   5.152  11.332  0.3225 -0.4854  1.1341
16894TIP3    H272098   2.266   5.183  11.448 -1.4176 -0.0239 -0.3355
16895TIP3   OH272099   0.672   4.020   5.967 -0.0895 -0.5676  0.3231
16895TIP3    H172100   0.677   4.015   6.063  0.7171 -0.7053  0.2800
16895TIP3    H272101   0.622   3.942   5.942  0.7762 -1.2075  0.5571
16896TIP3   OH272102   0.485   4.988  15.357  0.1495 -0.5942  0.0000
16896TIP3    H172103   0.513   5.012  15.446  0.7171  0.1947 -0.3873
16896TIP3    H272104   0.542   4.916  15.332  0.2321 -0.5772  0.1405
16897TIP3   OH272105   6.122   2.549   3.591  0.3768 -0.2723 -0.4195
16897TIP3    H172106   6.038   2.594   3.584  0.6388  0.1234 -1.1138
16897TIP3    H272107   6.184   2.608   3.547  0.9676 -0.6819 -0.1441
16898TIP3   OH272108   2.029   0.157   1.725 -0.1914 -0.1362  0.2690
16898TIP3    H172109   2.025   0.116   1.812  1.9816  0.1391  0.5232
16898TIP3    H272110   2.094   0.226   1.735  0.7757 -0.7216 -1.8534
16899TIP3   OH272111   2.897   0.941   2.099  0.7013 -0.5971 -0.3411
16899TIP3    H172112   2.927   0.859   2.060  1.7459  0.2862 -1.4235
16899TIP3    H272113   2.856   0.988   2.027 -0.8206 -0.5914  0.5034
16900TIP3   OH272114   1.142   0.864   1.514 -0.2568 -0.7589  0.4080
16900TIP3    H172115   1.219   0.905   1.473 -0.4446 -1.3643 -0.5627
16900TIP3    H272116   1.140   0.901   1.602  1.1018 -0.6552  0.4153
16901TIP3   OH272117   5.049   4.655  12.751  0.2141  0.1260 -0.2523
16901TIP3    H172118   5.108   4.697  12.689 -0.1529  3.0954  1.3200
16901TIP3    H272119   5.107   4.615  12.816  0.5455  0.0542 -0.5929
16902TIP3   OH272120   0.311   3.588   2.681 -0.0017 -0.3547 -0.1759
16902TIP3    H172121   0.255   3.529   2.630  0.9409  0.5893 -2.4027
16902TIP3    H272122   0.374   3.622   2.617  2.1171 -0.1686  1.9161
16903TIP3   OH272123   6.250   6.297  15.969  0.1096  0.1542 -0.1626
16903TIP3    H172124   6.283   6.247  16.044  0.2716 -0.8637 -0.9027
16903TIP3    H272125   6.295   6.260  15.893  0.6597  1.8082 -0.6771
16904TIP3   OH272126   2.529   2.306   0.628  0.0356 -0.3586 -0.1865
16904TIP3    H172127   2.471   2.237   0.595 -0.8650  0.4529 -0.3255
16904TIP3    H272128   2.557   2.275   0.714 -0.7108 -0.6996 -0.0601
16905TIP3   OH272129   5.589   5.041  16.944  0.0669 -0.1331  0.3710
16905TIP3    H172130   5.594   5.120  16.889 -0.8836  1.3048  2.2763
16905TIP3    H272131   5.605   4.969  16.884 -1.2388  1.3743 -1.8661
16906TIP3   OH272132   0.618   2.883   1.717  0.0751 -0.0860 -0.4411
16906TIP3    H172133   0.639   2.915   1.629  1.6443  0.0835 -0.0192
16906TIP3    H272134   0.592   2.792   1.703  2.4953 -0.7486 -0.8530
16907TIP3   OH272135   2.762   6.659   3.225  0.6572 -0.1163  0.2050
16907TIP3    H172136   2.756   6.609   3.144  1.0294  0.8658 -0.4386
16907TIP3    H272137   2.671   6.673   3.252  0.5485 -1.7483  0.7961
16908TIP3   OH272138   2.716   6.270   4.937 -0.0060  0.4035 -0.0629
16908TIP3    H172139   2.792   6.211   4.932  0.2632  0.4815  2.3889
16908TIP3    H272140   2.739   6.344   4.881  2.4565  1.1880  1.8881
16909TIP3   OH272141   6.602   3.623   5.602  0.5551  0.1180 -0.4092
16909TIP3    H172142   6.523   3.671   5.576  0.4778  0.3857  0.3089
16909TIP3    H272143   6.569   3.541   5.639  0.5470  0.6684  0.8510
16910TIP3   OH272144   5.117   5.725   4.179 -0.0283  0.7442  0.2338
16910TIP3    H172145   5.041   5.672   4.157  1.0595 -1.0213  0.5776
16910TIP3    H272146   5.094   5.766   4.262 -0.2980 -0.4637  0.7781
16911TIP3   OH272147   0.951   4.733   3.439  0.2153 -0.2208  0.2221
16911TIP3    H172148   1.006   4.743   3.517 -1.2245 -0.7234  1.3338
16911TIP3    H272149   0.991   4.662   3.390  0.3932 -0.7790  1.1703
16912TIP3   OH272150   2.748   1.753  16.835  0.1102  0.3643 -0.2408
16912TIP3    H172151   2.769   1.670  16.878 -0.0323  0.2991 -0.2939
16912TIP3    H272152   2.689   1.728  16.764 -1.0706  0.6699  0.6143
16913TIP3   OH272153   6.445   1.816   3.095  0.0340 -0.0652  0.3677
16913TIP3    H172154   6.392   1.785   3.169  0.3431  1.6080  1.3227
16913TIP3    H272155   6.387   1.808   3.019 -0.9705  0.0333  1.1069
16914TIP3   OH272156   4.423   0.398  14.357 -0.0066 -0.3670 -0.3878
16914TIP3    H172157   4.431   0.485  14.396  1.0600  0.0754 -1.5855
16914TIP3    H272158   4.488   0.345  14.404 -0.7895 -0.5705  0.4740
16915TIP3   OH272159   3.936   6.579  17.031 -0.0851 -0.3321 -1.1235
16915TIP3    H172160   4.026   6.559  17.057 -0.2453 -0.2561 -0.5057
16915TIP3    H272161   3.921   6.524  16.953 -0.2489 -2.0413  0.0933
16916TIP3   OH272162   6.402   4.417  17.233  0.1788 -0.1920  0.0018
16916TIP3    H172163   6.408   4.350  17.301  2.1763 -0.9066 -0.8165
16916TIP3    H272164   6.413   4.368  17.151  0.1067  0.9370 -0.6966
16917TIP3   OH272165   1.330   5.951  12.892  0.5399  0.3190  0.9055
16917TIP3    H172166   1.418   5.984  12.914  0.2219  0.8105  1.4891
16917TIP3    H272167   1.304   6.003  12.816  0.5422  0.5511  1.0608
16918TIP3   OH272168   3.154   5.892  14.692  0.3170  0.4703  0.5215
16918TIP3    H172169   3.065   5.860  14.674  1.3489 -0.3055 -3.5753
16918TIP3    H272170   3.162   5.972  14.640  1.9390  0.7037  1.0963
16919TIP3   OH272171   4.564   6.530   2.049 -0.3517 -0.7813  0.5955
16919TIP3    H172172   4.564   6.595   1.978 -2.3093 -1.7274 -0.3081
16919TIP3    H272173   4.574   6.581   2.129  1.3808  0.3489 -0.3247
16920TIP3   OH272174   5.252   5.895  16.654  0.0269 -0.1125 -1.3452
16920TIP3    H172175   5.267   5.864  16.564 -0.4665 -0.0539 -1.4514
16920TIP3    H272176   5.175   5.952  16.647  0.2227  0.1989 -0.9530
16921TIP3   OH272177   4.131   3.164   5.452 -0.0845 -0.1519 -0.1089
16921TIP3    H172178   4.177   3.211   5.521  1.0027  1.0234 -1.5839
16921TIP3    H272179   4.074   3.102   5.498  0.5766  0.6352  1.8122
16922TIP3   OH272180   2.135   2.801  12.148  0.0021  0.3222 -0.2205
16922TIP3    H172181   2.224   2.823  12.174  0.2395 -2.2818  1.3452
16922TIP3    H272182   2.095   2.765  12.227 -1.6418 -0.8043 -1.5313
16923TIP3   OH272183   0.851   3.069  11.587 -0.2104 -0.1419  0.3375
16923TIP3    H172184   0.879   2.988  11.631 -1.2501 -0.1090  1.0768
16923TIP3    H272185   0.862   3.137  11.654  1.6076  0.5095 -0.5874
16924TIP3   OH272186   3.853   2.292  16.186 -0.7453 -0.2417 -0.1621
16924TIP3    H172187   3.873   2.367  16.242 -0.9472  0.3798 -0.9024
16924TIP3    H272188   3.763   2.307  16.157 -0.7871 -0.7718 -0.3116
16925TIP3   OH272189   4.051   0.954   0.502  0.2031  0.2816  0.1213
16925TIP3    H172190   4.099   1.035   0.489 -1.7641  1.7606  1.8011
16925TIP3    H272191   3.968   0.967   0.455 -0.3023 -0.5653  0.7634
16926TIP3   OH272192   4.844   4.636  11.281  0.0855  0.4453 -0.1459
16926TIP3    H172193   4.832   4.563  11.221 -1.1131  0.5704 -0.0602
16926TIP3    H272194   4.831   4.714  11.228 -0.6038  0.5622  0.1873
16927TIP3   OH272195   4.796   5.997   0.063 -0.3006 -0.2681  0.4358
16927TIP3    H172196   4.739   5.927   0.093  3.1494 -2.8388  1.4005
16927TIP3    H272197   4.831   6.035   0.144 -0.1348  0.8067 -0.1400
16928TIP3   OH272198   1.450   3.737  17.210 -0.8288  0.1186 -0.1883
16928TIP3    H172199   1.386   3.672  17.237  0.0899 -0.6366  0.2256
16928TIP3    H272200   1.453   3.800  17.283 -1.1232  0.1747 -0.2255
16929TIP3   OH272201   1.828   3.453   2.573  0.4719 -0.0370  0.5532
16929TIP3    H172202   1.772   3.427   2.645  0.1291  1.0799  0.7042
16929TIP3    H272203   1.771   3.505   2.516  0.0425 -2.9600 -1.8373
16930TIP3   OH272204   0.707   6.674  15.875 -0.0366 -0.0347 -0.3020
16930TIP3    H172205   0.671   6.640  15.957  0.4581 -0.3358 -0.2084
16930TIP3    H272206   0.643   6.648  15.808 -1.0998  1.3414  0.1539
16931TIP3   OH272207   5.795   0.158   2.307 -0.1342 -0.3550 -0.1875
16931TIP3    H172208   5.719   0.166   2.249 -1.4687  1.1553  1.6962
16931TIP3    H272209   5.788   0.070   2.344 -1.8225  0.2797  1.0762
16932TIP3   OH272210   5.586   0.554   6.314  0.2088 -0.2215 -0.1381
16932TIP3    H172211   5.648   0.499   6.265 -0.5771 -0.0571 -1.3524
16932TIP3    H272212   5.567   0.505   6.393 -0.0677 -1.4611 -0.9624
16933TIP3   OH272213   0.041   6.527  13.552  0.3329 -0.2620 -0.2177
16933TIP3    H172214  -0.052   6.546  13.561  0.3755  0.1481 -0.6464
16933TIP3    H272215   0.046   6.467  13.477  0.2097 -1.8985  1.0497
16934TIP3   OH272216   4.439   2.808  16.981 -0.8491  0.5080 -0.0433
16934TIP3    H172217   4.414   2.861  17.057 -0.5650 -0.0462  0.4457
16934TIP3    H272218   4.361   2.758  16.960 -0.3221 -0.8818  1.1957
16935TIP3   OH272219   3.487   2.447   2.843 -0.3977 -0.0371  0.6005
16935TIP3    H172220   3.458   2.399   2.921 -3.1382  0.5376 -0.0171
16935TIP3    H272221   3.422   2.516   2.832  1.1822  1.2396 -0.9401
16936TIP3   OH272222   0.484   2.188  15.429  0.7990 -0.3022 -0.1139
16936TIP3    H172223   0.389   2.202  15.421  1.0708  1.1150 -0.9076
16936TIP3    H272224   0.491   2.105  15.477 -0.8436 -0.1741  0.4064
16937TIP3   OH272225   2.013   3.828   5.509  0.1204  0.5925 -0.2092
16937TIP3    H172226   1.944   3.801   5.570 -1.4533 -1.0276 -2.6155
16937TIP3    H272227   1.972   3.824   5.423  3.5868 -1.9012 -1.8803
16938TIP3   OH272228   0.510   3.892  14.474  0.3624  0.1682 -0.1209
16938TIP3    H172229   0.593   3.848  14.493  0.2844  0.4207  0.8448
16938TIP3    H272230   0.502   3.959  14.542 -0.6312  0.1483 -0.2035
16939TIP3   OH272231   3.284   1.637  16.986  0.0427 -0.4680  1.3895
16939TIP3    H172232   3.202   1.652  17.032  0.2890  3.1931  0.7482
16939TIP3    H272233   3.352   1.672  17.045  0.9365 -1.3796  0.9186
16940TIP3   OH272234   3.781   1.359   3.666  0.5162  0.5567  0.2873
16940TIP3    H172235   3.779   1.454   3.678 -1.4774  0.6171 -0.3699
16940TIP3    H272236   3.795   1.324   3.754  0.1241  1.4321  0.7048
16941TIP3   OH272237   0.508   3.451   6.077 -0.0165  0.5510  0.5117
16941TIP3    H172238   0.446   3.524   6.069 -0.7520 -0.3190 -2.3427
16941TIP3    H272239   0.587   3.482   6.031  0.9875  0.8996  2.4267
16942TIP3   OH272240   0.709   1.803  11.539 -0.2035 -0.1630 -0.1743
16942TIP3    H172241   0.805   1.800  11.546 -0.1572 -1.2395 -1.2220
16942TIP3    H272242   0.687   1.894  11.558  1.1089  0.3083 -0.8387
16943TIP3   OH272243   2.757   6.129  12.802 -0.6818 -0.2574 -0.6610
16943TIP3    H172244   2.792   6.195  12.742  1.4284 -0.9173 -0.2210
16943TIP3    H272245   2.817   6.131  12.877 -2.6836 -0.1618  0.9701
16944TIP3   OH272246   2.839   6.418  14.307  0.0410  0.2068  0.6634
16944TIP3    H172247   2.829   6.502  14.352  0.2025  0.2196  0.6757
16944TIP3    H272248   2.892   6.439  14.230  0.1497  0.1030  0.7103
16945TIP3   OH272249   5.662   0.530  15.887  0.0340 -0.3414  0.0424
16945TIP3    H172250   5.590   0.550  15.946  0.8822  0.9849  0.6725
16945TIP3    H272251   5.733   0.588  15.916  1.1002 -1.0837 -1.0298
16946TIP3   OH272252   2.058   2.138   0.456 -0.4362 -0.3742 -0.1017
16946TIP3    H172253   2.036   2.099   0.540 -1.2153 -0.0422 -0.1477
16946TIP3    H272254   2.023   2.227   0.461  2.5580  0.8291  0.5451
16947TIP3   OH272255   1.722   0.557  10.935 -0.5505  0.4293  0.4968
16947TIP3    H172256   1.754   0.617  10.868  0.2357  0.9766  1.3487
16947TIP3    H272257   1.740   0.470  10.900 -0.5598  0.7075 -0.2026
16948TIP3   OH272258   4.799   5.452   2.220 -0.1549  0.3409 -0.1423
16948TIP3    H172259   4.856   5.522   2.188  2.1055 -0.7435  1.3910
16948TIP3    H272260   4.723   5.455   2.161  0.5361  3.1182 -1.0010
16949TIP3   OH272261   2.491   3.656   4.582  0.0687  0.2760 -0.0445
16949TIP3    H172262   2.559   3.589   4.572  0.4812  0.5296  1.0410
16949TIP3    H272263   2.520   3.709   4.655  0.0825  2.0704 -1.3196
16950TIP3   OH272264   6.185   2.955  16.452 -0.3417 -0.3429  0.3348
16950TIP3    H172265   6.243   2.986  16.382 -0.0130  1.1378  1.2313
16950TIP3    H272266   6.236   2.889  16.498 -0.3596 -0.9397 -0.4943
16951TIP3   OH272267   5.109   6.024   2.017  0.5167 -0.0021 -0.8910
16951TIP3    H172268   5.157   5.951   2.058 -2.0935 -0.9782  0.5116
16951TIP3    H272269   5.071   5.986   1.938 -0.2309  0.0438 -0.5515
16952TIP3   OH272270   3.388   2.599  15.803  0.5256  0.3595  0.1310
16952TIP3    H172271   3.294   2.586  15.810  0.6363 -0.5797 -0.0644
16952TIP3    H272272   3.409   2.660  15.874 -0.0879 -0.1744  0.7717
16953TIP3   OH272273   1.393   0.640  10.465  0.5243  0.0036 -0.3618
16953TIP3    H172274   1.412   0.734  10.462  1.6858 -0.2150 -0.2345
16953TIP3    H272275   1.455   0.601  10.403  0.7441 -0.7819  0.3424
16954TIP3   OH272276   1.752   2.281   3.864 -0.1306 -0.2292 -0.1019
16954TIP3    H172277   1.828   2.338   3.856  0.1621 -0.0963  3.0796
16954TIP3    H272278   1.786   2.192   3.854  0.1172 -0.0642 -0.6986
16955TIP3   OH272279   6.610   3.247   4.790  0.4852  0.8051 -0.1491
16955TIP3    H172280   6.568   3.181   4.735  0.3436  0.9886 -0.2619
16955TIP3    H272281   6.697   3.258   4.751  1.1151 -0.4989  0.8421
16956TIP3   OH272282   1.833   4.896  15.070 -0.9388  0.1217  0.2745
16956TIP3    H172283   1.913   4.850  15.046 -0.3825 -1.1025  4.1799
16956TIP3    H272284   1.863   4.978  15.108 -1.6750  0.6820 -0.3152
16957TIP3   OH272285   2.316   2.158   0.541  0.0752 -0.0801  0.8049
16957TIP3    H172286   2.341   2.070   0.514 -2.8150 -1.1694  1.5186
16957TIP3    H272287   2.229   2.171   0.504 -0.9432  1.1599  3.4753
16958TIP3   OH272288   3.765   1.722  16.213 -0.0485 -0.5014  0.4034
16958TIP3    H172289   3.705   1.720  16.139  0.8409 -0.6721 -0.3207
16958TIP3    H272290   3.820   1.799  16.198 -0.2876 -0.1591  1.2284
16959TIP3   OH272291   4.930   6.056   2.661 -0.6693  0.1168  0.0663
16959TIP3    H172292   4.986   6.113   2.714 -0.2505  0.5616 -0.8445
16959TIP3    H272293   4.981   5.976   2.650 -1.1832 -0.3800  1.1938
16960TIP3   OH272294   0.678   2.778   0.847 -0.9170  0.4184 -0.0324
16960TIP3    H172295   0.747   2.814   0.903  0.6095 -1.0429 -0.9196
16960TIP3    H272296   0.698   2.814   0.760 -0.9238 -0.4589 -0.4018
16961TIP3   OH272297   3.320   3.921   0.354 -0.4905 -0.0190  0.2414
16961TIP3    H172298   3.346   3.830   0.336  0.3627 -0.0653  1.6434
16961TIP3    H272299   3.403   3.967   0.366 -0.9166  1.0197 -0.7744
16962TIP3   OH272300   4.058   3.919  13.621 -0.2324  0.0069  0.0335
16962TIP3    H172301   4.082   3.836  13.579 -1.6942 -0.7509  0.6674
16962TIP3    H272302   4.142   3.958  13.645  0.4654 -1.5197  0.1713
16963TIP3   OH272303   0.958   2.582   0.570 -0.1800 -0.1482 -0.1036
16963TIP3    H172304   0.872   2.547   0.544  0.3603 -1.3548 -0.3153
16963TIP3    H272305   0.972   2.548   0.658  0.8712 -1.4635 -0.7626
16964TIP3   OH272306   0.127   5.213   0.384  0.1553 -0.0207 -0.6764
16964TIP3    H172307   0.166   5.216   0.296 -1.3494 -0.4878 -1.3648
16964TIP3    H272308   0.062   5.283   0.384  0.2893  0.1098  0.1408
16965TIP3   OH272309   4.567   1.075   2.300  0.6100  0.0152  0.4052
16965TIP3    H172310   4.648   1.091   2.252 -0.3004 -0.8663 -1.4675
16965TIP3    H272311   4.579   0.988   2.338  1.3482  0.7303  1.8874
16966TIP3   OH272312   2.715   6.710   4.063 -0.2876  0.2459  0.2141
16966TIP3    H172313   2.759   6.728   4.146  0.6388 -3.6260  0.6338
16966TIP3    H272314   2.763   6.637   4.025 -4.2240 -1.9320 -0.9357
16967TIP3   OH272315   4.041   2.916   6.137  0.3478  0.3083  0.4920
16967TIP3    H172316   4.136   2.914   6.127  0.5682  0.8488  2.2420
16967TIP3    H272317   4.025   2.881   6.225 -1.1436 -0.6941 -0.1495
16968TIP3   OH272318   2.557   1.261   0.698  0.1215  0.1497  0.7631
16968TIP3    H172319   2.542   1.244   0.791 -0.9288 -0.2493  0.5232
16968TIP3    H272320   2.506   1.340   0.679  0.5994  0.4219  0.5988
16969TIP3   OH272321   1.039   6.246   2.379 -0.1615  0.2364  0.3138
16969TIP3    H172322   1.073   6.240   2.468  0.8878  0.1290 -0.0864
16969TIP3    H272323   0.959   6.193   2.380  1.5107 -2.4117  0.4026
16970TIP3   OH272324   3.842   4.743  15.747  0.0007 -0.6326 -0.3085
16970TIP3    H172325   3.762   4.784  15.782  0.5808 -0.3847  0.7738
16970TIP3    H272326   3.811   4.679  15.684 -1.1371 -1.5571  1.1541
16971TIP3   OH272327   1.978   4.839  12.682 -0.4824  0.3267 -0.3422
16971TIP3    H172328   1.995   4.823  12.774 -0.7934  2.8165  0.1780
16971TIP3    H272329   1.908   4.777  12.660 -0.6818 -0.0184  1.1862
16972TIP3   OH272330   4.604   2.672  17.237  0.3097  0.1365 -0.9020
16972TIP3    H172331   4.581   2.612  17.308 -0.6913  1.8645  0.2738
16972TIP3    H272332   4.604   2.617  17.158  1.2793 -1.7617  0.4012
16973TIP3   OH272333   2.073   3.376  14.674 -0.2918  0.1233 -0.1815
16973TIP3    H172334   1.988   3.377  14.719  0.0933  2.3252  0.5801
16973TIP3    H272335   2.136   3.358  14.743 -0.2173 -2.8686 -0.9797
16974TIP3   OH272336   1.142   4.821   5.529 -0.2542 -0.6025  0.1488
16974TIP3    H172337   1.140   4.872   5.448 -1.3023 -0.2598  0.3776
16974TIP3    H272338   1.220   4.767   5.521 -0.6599 -1.0012 -1.3490
16975TIP3   OH272339   3.930   3.628  12.471  0.0622 -0.0745  0.2585
16975TIP3    H172340   3.999   3.575  12.433  0.4385  1.4885 -1.3101
16975TIP3    H272341   3.974   3.707  12.502 -1.1710  1.6142 -2.1064
16976TIP3   OH272342   1.665   5.204   0.022  0.0779 -0.0700  0.9730
16976TIP3    H172343   1.602   5.263   0.064 -2.2020 -0.8787 -1.2053
16976TIP3    H272344   1.610   5.137  -0.020  2.3907 -0.5528 -1.3517
16977TIP3   OH272345   2.791   3.039  12.399 -0.1040 -0.0359 -0.3422
16977TIP3    H172346   2.880   3.008  12.381  0.2118  0.1521  0.8478
16977TIP3    H272347   2.740   2.959  12.410  0.2144 -0.1519  0.3446
16978TIP3   OH272348   1.270   4.892  13.865  0.5778  0.3108 -0.3442
16978TIP3    H172349   1.317   4.971  13.837  0.7769  0.4879  0.4757
16978TIP3    H272350   1.313   4.866  13.946 -0.8178  0.5515  0.4955
16979TIP3   OH272351   2.999   2.249  12.408 -0.3485  0.3805 -0.1372
16979TIP3    H172352   2.964   2.319  12.353  0.7383  0.0432 -1.2628
16979TIP3    H272353   3.092   2.267  12.415  0.2871 -1.9729 -1.9647
16980TIP3   OH272354   1.790   4.003  17.133 -0.1417  0.0710  0.3774
16980TIP3    H172355   1.783   4.058  17.055 -1.0450  0.2331  0.5649
16980TIP3    H272356   1.786   3.913  17.099  0.8124  0.1224  0.1217
16981TIP3   OH272357   1.693   2.526   2.073 -0.3138 -0.9002  0.2470
16981TIP3    H172358   1.752   2.565   2.137  1.7341 -1.4706 -1.2598
16981TIP3    H272359   1.692   2.433   2.094  0.3147 -1.0793 -0.4927
16982TIP3   OH272360   0.655   5.419  13.580 -0.1279 -0.3326 -0.3000
16982TIP3    H172361   0.588   5.361  13.545  0.9010 -1.1302 -0.9759
16982TIP3    H272362   0.691   5.372  13.655  0.5327 -0.4580 -0.6909
16983TIP3   OH272363   6.055   3.573   3.993  0.1125  0.2768 -0.5913
16983TIP3    H172364   5.969   3.607   3.969 -0.1673  0.5177  0.7072
16983TIP3    H272365   6.048   3.478   3.982 -0.6749  0.1900  0.5800
16984TIP3   OH272366   2.325   0.708  13.202 -0.0407  0.2840 -0.3593
16984TIP3    H172367   2.338   0.801  13.219 -0.2264  0.5869 -1.7491
16984TIP3    H272368   2.230   0.697  13.202 -0.0209  0.1172 -0.2906
16985TIP3   OH272369   6.681   5.393   0.418  0.4454  0.2046 -1.0332
16985TIP3    H172370   6.734   5.467   0.388  0.7191  0.2478 -0.4432
16985TIP3    H272371   6.631   5.367   0.341 -0.6304  1.8262 -0.9111
16986TIP3   OH272372   1.368   6.455   1.618 -0.1957  0.3240  0.3153
16986TIP3    H172373   1.399   6.541   1.589 -2.3711  1.9244  2.6048
16986TIP3    H272374   1.423   6.434   1.693  1.0637 -0.8393 -0.8941
16987TIP3   OH272375   0.663   4.241  13.244 -0.2139  0.4364  0.3501
16987TIP3    H172376   0.731   4.174  13.257  0.4877  1.1341  0.3300
16987TIP3    H272377   0.589   4.211  13.297  0.1356 -0.3077  0.4189
16988TIP3   OH272378   4.520   2.091   4.557 -0.8317  0.6109 -0.0280
16988TIP3    H172379   4.596   2.148   4.555 -0.5890  0.2982  0.3751
16988TIP3    H272380   4.535   2.029   4.485  0.6780 -1.2289  1.8042
16989TIP3   OH272381   0.697   2.059   4.860 -0.0756 -0.4418  0.0838
16989TIP3    H172382   0.768   2.081   4.800  0.2512  0.0339  0.6380
16989TIP3    H272383   0.625   2.117   4.835  0.1524 -0.0537  0.3208
16990TIP3   OH272384   2.841   3.808  16.173 -0.2507  0.4735  0.8734
16990TIP3    H172385   2.910   3.765  16.223 -0.4683 -0.5209  0.3258
16990TIP3    H272386   2.884   3.841  16.094 -0.4167 -0.2212  0.4914
16991TIP3   OH272387   6.074   5.268  13.811  0.0114 -0.0290  0.8701
16991TIP3    H172388   6.144   5.297  13.752 -0.6068 -2.2655 -1.0432
16991TIP3    H272389   6.091   5.315  13.893  1.9510  1.7924 -0.5018
16992TIP3   OH272390   6.742   3.631   0.218 -0.8624 -1.0027 -0.9197
16992TIP3    H172391   6.721   3.724   0.204  0.1364 -0.5024  0.7569
16992TIP3    H272392   6.831   3.632   0.255 -2.0953 -2.3993  2.2598
16993TIP3   OH272393   3.002   6.751  14.709 -0.2014 -0.5418 -0.0625
16993TIP3    H172394   2.981   6.680  14.649  0.9234  1.3544 -2.8046
16993TIP3    H272395   3.091   6.732  14.738  0.6574  0.4668 -1.9499
16994TIP3   OH272396   5.889   4.519   0.532  0.3816 -0.4964 -0.0069
16994TIP3    H172397   5.804   4.503   0.492  1.0055 -1.6348 -0.8859
16994TIP3    H272398   5.948   4.536   0.459  0.5830  1.9599  0.6809
16995TIP3   OH272399   2.850   5.089  14.359 -0.0518  0.4416 -0.7933
16995TIP3    H172400   2.788   5.052  14.296  0.0058  0.0339 -0.6053
16995TIP3    H272401   2.869   5.018  14.420  0.5368  0.5935 -0.7972
16996TIP3   OH272402   5.816   1.530   0.775  0.0779  0.1965  0.7350
16996TIP3    H172403   5.726   1.553   0.796 -0.4183 -1.0942  0.0970
16996TIP3    H272404   5.856   1.508   0.859 -0.5913 -0.5389  0.8666
16997TIP3   OH272405   6.025   4.504   0.275 -0.3050  0.6112  0.6820
16997TIP3    H172406   6.116   4.524   0.255  0.1488 -1.8741  0.1291
16997TIP3    H272407   5.975   4.561   0.217  0.9055  0.8870 -0.1090
16998TIP3   OH272408   2.742   1.503   1.491 -0.0311  0.1611 -0.2932
16998TIP3    H172409   2.784   1.559   1.426  2.6159 -1.8575 -0.4064
16998TIP3    H272410   2.727   1.420   1.445 -2.0292  0.0795  0.4615
16999TIP3   OH272411   1.762   2.571  15.523 -0.4647 -0.5808 -0.3996
16999TIP3    H172412   1.758   2.479  15.546 -2.8150 -0.4982 -0.4494
16999TIP3    H272413   1.680   2.608  15.554  0.5207  1.5539 -0.2014
17000TIP3   OH272414   5.817   6.339   3.764 -0.5543  0.3469 -0.3060
17000TIP3    H172415   5.743   6.321   3.706 -0.0567 -1.0905 -0.5200
17000TIP3    H272416   5.787   6.313   3.851 -1.0923  1.9408 -0.0006
17001TIP3   OH272417   5.826   5.037  14.227 -0.3846 -0.4077  0.4415
17001TIP3    H172418   5.854   5.062  14.138  2.5079 -1.2943  1.0373
17001TIP3    H272419   5.846   5.114  14.280 -1.6279 -0.0719  0.4403
17002TIP3   OH272420   0.157   6.175   1.634  0.1160 -0.6228 -0.4708
17002TIP3    H172421   0.136   6.082   1.639  1.8476 -0.9500  0.8784
17002TIP3    H272422   0.241   6.178   1.588 -0.5181  0.3667 -1.5879
17003TIP3   OH272423   4.158   1.257  13.009 -0.2673  0.7055 -0.2498
17003TIP3    H172424   4.142   1.250  12.915  0.2443 -0.1121 -0.2813
17003TIP3    H272425   4.253   1.254  13.018 -0.3653 -0.9351  0.4181
17004TIP3   OH272426   3.174   1.997  15.548  0.6595 -0.2667 -0.0896
17004TIP3    H172427   3.126   2.031  15.472  0.7588  0.2385  0.0744
17004TIP3    H272428   3.192   1.906  15.525 -0.0624 -0.3562 -0.3059
17005TIP3   OH272429   2.246   2.362   3.048 -0.2267 -0.0071 -0.1745
17005TIP3    H172430   2.314   2.429   3.039 -1.1832  1.0724  0.4762
17005TIP3    H272431   2.173   2.396   2.998 -0.6052 -0.7368 -0.1197
17006TIP3   OH272432   2.544   1.399  13.331 -0.2621  0.6013  0.1957
17006TIP3    H172433   2.527   1.482  13.287 -1.4531  0.0363 -0.4432
17006TIP3    H272434   2.635   1.377  13.308 -0.0821  1.5145  0.0351
17007TIP3   OH272435   4.645   1.159   4.954  0.0891 -0.5024  0.6113
17007TIP3    H172436   4.601   1.206   5.025 -0.2007 -0.0288  0.1214
17007TIP3    H272437   4.607   1.196   4.874 -0.1623 -1.5909  0.2229
17008TIP3   OH272438   4.680   4.759   4.454  0.3399 -0.3453  0.2303
17008TIP3    H172439   4.637   4.845   4.454  0.5492 -0.2422 -0.4621
17008TIP3    H272440   4.613   4.698   4.423  0.2939 -0.3836  0.4058
17009TIP3   OH272441   4.831   4.336   3.701  0.0941 -0.4116  0.0185
17009TIP3    H172442   4.853   4.384   3.621 -0.4574  0.1689  0.2116
17009TIP3    H272443   4.806   4.404   3.764  1.0322 -0.8188  0.8526
17010TIP3   OH272444   0.416   3.801   4.369  0.4855  0.2066 -0.9626
17010TIP3    H172445   0.409   3.723   4.424 -0.0587 -0.3774 -1.8444
17010TIP3    H272446   0.487   3.781   4.308  0.6152  0.5723 -0.9351
17011TIP3   OH272447   2.523   1.662   5.887 -0.4218 -0.5860 -0.0479
17011TIP3    H172448   2.573   1.593   5.844 -0.4085 -0.5434 -0.1015
17011TIP3    H272449   2.496   1.624   5.971 -0.4741 -0.6798 -0.1069
17012TIP3   OH272450   2.128   3.767  11.042  0.5127  0.1018 -1.1965
17012TIP3    H172451   2.203   3.826  11.028 -0.3441  1.3647 -0.5372
17012TIP3    H272452   2.145   3.726  11.127  0.5665  0.2219 -1.1488
17013TIP3   OH272453   5.832   4.296   4.212  0.4607 -0.1548 -0.7575
17013TIP3    H172454   5.836   4.381   4.170  0.3855  0.0130 -0.4313
17013TIP3    H272455   5.741   4.268   4.202  0.5785 -0.3726 -1.2068
17014TIP3   OH272456   0.841   1.408   2.492 -0.7108 -0.6588 -0.6279
17014TIP3    H172457   0.829   1.434   2.584  0.6799  1.9785 -1.1260
17014TIP3    H272458   0.906   1.338   2.496  1.4394  1.3012  0.2547
17015TIP3   OH272459   3.364   4.349  13.698 -0.4103 -0.7130  0.1076
17015TIP3    H172460   3.389   4.282  13.634  0.0080  0.5673 -1.0866
17015TIP3    H272461   3.445   4.396  13.716 -1.0309  0.5947 -0.4095
17016TIP3   OH272462   3.645   1.365  13.859  0.1525  0.1097 -0.0650
17016TIP3    H172463   3.590   1.315  13.919  0.0501  0.6192  0.2664
17016TIP3    H272464   3.734   1.353  13.893  0.0733  0.5498  0.2927
17017TIP3   OH272465   6.061   0.005   4.183  0.0511  0.2021 -0.1925
17017TIP3    H172466   6.145  -0.035   4.160  0.6724  1.1378  0.3971
17017TIP3    H272467   6.013   0.008   4.100 -0.3504 -2.4977 -0.0918
17018TIP3   OH272468   0.869   5.499  16.214 -0.0673 -0.3970  0.2383
17018TIP3    H172469   0.918   5.435  16.265  1.6558 -0.3450 -1.2873
17018TIP3    H272470   0.786   5.456  16.193  0.5802 -1.6616  0.2621
17019TIP3   OH272471   4.777   5.248  13.186 -0.1892  0.2550 -1.0562
17019TIP3    H172472   4.714   5.263  13.116  1.9815  2.6099 -2.5931
17019TIP3    H272473   4.785   5.332  13.230  0.6420 -0.4613  0.2056
17020TIP3   OH272474   5.331   3.500  15.201 -0.3311  0.0731  0.6891
17020TIP3    H172475   5.310   3.411  15.173  0.1751 -0.0672  0.7511
17020TIP3    H272476   5.371   3.489  15.287 -1.1644  0.4414  1.1343
17021TIP3   OH272477   6.527   1.274  11.625  0.1485  0.0204  0.2271
17021TIP3    H172478   6.585   1.242  11.556  1.5764  0.7501  1.0764
17021TIP3    H272479   6.445   1.294  11.579  0.7429 -0.4643 -1.0753
17022TIP3   OH272480   2.991   5.579  13.992  0.2155 -0.3430  0.0968
17022TIP3    H172481   3.049   5.575  14.068  0.5939  2.2254  0.0156
17022TIP3    H272482   3.048   5.566  13.917 -0.1865 -3.0616  0.2115
17023TIP3   OH272483   4.439   1.441   4.474  0.2285  0.0032 -0.2811
17023TIP3    H172484   4.484   1.438   4.558 -0.5509  0.4910  0.1723
17023TIP3    H272485   4.346   1.440   4.498 -0.0491 -3.2648 -1.2673
17024TIP3   OH272486   3.998   2.922   4.847 -0.8244 -0.2232  0.2495
17024TIP3    H172487   4.022   3.012   4.823  0.9529 -0.2599  1.8092
17024TIP3    H272488   4.029   2.869   4.774  0.1522  0.1806  0.3679
17025TIP3   OH272489   6.451   0.871   6.062 -0.1344 -0.0774 -0.3452
17025TIP3    H172490   6.509   0.914   5.999 -0.1772 -0.5308 -0.6980
17025TIP3    H272491   6.481   0.902   6.147  0.2371  0.1642 -0.5637
17026TIP3   OH272492   5.934   2.252  12.481 -0.0693 -0.5756  0.3600
17026TIP3    H172493   5.998   2.314  12.515  0.8513 -1.0367 -0.5054
17026TIP3    H272494   5.875   2.236  12.554  1.5084 -1.0732  1.5385
17027TIP3   OH272495   4.325   0.865   3.188 -0.1372  0.1884 -0.0141
17027TIP3    H172496   4.316   0.833   3.278 -2.5255  0.9990  0.0632
17027TIP3    H272497   4.315   0.786   3.134  0.2082 -0.1391  0.3982
17028TIP3   OH272498   4.569   3.080  12.271  0.0462 -0.0191  0.1195
17028TIP3    H172499   4.505   3.011  12.254  0.4017 -0.1897 -0.5239
17028TIP3    H272500   4.628   3.043  12.337  1.6298 -1.2254 -1.9060
17029TIP3   OH272501   5.795   0.069   2.687 -0.1349 -0.0049  0.0936
17029TIP3    H172502   5.869   0.054   2.628 -2.9688 -1.5998 -3.2070
17029TIP3    H272503   5.806   0.005   2.757  3.0210  1.6119  1.2058
17030TIP3   OH272504   5.248   1.616   1.575 -0.0508  0.1724 -0.0185
17030TIP3    H172505   5.227   1.539   1.523 -0.6893  0.1053  0.3316
17030TIP3    H272506   5.190   1.684   1.542 -0.0109  0.3029  0.1775
17031TIP3   OH272507   2.922   5.357   3.961  0.0258 -0.1266  0.4010
17031TIP3    H172508   2.868   5.427   3.996 -0.9536 -0.0951 -1.1483
17031TIP3    H272509   2.984   5.400   3.903 -0.2828 -0.4877 -0.2032
17032TIP3   OH272510   5.449   2.676  10.416 -0.0188  0.3194  0.2238
17032TIP3    H172511   5.504   2.718  10.350 -0.8149  0.9758 -0.0263
17032TIP3    H272512   5.482   2.586  10.420  1.0594  0.6956  0.0759
17033TIP3   OH272513   1.898   1.739   5.676  0.1005  0.4163  0.0934
17033TIP3    H172514   1.917   1.668   5.615  0.3592  2.0097 -1.7113
17033TIP3    H272515   1.803   1.737   5.686  0.3100 -1.8859  2.1945
17034TIP3   OH272516   6.395   3.579  12.370  1.0486 -0.3210 -0.5371
17034TIP3    H172517   6.385   3.486  12.349 -0.5524 -0.1953 -0.3751
17034TIP3    H272518   6.306   3.610  12.383  1.5631  1.3196 -0.8936
17035TIP3   OH272519   5.821   1.393   0.050  0.0712  0.2027  0.4066
17035TIP3    H172520   5.869   1.420   0.129  0.2008 -1.1784  0.8201
17035TIP3    H272521   5.861   1.309   0.026  0.3824  0.8586 -1.4511
17036TIP3   OH272522   5.780   0.920  13.354  0.1483  0.3553  0.2872
17036TIP3    H172523   5.694   0.958  13.371 -1.8563 -3.7227 -0.2241
17036TIP3    H272524   5.794   0.931  13.260  0.0826  0.7994  0.3294
17037TIP3   OH272525   5.396   3.185   3.787 -0.3807  0.0071  0.8757
17037TIP3    H172526   5.477   3.201   3.738 -1.1765  1.3553 -0.0555
17037TIP3    H272527   5.365   3.100   3.756 -0.4706  0.4946 -0.4182
17038TIP3   OH272528   2.883   3.749  11.843 -0.1208 -0.2447  0.1250
17038TIP3    H172529   2.967   3.795  11.846  0.8016 -1.9924  3.0536
17038TIP3    H272530   2.829   3.794  11.908 -0.1546 -1.5049  0.9833
17039TIP3   OH272531   2.483   5.069  16.236 -0.1712 -0.0440  0.3449
17039TIP3    H172532   2.479   5.135  16.168 -1.2990 -0.9521 -0.4916
17039TIP3    H272533   2.460   5.115  16.317 -0.0659  0.7674 -0.0880
17040TIP3   OH272534   3.682   2.987  12.240 -0.0248 -0.6704 -0.3187
17040TIP3    H172535   3.638   3.035  12.310 -2.8765 -1.8170 -1.2269
17040TIP3    H272536   3.692   3.052  12.170  0.8427 -0.0806  0.3499
17041TIP3   OH272537   3.516   3.922   5.694 -0.5897  0.4765  0.7349
17041TIP3    H172538   3.426   3.927   5.663 -0.4373 -0.0677  0.1774
17041TIP3    H272539   3.528   4.000   5.747 -0.5194  2.0485 -1.5186
17042TIP3   OH272540   3.775   0.255  16.382 -0.2686  0.6460 -0.7616
17042TIP3    H172541   3.714   0.198  16.429 -1.1462  2.6592  0.5828
17042TIP3    H272542   3.859   0.242  16.425 -0.0780 -0.8178 -1.5094
17043TIP3   OH272543   5.520   1.731   0.374  0.3410  0.1711 -1.1092
17043TIP3    H172544   5.549   1.642   0.396 -2.0517 -0.5244 -0.6620
17043TIP3    H272545   5.572   1.754   0.297  2.4949 -0.7777  0.0178
17044TIP3   OH272546   5.387   1.548   3.415 -0.2099 -0.5134  0.5711
17044TIP3    H172547   5.463   1.541   3.357 -1.5035 -1.0149 -1.1264
17044TIP3    H272548   5.376   1.643   3.427  1.2531 -0.4614  1.6408
17045TIP3   OH272549   4.619   2.676  14.524  0.5277 -0.3184  0.2230
17045TIP3    H172550   4.673   2.751  14.496 -0.5193  0.5404  0.4536
17045TIP3    H272551   4.626   2.614  14.451  1.4759 -0.0456  0.0636
17046TIP3   OH272552   1.417   3.984  14.917  0.3374  0.3703  0.5579
17046TIP3    H172553   1.510   4.002  14.909  0.9245 -2.0014  1.6005
17046TIP3    H272554   1.374   4.064  14.887  2.6678  0.5615 -2.4779
17047TIP3   OH272555   2.082   5.059   4.798 -0.0840 -0.1251  0.1247
17047TIP3    H172556   2.024   5.000   4.845 -0.4753 -0.9383 -1.3491
17047TIP3    H272557   2.090   5.135   4.855 -2.1953 -0.2084  0.5864
17048TIP3   OH272558   2.745   6.543   3.634 -0.3631 -0.3055  0.1314
17048TIP3    H172559   2.818   6.482   3.630 -0.6375 -0.5293 -1.5775
17048TIP3    H272560   2.780   6.625   3.598 -1.0833 -0.5587 -1.1769
17049TIP3   OH272561   6.583   2.787   1.017 -0.0043 -0.7862 -0.4743
17049TIP3    H172562   6.506   2.841   0.998  0.7719  0.3469 -0.4826
17049TIP3    H272563   6.616   2.762   0.932  0.2248 -0.4125 -0.4971
17050TIP3   OH272564   3.541   2.631  13.704  0.4207 -0.6333 -0.4337
17050TIP3    H172565   3.521   2.632  13.610 -4.0629  0.0182  0.3874
17050TIP3    H272566   3.616   2.690  13.713 -1.2909  2.1806 -3.2526
17051TIP3   OH272567   1.939   5.203  11.783 -0.9940  0.0711  0.3449
17051TIP3    H172568   1.886   5.138  11.739 -2.5954  1.3374  0.3342
17051TIP3    H272569   1.927   5.185  11.877 -3.2583  1.6687  0.4218
17052TIP3   OH272570   5.886   4.933  11.312 -0.0073  0.2392  0.3101
17052TIP3    H172571   5.921   5.000  11.371  0.5694  1.2515 -1.1398
17052TIP3    H272572   5.957   4.917  11.250 -1.4164  0.9663 -1.5490
17053TIP3   OH272573   5.181   6.348  17.139  0.6102  0.5496 -0.4412
17053TIP3    H172574   5.232   6.269  17.122 -2.0532 -1.8538  2.1069
17053TIP3    H272575   5.103   6.338  17.084 -1.0105 -0.0168  1.8634
17054TIP3   OH272576   4.331   2.597  11.418  0.5103 -0.0097  0.4830
17054TIP3    H172577   4.421   2.570  11.400  0.5096 -0.4960  1.1970
17054TIP3    H272578   4.281   2.568  11.341  0.8680 -0.2451  0.3401
17055TIP3   OH272579   6.112   0.638  16.708  0.6799 -0.0277 -0.3702
17055TIP3    H172580   6.113   0.558  16.655  0.1125 -0.7799  0.7187
17055TIP3    H272581   6.112   0.606  16.799 -0.7083  1.1781  0.0841
17056TIP3   OH272582   3.192   3.153   0.163 -0.3818 -0.6681  0.3100
17056TIP3    H172583   3.212   3.095   0.236  3.1302 -2.7137 -2.0823
17056TIP3    H272584   3.112   3.118   0.125  0.0449 -2.1469  0.7339
17057TIP3   OH272585   4.903   1.698   4.038  0.2657 -0.4418 -0.0687
17057TIP3    H172586   4.859   1.651   4.109 -2.5534 -1.7641 -2.5946
17057TIP3    H272587   4.936   1.629   3.981  3.6348  0.5947  0.5315
17058TIP3   OH272588   3.721   0.178  12.113  0.1784 -0.1707  0.1754
17058TIP3    H172589   3.699   0.085  12.118  1.2593 -0.3904  0.9286
17058TIP3    H272590   3.814   0.180  12.093  0.1170  0.7560 -0.0492
17059TIP3   OH272591   4.604   1.216  17.201  0.1014 -0.1006 -0.1759
17059TIP3    H172592   4.618   1.138  17.147  2.8023 -1.6511  2.5877
17059TIP3    H272593   4.691   1.253  17.213 -0.9399  2.3187  0.0763
17060TIP3   OH272594   4.467   6.787  10.583  0.3001  0.4339 -0.4267
17060TIP3    H172595   4.386   6.764  10.628 -0.0972 -1.3951 -2.0094
17060TIP3    H272596   4.516   6.705  10.578  1.8741  1.3449 -0.2374
17061TIP3   OH272597   2.640   5.183  15.337 -0.3828  0.4617  0.0142
17061TIP3    H172598   2.618   5.257  15.393 -0.3547  0.2297  0.3348
17061TIP3    H272599   2.677   5.222  15.258 -1.4740  0.8477 -0.3241
17062TIP3   OH272600   2.973   6.251   5.545 -0.0758 -0.1168 -0.8352
17062TIP3    H172601   2.878   6.261   5.555  0.0972 -0.9568  1.8895
17062TIP3    H272602   2.985   6.156   5.534  0.4678 -0.0162 -1.0790
17063TIP3   OH272603   4.700   4.409  15.921 -0.1419  0.9763  0.4611
17063TIP3    H172604   4.737   4.497  15.921 -1.2748  1.4515  0.9750
17063TIP3    H272605   4.635   4.410  15.850  1.1257  0.0035 -0.7510
17064TIP3   OH272606   1.108   2.560  16.887  0.4639 -0.4723 -0.4963
17064TIP3    H172607   1.098   2.651  16.858 -1.9396 -0.0648  1.4428
17064TIP3    H272608   1.098   2.564  16.983  0.1857 -2.7978 -0.3946
17065TIP3   OH272609   0.343   4.004   4.087  0.1436 -0.0976 -0.2229
17065TIP3    H172610   0.363   3.967   4.173  0.4416  0.0790 -0.2168
17065TIP3    H272611   0.410   4.071   4.073  1.8264 -2.0602 -1.8486
17066TIP3   OH272612   0.027   0.913  12.930 -0.2888 -0.1074 -0.2515
17066TIP3    H172613   0.053   0.974  12.999 -2.6076 -0.6716  1.1721
17066TIP3    H272614  -0.039   0.961  12.881 -2.0236 -1.3930  0.7887
17067TIP3   OH272615   2.566   3.524   1.342  0.4211  0.3134 -0.0170
17067TIP3    H172616   2.650   3.484   1.362  1.0158  2.2396  1.5054
17067TIP3    H272617   2.587   3.613   1.313 -1.0246  0.5029 -0.5493
17068TIP3   OH272618   3.733   0.925  16.343  0.2137  0.3934  0.0454
17068TIP3    H172619   3.762   1.015  16.354 -1.9343  1.2786 -1.1041
17068TIP3    H272620   3.774   0.877  16.414  1.2933  2.3038  0.7431
17069TIP3   OH272621   4.548   4.432   4.552 -0.2581  0.0833  0.4560
17069TIP3    H172622   4.606   4.361   4.526 -1.8236 -1.1998  0.3511
17069TIP3    H272623   4.486   4.439   4.479  0.9240  2.7259 -0.3181
17070TIP3   OH272624   3.660   5.170  11.482  0.3047 -0.1013  0.2518
17070TIP3    H172625   3.614   5.096  11.443  2.1006 -1.6128  0.9031
17070TIP3    H272626   3.665   5.149  11.575  1.3367  0.5599  0.3618
17071TIP3   OH272627   2.749   3.320   0.391  0.2275  0.0885 -0.4830
17071TIP3    H172628   2.744   3.290   0.300 -1.3086  0.0251 -0.3915
17071TIP3    H272629   2.818   3.387   0.390  0.3541 -0.0393 -1.6488
17072TIP3   OH272630   4.914   1.059   3.938 -0.1664 -0.3187 -0.1863
17072TIP3    H172631   4.994   1.007   3.932  0.8826  1.3378 -0.6972
17072TIP3    H272632   4.925   1.112   4.016 -2.3337 -2.6304  1.7722
17073TIP3   OH272633   5.955   0.123  13.894  0.1809  0.0125 -0.8650
17073TIP3    H172634   5.886   0.169  13.846 -0.7685 -0.7786 -0.2954
17073TIP3    H272635   6.036   0.165  13.867 -0.4613  0.4504 -2.1495
17074TIP3   OH272636   0.630   1.675  16.430  0.6677  0.0783 -0.0538
17074TIP3    H172637   0.619   1.583  16.451  0.9088  0.0062 -0.2388
17074TIP3    H272638   0.566   1.720  16.485  0.7811 -0.1735  0.2881
17075TIP3   OH272639   2.592   4.604   0.127 -0.3144 -0.4697  0.2524
17075TIP3    H172640   2.508   4.563   0.150  0.2905 -0.9416  1.7143
17075TIP3    H272641   2.602   4.674   0.191  1.1843 -1.4916  1.1735
17076TIP3   OH272642   4.537   5.832   0.131  0.2799  0.0028 -0.1038
17076TIP3    H172643   4.446   5.802   0.132 -0.1410  1.2731  0.9722
17076TIP3    H272644   4.589   5.752   0.139 -0.7505 -0.6775 -0.1297
17077TIP3   OH272645   5.539   5.411   3.649 -0.1751 -0.1818  0.0325
17077TIP3    H172646   5.479   5.362   3.593  1.8955 -0.8551 -1.6257
17077TIP3    H272647   5.606   5.348   3.674  0.8578  1.0335  0.3927
17078TIP3   OH272648   6.644   3.050   3.969  0.6521 -0.3013  0.1385
17078TIP3    H172649   6.734   3.042   4.000  0.2671 -1.0519  1.1181
17078TIP3    H272650   6.595   2.988   4.024 -0.5156  0.3758 -0.1299
17079TIP3   OH272651   0.546   1.739   3.206 -0.1364  0.6004 -0.2156
17079TIP3    H172652   0.554   1.741   3.111 -0.6785 -1.2260 -0.3106
17079TIP3    H272653   0.474   1.799   3.225 -2.3310 -1.6169 -1.2505
17080TIP3   OH272654   2.725   4.740   3.720 -0.3118 -0.1616 -0.1275
17080TIP3    H172655   2.767   4.714   3.638 -1.4039  2.9961 -1.7719
17080TIP3    H272656   2.689   4.659   3.755  1.6233 -1.8574 -1.8937
17081TIP3   OH272657   1.495   4.175   4.011 -0.3725 -0.3557 -0.1015
17081TIP3    H172658   1.511   4.232   4.086 -0.5236 -0.6353  0.1432
17081TIP3    H272659   1.524   4.226   3.936  3.0818 -1.3652  0.4454
17082TIP3   OH272660   3.045   1.681  17.130 -0.1054  0.5726  0.4176
17082TIP3    H172661   2.984   1.667  17.202  0.5903  0.0138  0.9002
17082TIP3    H272662   3.062   1.775  17.131 -2.1619  0.9940 -0.7080
17083TIP3   OH272663   1.850   2.361   5.630  0.1027  0.0576 -0.3024
17083TIP3    H172664   1.938   2.328   5.653 -0.0103 -0.1721 -0.1932
17083TIP3    H272665   1.866   2.444   5.586  0.3527  0.2218  0.1002
17084TIP3   OH272666   6.186   2.814   3.360 -0.4724 -0.6219 -0.5788
17084TIP3    H172667   6.255   2.752   3.337  0.5414  0.1437  0.3821
17084TIP3    H272668   6.106   2.776   3.322 -0.0350 -2.9735  0.7604
17085TIP3   OH272669   4.052   0.635  12.499  0.2216  0.0791  0.2344
17085TIP3    H172670   4.047   0.721  12.458  0.9408  0.3719  0.7501
17085TIP3    H272671   3.997   0.642  12.577  0.3662  0.1018  0.3339
17086TIP3   OH272672   0.806   6.772   1.540 -0.3388  0.1378 -0.3289
17086TIP3    H172673   0.800   6.823   1.621  3.0451  1.1973 -0.6634
17086TIP3    H272674   0.793   6.681   1.568 -3.1893  0.8259  0.7575
17087TIP3   OH272675   0.347   4.727   2.185  0.0995  0.1203 -0.3125
17087TIP3    H172676   0.422   4.734   2.244 -0.0299  2.2870 -0.3825
17087TIP3    H272677   0.385   4.692   2.104  1.3517  2.5251 -0.8305
17088TIP3   OH272678   2.392   2.472  12.729 -0.0025  0.0824 -0.2701
17088TIP3    H172679   2.353   2.387  12.708  2.7598 -0.9604 -1.3183
17088TIP3    H272680   2.439   2.498  12.650 -2.5565  3.6807 -0.7421
17089TIP3   OH272681   0.528   5.665  14.305  0.0396  0.1243  0.3063
17089TIP3    H172682   0.480   5.744  14.281  0.3768  1.1181  2.7531
17089TIP3    H272683   0.500   5.646  14.394  2.4886 -0.5504  0.9884
17090TIP3   OH272684   1.411   4.339  15.775  0.7611  0.8347 -0.0221
17090TIP3    H172685   1.440   4.390  15.699  1.1506 -1.0645 -1.1724
17090TIP3    H272686   1.492   4.311  15.818  0.5529  0.9043  0.4250
17091TIP3   OH272687   3.432   6.247  15.640 -0.1667 -0.0787  0.2073
17091TIP3    H172688   3.350   6.252  15.690  0.3480 -1.5745  1.2178
17091TIP3    H272689   3.434   6.157  15.607 -0.0042  0.5898 -1.6918
17092TIP3   OH272690   0.625   2.694   4.423  0.0274 -0.2229  0.1536
17092TIP3    H172691   0.674   2.612   4.417 -1.4364 -1.1624  0.7499
17092TIP3    H272692   0.533   2.668   4.419 -0.4673  1.3715  0.5392
17093TIP3   OH272693   5.146   4.735  14.470  0.0443  0.1484  0.5227
17093TIP3    H172694   5.233   4.701  14.490 -0.4759 -1.5579 -0.0426
17093TIP3    H272695   5.094   4.658  14.449 -1.0343  1.3349 -1.3194
17094TIP3   OH272696   5.042   4.295  11.479  0.1961 -0.4424 -0.0376
17094TIP3    H172697   4.959   4.249  11.465  0.8138 -1.0477 -1.9108
17094TIP3    H272698   5.019   4.388  11.475 -0.3547 -0.6100 -0.7960
17095TIP3   OH272699   5.377   1.315  12.828  0.0562  0.2793 -0.0469
17095TIP3    H172700   5.369   1.396  12.778  0.6611  1.9856  2.5520
17095TIP3    H272701   5.293   1.304  12.872 -0.1380 -0.6972 -0.6401
17096TIP3   OH272702   4.195   4.007  11.019  0.1788 -0.2248  0.6193
17096TIP3    H172703   4.170   4.099  11.008  0.2191 -0.4328 -1.2593
17096TIP3    H272704   4.125   3.970  11.073 -1.0286  0.3679 -0.5226
17097TIP3   OH272705   4.387   6.398  11.960  0.1945  0.0522 -0.4531
17097TIP3    H172706   4.425   6.322  11.915  0.2639 -0.4245  0.3925
17097TIP3    H272707   4.397   6.470  11.898 -0.4157 -0.7535 -1.5037
17098TIP3   OH272708   0.209   5.879  15.060  0.2048 -0.2015 -0.3590
17098TIP3    H172709   0.147   5.896  14.989 -0.3497 -0.7177  0.0004
17098TIP3    H272710   0.192   5.789  15.086 -0.3631  0.3294  1.1771
17099TIP3   OH272711   5.559   5.016  15.115  0.0177 -0.0693  0.0537
17099TIP3    H172712   5.540   5.043  15.205 -0.2992 -0.9486  0.2536
17099TIP3    H272713   5.489   4.954  15.094 -0.4129  0.7968 -1.1114
17100TIP3   OH272714   0.898   1.214  14.476  0.1086  0.3005 -0.2907
17100TIP3    H172715   0.892   1.284  14.412  2.3520  0.2727 -0.5718
17100TIP3    H272716   0.918   1.258  14.558  1.1864  0.0257 -0.4014
17101TIP3   OH272717   2.198   2.659   5.630 -0.3179  0.5810  0.3174
17101TIP3    H172718   2.259   2.586   5.640 -1.3216 -0.3187 -0.0490
17101TIP3    H272719   2.245   2.721   5.574 -0.8757 -1.4556 -2.5367
17102TIP3   OH272720   5.974   4.761   3.769 -0.4327  0.5649 -0.3902
17102TIP3    H172721   6.054   4.812   3.773  0.2375 -0.5702  1.1481
17102TIP3    H272722   5.914   4.804   3.830 -0.7181  0.9511 -0.9429
17103TIP3   OH272723   6.454   6.065  14.242 -0.6229 -0.3787  0.1389
17103TIP3    H172724   6.496   6.087  14.325 -1.1657  0.5101  0.1840
17103TIP3    H272725   6.475   5.973  14.228  1.5990  0.1301  0.0072
17104TIP3   OH272726   3.315   6.383  11.715 -0.0439 -0.0775  0.0438
17104TIP3    H172727   3.236   6.331  11.699 -0.3548  0.9233 -1.9130
17104TIP3    H272728   3.380   6.346  11.656  0.7242 -0.3869  1.0753
17105TIP3   OH272729   6.523   5.093  16.624  0.0420  0.2446  0.1892
17105TIP3    H172730   6.574   5.012  16.617 -0.8345 -0.2648 -0.5283
17105TIP3    H272731   6.432   5.063  16.625 -0.3683  1.3102 -1.8550
17106TIP3   OH272732   3.681   1.699  16.500 -0.3003 -0.0692 -0.1717
17106TIP3    H172733   3.678   1.686  16.405  0.4197  1.3053 -0.3986
17106TIP3    H272734   3.599   1.663  16.532 -1.8966  2.1105 -1.6698
17107TIP3   OH272735   1.815   3.138  11.040 -0.1281 -0.0369  0.2300
17107TIP3    H172736   1.830   3.068  10.975 -1.3214  0.6834 -0.8579
17107TIP3    H272737   1.834   3.219  10.992 -2.3791  0.5872  0.3383
17108TIP3   OH272738   4.947   5.040   6.418 -0.9552  0.0756  0.0007
17108TIP3    H172739   4.883   5.012   6.484 -0.2412 -0.4749  0.4631
17108TIP3    H272740   4.902   5.109   6.369 -0.7685  1.8664  2.3105
17109TIP3   OH272741   1.112   0.817   2.697 -0.1726 -0.4904  0.0785
17109TIP3    H172742   1.129   0.726   2.671  0.4218  0.0581 -1.5517
17109TIP3    H272743   1.052   0.811   2.771  0.3587 -2.2322  0.3817
17110TIP3   OH272744   4.069   3.864   1.834  0.0967 -0.9432  0.2547
17110TIP3    H172745   4.043   3.854   1.742 -2.4263  0.2261  0.7860
17110TIP3    H272746   4.131   3.936   1.834 -2.3439  1.2369 -0.1849
17111TIP3   OH272747   3.973   4.589   5.681  0.1430 -0.3369 -0.1561
17111TIP3    H172748   3.888   4.632   5.681 -0.0095 -0.5617 -2.0955
17111TIP3    H272749   3.954   4.499   5.708  0.1919  0.2948  2.0844
17112TIP3   OH272750   1.006   2.522   6.050  0.2659  0.2005  0.2879
17112TIP3    H172751   1.003   2.426   6.055  1.6646  0.0999 -0.5834
17112TIP3    H272752   0.991   2.542   5.958  0.7184  0.7759  0.3320
17113TIP3   OH272753   6.152   6.034   0.616 -0.2882  0.4832  0.0276
17113TIP3    H172754   6.226   6.052   0.557 -0.6204  1.0611 -0.2219
17113TIP3    H272755   6.162   6.097   0.687  0.1896 -0.3039  0.6752
17114TIP3   OH272756   0.829   5.338  15.534  0.3536 -0.6291 -0.1138
17114TIP3    H172757   0.875   5.261  15.568 -0.3784 -1.6480 -1.3662
17114TIP3    H272758   0.881   5.368  15.460 -0.7405 -1.5467 -1.2869
17115TIP3   OH272759   2.201   6.160  13.988  0.0307 -0.7987  0.2553
17115TIP3    H172760   2.198   6.198  13.901 -0.7820 -2.1254 -0.3222
17115TIP3    H272761   2.110   6.137  14.008  0.1316 -0.0572  1.6609
17116TIP3   OH272762   1.743   2.499   4.971 -0.4745  0.3715 -0.3051
17116TIP3    H172763   1.702   2.464   4.892  0.5328 -1.0733 -0.2124
17116TIP3    H272764   1.748   2.425   5.031 -0.8818  1.3677  0.9839
17117TIP3   OH272765   2.129   6.335   4.180  0.6915  0.3568  0.6343
17117TIP3    H172766   2.124   6.422   4.142  0.8459 -0.1859 -0.6563
17117TIP3    H272767   2.141   6.350   4.274  1.2295  1.7189  0.3528
17118TIP3   OH272768   3.174   2.168   3.543  0.0933  0.0585 -0.1232
17118TIP3    H172769   3.106   2.223   3.504 -0.1684  0.6017  1.0893
17118TIP3    H272770   3.160   2.082   3.502 -1.0190  0.2796 -0.2485
17119TIP3   OH272771   1.432   2.718  11.628  0.4456 -0.0450 -0.1547
17119TIP3    H172772   1.385   2.635  11.637 -0.9487  0.8774  1.4071
17119TIP3    H272773   1.452   2.725  11.535 -2.2177 -0.6346 -0.8070
17120TIP3   OH272774   2.061   4.398   4.300 -0.8798 -0.0312 -0.2918
17120TIP3    H172775   2.138   4.423   4.350 -0.6409  0.1532 -0.7529
17120TIP3    H272776   1.988   4.442   4.343 -0.8139 -0.7151  0.5314
17121TIP3   OH272777   3.340   1.425   5.149  0.1722 -0.5238 -0.0102
17121TIP3    H172778   3.308   1.497   5.203 -2.1487  1.4279 -3.7286
17121TIP3    H272779   3.433   1.444   5.137 -0.4269  1.9738 -0.9985
17122TIP3   OH272780   4.714   6.512   1.738  0.6172 -0.0343 -0.2750
17122TIP3    H172781   4.648   6.579   1.754  0.1221 -0.7053  0.5368
17122TIP3    H272782   4.773   6.552   1.674  0.2148  1.0966  0.0329
17123TIP3   OH272783   3.997   1.510  16.534 -0.2058 -0.0563 -0.0237
17123TIP3    H172784   3.973   1.588  16.585 -1.5914 -0.2438 -0.3775
17123TIP3    H272785   3.913   1.475  16.502  0.6020 -0.1912 -2.0779
17124TIP3   OH272786   4.027   1.866  11.466  0.3953 -0.3609  0.0010
17124TIP3    H172787   4.034   1.942  11.409  0.5341  0.6462  1.3504
17124TIP3    H272788   4.069   1.795  11.416  0.4061  0.4705 -1.1896
17125TIP3   OH272789   5.104   3.713  14.006  0.2519 -0.6003  0.1292
17125TIP3    H172790   5.069   3.792  13.966  0.1345 -0.4856  0.4555
17125TIP3    H272791   5.041   3.690  14.074  0.2185 -1.0483 -0.0490
17126TIP3   OH272792   0.615   5.812  13.383 -0.1154  0.3596  0.0563
17126TIP3    H172793   0.618   5.727  13.427 -0.1888  0.8095  0.9314
17126TIP3    H272794   0.701   5.822  13.343  0.3948  0.5325  1.1907
17127TIP3   OH272795   5.802   5.884   1.389 -0.2890 -0.4729 -0.2371
17127TIP3    H172796   5.733   5.840   1.439  0.6502 -1.1327  0.5015
17127TIP3    H272797   5.815   5.828   1.312  0.6149 -1.2811  0.4929
17128TIP3   OH272798   2.139   0.897  13.604 -0.0099 -0.4981  0.2984
17128TIP3    H172799   2.165   0.820  13.554  1.5061  1.6270 -2.3031
17128TIP3    H272800   2.207   0.907  13.671 -0.5009 -1.6956  0.9902
17129TIP3   OH272801   2.113   1.192   0.264  0.1904 -0.2799  0.6487
17129TIP3    H172802   2.061   1.181   0.344  0.0278  0.5146  0.6586
17129TIP3    H272803   2.048   1.211   0.196  0.1077 -3.1368 -0.1476
17130TIP3   OH272804   3.902   4.075  15.214 -0.2453 -0.2853  0.6007
17130TIP3    H172805   3.829   4.095  15.272 -0.8944 -0.8483 -0.0172
17130TIP3    H272806   3.895   4.140  15.144  0.2787  0.1178  0.9184
17131TIP3   OH272807   1.756   1.543  14.120  0.0718 -0.5118  0.0267
17131TIP3    H172808   1.768   1.494  14.038 -1.8042  0.8510 -1.1118
17131TIP3    H272809   1.667   1.519  14.148 -0.4682  1.4255 -0.0005
17132TIP3   OH272810   6.182   2.056  12.175 -0.3983 -0.4123 -0.0093
17132TIP3    H172811   6.109   2.116  12.163 -1.7462 -2.0112 -0.0090
17132TIP3    H272812   6.260   2.111  12.170 -1.6872  1.7832  2.8759
17133TIP3   OH272813   2.697   3.722   3.663 -0.3650 -0.3419  0.3616
17133TIP3    H172814   2.754   3.676   3.602  0.0194 -0.3131  0.6945
17133TIP3    H272815   2.618   3.743   3.613 -0.1433 -0.5195 -0.0546
17134TIP3   OH272816   3.180   4.583   5.908  0.1953  0.7341 -0.0676
17134TIP3    H172817   3.137   4.623   5.984  0.1099  0.5329 -0.0118
17134TIP3    H272818   3.109   4.566   5.846  0.2045  0.4632 -0.0023
17135TIP3   OH272819   3.009   1.426   1.840  0.3929  0.4277  0.1413
17135TIP3    H172820   3.009   1.376   1.922 -1.0494  1.3537  0.7144
17135TIP3    H272821   2.917   1.441   1.821  0.7445  0.7959 -1.3115
17136TIP3   OH272822   1.603   4.051   4.750  0.1674 -0.4045  0.5031
17136TIP3    H172823   1.597   3.960   4.776 -0.3206 -0.9640 -1.4547
17136TIP3    H272824   1.697   4.067   4.739  0.2004 -0.9410 -0.0306
17137TIP3   OH272825   6.756   6.549  14.336  0.5870 -0.1665 -0.1851
17137TIP3    H172826   6.713   6.606  14.400  0.3994 -0.5905  0.0653
17137TIP3    H272827   6.789   6.609  14.269 -2.2665 -0.0051 -1.5099
17138TIP3   OH272828   1.108   4.824  14.211 -0.0147  0.2474  0.6776
17138TIP3    H172829   1.099   4.906  14.163  0.9496  0.9475  1.6397
17138TIP3    H272830   1.025   4.813  14.258 -0.3878  0.3336  0.0354
17139TIP3   OH272831   0.788   5.605  12.981  0.2458 -0.7224 -0.3735
17139TIP3    H172832   0.730   5.600  12.906 -0.2798 -1.3723  0.0718
17139TIP3    H272833   0.738   5.652  13.048  0.5441 -0.5303 -0.2854
17140TIP3   OH272834   1.630   6.739   3.007  0.2779 -0.0280  0.8338
17140TIP3    H172835   1.561   6.801   2.985  0.3926 -0.2957 -0.3015
17140TIP3    H272836   1.711   6.787   2.994  0.3031  0.5125  2.8717
17141TIP3   OH272837   5.005   4.946   3.116 -0.2608 -0.3610 -0.0253
17141TIP3    H172838   5.090   4.961   3.075 -0.1659  0.1539  0.3438
17141TIP3    H272839   5.019   4.873   3.175  0.2927  0.6008  1.0615
17142TIP3   OH272840   2.113   4.281  14.705 -0.1715 -0.2917  0.5949
17142TIP3    H172841   2.080   4.356  14.656  0.6371 -0.6606 -0.5273
17142TIP3    H272842   2.174   4.238  14.645  1.6535 -0.1302  2.3176
17143TIP3   OH272843   2.156   5.624  14.701  0.2736  0.0148  1.3882
17143TIP3    H172844   2.097   5.622  14.776 -0.5628  0.4488  0.7516
17143TIP3    H272845   2.134   5.545  14.650 -0.8209  0.9467  0.3705
17144TIP3   OH272846   5.605   2.207   3.827 -0.1178  0.5260 -0.5140
17144TIP3    H172847   5.605   2.152   3.905  0.8301  0.1921 -0.7447
17144TIP3    H272848   5.534   2.270   3.842  1.2701  1.6781  1.4690
17145TIP3   OH272849   2.322   3.506   1.138  0.3221  0.0093 -0.2985
17145TIP3    H172850   2.357   3.535   1.222 -2.2653 -1.9020  1.4963
17145TIP3    H272851   2.383   3.440   1.107  1.5919  1.1324 -0.2484
17146TIP3   OH272852   4.103   2.688   1.011  0.4153  0.9372  0.1326
17146TIP3    H172853   4.107   2.707   1.105 -2.0945 -0.4604  0.5506
17146TIP3    H272854   4.017   2.721   0.983  0.9903  1.0267 -1.6138
17147TIP3   OH272855   1.111   1.036  11.696  0.1989 -0.6464 -0.1242
17147TIP3    H172856   1.107   1.064  11.788 -1.3706  1.2756 -0.7217
17147TIP3    H272857   1.058   0.956  11.693  0.5265 -0.9002  0.6933
17148TIP3   OH272858   0.779   1.050   2.307 -0.4531 -0.7081 -0.6504
17148TIP3    H172859   0.787   1.001   2.389 -0.6212  1.8454  0.9335
17148TIP3    H272860   0.685   1.067   2.298 -0.0450  2.5454  0.7909
17149TIP3   OH272861   1.732   2.895   0.375  0.4797 -0.0984 -0.2284
17149TIP3    H172862   1.801   2.946   0.417  0.3531 -0.4439  0.4023
17149TIP3    H272863   1.700   2.952   0.305 -0.4050  1.1456  1.1484
17150TIP3   OH272864   3.257   2.496   2.281  0.2556 -0.5236  0.5321
17150TIP3    H172865   3.294   2.575   2.242  0.3419  0.0248  1.6817
17150TIP3    H272866   3.200   2.460   2.213  1.9246 -0.6902 -0.7966
17151TIP3   OH272867   3.962   0.857  14.275 -0.4392  0.0085 -1.1463
17151TIP3    H172868   4.044   0.846  14.228  0.0364 -1.7337  0.0276
17151TIP3    H272869   3.967   0.794  14.347 -1.7004  1.6553  0.4568
17152TIP3   OH272870   2.999   0.257   4.142  0.3168  0.2208  0.2756
17152TIP3    H172871   3.049   0.178   4.122 -0.5632  0.2804 -2.3339
17152TIP3    H272872   3.065   0.320   4.172  1.2268 -1.0034  0.9039
17153TIP3   OH272873   5.181   0.893  11.349 -0.3074 -0.0035  0.8173
17153TIP3    H172874   5.096   0.881  11.306  0.4620 -1.0005 -0.4534
17153TIP3    H272875   5.220   0.967  11.304  0.7459 -1.4129 -0.6108
17154TIP3   OH272876   2.957   5.728  15.395  0.2390 -0.4877 -0.0286
17154TIP3    H172877   3.035   5.716  15.340  1.7369  2.7024  1.2227
17154TIP3    H272878   2.902   5.788  15.345  0.5878  0.6474  0.9167
17155TIP3   OH272879   1.789   0.397  13.769  0.5231 -1.4917  0.5430
17155TIP3    H172880   1.737   0.334  13.819 -1.1431 -1.0901 -0.6492
17155TIP3    H272881   1.845   0.439  13.834 -0.0095 -2.5637  1.7066
17156TIP3   OH272882   3.289   2.603  12.111  0.5099 -0.3376  0.0660
17156TIP3    H172883   3.344   2.660  12.165  2.2309 -1.2050 -0.7358
17156TIP3    H272884   3.244   2.663  12.051  0.8190  0.3571  0.5244
17157TIP3   OH272885   6.208   6.533  11.870  0.1189 -0.1765  0.1408
17157TIP3    H172886   6.270   6.566  11.934 -0.5031  0.2369  0.5380
17157TIP3    H272887   6.257   6.528  11.789 -0.1200  3.0991 -0.2763
17158TIP3   OH272888   4.623   1.012  15.204 -0.4002  0.0070  0.2637
17158TIP3    H172889   4.598   0.949  15.136  0.9978 -1.1534  0.8004
17158TIP3    H272890   4.621   1.097  15.160  1.3365 -0.8244 -1.4827
17159TIP3   OH272891   5.850   0.914   1.247  0.4775 -0.8001 -0.0940
17159TIP3    H172892   5.784   0.851   1.219  1.6950 -1.3634 -1.7784
17159TIP3    H272893   5.919   0.860   1.286  1.5347 -0.5347 -1.5623
17160TIP3   OH272894   2.457   3.298  13.894 -0.4151  0.0986  0.2890
17160TIP3    H172895   2.476   3.296  13.987  0.8680 -1.5315  0.0133
17160TIP3    H272896   2.519   3.362  13.858 -1.9275  1.8687  0.7359
17161TIP3   OH272897   1.094   1.842   4.373 -0.6120 -0.3310  0.4234
17161TIP3    H172898   1.079   1.844   4.278  4.0761  0.7776 -0.4086
17161TIP3    H272899   1.105   1.749   4.393  1.2450 -0.3758 -0.6784
17162TIP3   OH272900   2.019   5.561  12.710  0.4316 -0.2138 -0.0864
17162TIP3    H172901   2.092   5.618  12.688 -1.0426  1.3097 -1.0940
17162TIP3    H272902   1.977   5.542  12.626 -1.4149  0.4333  0.6615
17163TIP3   OH272903   3.353   6.125  13.025  0.3914  0.1223 -0.0065
17163TIP3    H172904   3.434   6.159  13.063  1.0585 -2.1539  0.7047
17163TIP3    H272905   3.283   6.175  13.067  1.3140  0.2219  1.4482
17164TIP3   OH272906   1.240   5.346  13.576  0.4324  0.4797  0.3596
17164TIP3    H172907   1.217   5.254  13.562  2.6315 -0.4669  2.4602
17164TIP3    H272908   1.333   5.351  13.553  0.7241  1.8247  1.7427
17165TIP3   OH272909   6.510   2.220  11.150 -0.3957 -0.9252 -0.3804
17165TIP3    H172910   6.447   2.283  11.184 -0.4939 -0.8252 -0.7436
17165TIP3    H272911   6.459   2.166  11.089 -0.0436 -0.5895 -0.9810
17166TIP3   OH272912   1.327   4.866  14.695  0.5414  0.0338  0.1594
17166TIP3    H172913   1.357   4.777  14.711  0.0153  0.0534  1.3140
17166TIP3    H272914   1.234   4.864  14.716  0.5716  0.9087  0.3948
17167TIP3   OH272915   6.059   0.162   4.430  0.0955 -0.3927  0.3589
17167TIP3    H172916   6.103   0.234   4.386  0.0107 -0.0760  0.7937
17167TIP3    H272917   6.037   0.101   4.359  0.6819 -0.2684  0.0673
17168TIP3   OH272918   4.312   4.189  16.835  0.2617 -0.1606  0.2305
17168TIP3    H172919   4.351   4.145  16.760  0.2865  0.8117 -0.3284
17168TIP3    H272920   4.371   4.170  16.908  0.0472 -1.4016  0.0881
17169TIP3   OH272921   2.998   3.817   2.793 -0.0767 -0.3372  0.3803
17169TIP3    H172922   3.067   3.873   2.828  0.0844 -0.2001 -0.1516
17169TIP3    H272923   3.042   3.735   2.771  0.3290  0.4647 -1.8792
17170TIP3   OH272924   5.888   5.914  14.357 -0.1428  0.0204 -0.3851
17170TIP3    H172925   5.876   5.826  14.393 -2.0874  0.1832 -0.5674
17170TIP3    H272926   5.844   5.972  14.419  2.0529  1.0030  0.2976
17171TIP3   OH272927   0.776   0.681   0.981  0.0643  0.1958 -0.2561
17171TIP3    H172928   0.819   0.635   0.909 -0.0500  0.6859 -0.6406
17171TIP3    H272929   0.847   0.722   1.031  0.0197  1.3705 -1.1425
17172TIP3   OH272930   1.531   2.513  15.652 -0.1615 -0.6727  0.0344
17172TIP3    H172931   1.537   2.441  15.714 -0.3511 -0.8359 -0.1377
17172TIP3    H272932   1.488   2.583  15.701  2.8788  0.4609  1.2399
17173TIP3   OH272933   3.918   2.873   4.350  0.1144  0.6515  0.1153
17173TIP3    H172934   3.914   2.793   4.403 -0.8399 -1.1176 -2.5145
17173TIP3    H272935   4.010   2.898   4.352  0.7549 -1.5243 -0.4159
17174TIP3   OH272936   6.232   4.892  13.614  0.6453 -0.3057  0.3095
17174TIP3    H172937   6.205   4.887  13.705 -0.6357  2.5286  0.1427
17174TIP3    H272938   6.308   4.834  13.608 -1.7141 -3.7083  2.1751
17175TIP3   OH272939   3.093   5.619   0.838  0.4514 -0.0272 -0.4100
17175TIP3    H172940   3.056   5.682   0.776  1.0509  0.6081 -0.1329
17175TIP3    H272941   3.152   5.565   0.785 -0.8559 -1.0454 -0.8516
17176TIP3   OH272942   6.078   4.975  13.354  0.2871  0.2418  0.2588
17176TIP3    H172943   6.128   4.894  13.345 -0.0093 -0.1844  2.1661
17176TIP3    H272944   5.990   4.953  13.322  0.8611  0.5305 -1.5528
17177TIP3   OH272945   3.037   2.639   0.438 -0.2906 -0.3292 -0.0728
17177TIP3    H172946   2.989   2.634   0.356  2.8217  1.0895 -2.0804
17177TIP3    H272947   3.108   2.576   0.428 -0.5998 -1.0591  2.0833
17178TIP3   OH272948   5.791   0.455  12.189  0.6321 -0.6291  0.3687
17178TIP3    H172949   5.840   0.387  12.143 -0.4677  0.2329 -2.1839
17178TIP3    H272950   5.808   0.534  12.138 -1.0353  0.2583  1.1659
17179TIP3   OH272951   0.776   1.813   0.055 -0.4661  0.5743  0.1738
17179TIP3    H172952   0.866   1.846   0.053 -0.8303  1.5910 -0.0718
17179TIP3    H272953   0.736   1.857   0.131 -1.2983  1.6457 -0.8485
17180TIP3   OH272954   3.639   5.787  13.147  0.3006 -0.6109  0.6011
17180TIP3    H172955   3.605   5.753  13.064  0.1163 -3.0638  1.6496
17180TIP3    H272956   3.643   5.711  13.204  2.4347  0.6570  2.2070
17181TIP3   OH272957   6.689   4.524   0.299  0.2240  0.3526  0.4421
17181TIP3    H172958   6.646   4.543   0.215 -0.4180  0.9115  0.8874
17181TIP3    H272959   6.782   4.513   0.276 -0.2069 -1.3368 -0.5978
17182TIP3   OH272960   1.227   5.457   2.277  0.0419 -0.0966 -0.0365
17182TIP3    H172961   1.156   5.427   2.334  0.5088  0.1277  0.6713
17182TIP3    H272962   1.301   5.470   2.336  0.8326 -0.8599 -0.8560
17183TIP3   OH272963   2.959   3.048  15.257  0.2084 -0.0401 -0.3701
17183TIP3    H172964   2.906   3.093  15.322  1.0921  0.0067  0.3399
17183TIP3    H272965   3.034   3.106  15.244 -0.1795  0.1609 -1.7671
17184TIP3   OH272966   6.282   4.499  16.931 -0.1941 -0.6677 -0.6483
17184TIP3    H172967   6.203   4.503  16.877 -1.6539  1.0014  1.5299
17184TIP3    H272968   6.252   4.516  17.020  2.6003 -0.0507  0.2433
17185TIP3   OH272969   6.266   5.662  14.231 -0.1545  0.1793 -0.4190
17185TIP3    H172970   6.356   5.693  14.232 -0.0189 -0.1887 -1.2279
17185TIP3    H272971   6.251   5.629  14.320  0.7087 -0.3376 -0.4637
17186TIP3   OH272972   4.825   2.399  12.766  0.0501  0.0510 -0.4864
17186TIP3    H172973   4.730   2.391  12.774  0.0376  2.2800  3.2383
17186TIP3    H272974   4.838   2.480  12.717 -0.0431  0.9063  0.8582
17187TIP3   OH272975   1.579   3.941   4.095  0.6167 -0.0715  0.5586
17187TIP3    H172976   1.545   4.027   4.073 -0.8047 -1.0490 -1.1988
17187TIP3    H272977   1.632   3.916   4.019  1.8023 -0.3659  1.4589
17188TIP3   OH272978   1.906   6.343  11.801  0.2815  0.0188  0.3769
17188TIP3    H172979   1.906   6.277  11.870  0.1454 -1.1232 -0.7213
17188TIP3    H272980   1.832   6.320  11.745  0.5673  0.7796 -0.3266
17189TIP3   OH272981   4.989   5.512  14.404 -0.1160 -0.1703  0.6146
17189TIP3    H172982   5.049   5.495  14.331  1.3437  1.6819  1.3355
17189TIP3    H272983   4.919   5.566  14.365 -0.1890 -0.5255  0.2448
17190TIP3   OH272984   0.414   3.434   5.765 -0.0922 -0.2646 -0.0163
17190TIP3    H172985   0.409   3.530   5.758  1.7029 -0.2204 -1.0268
17190TIP3    H272986   0.449   3.419   5.853 -1.7557 -0.0592  0.7006
17191TIP3   OH272987   5.955   6.491   3.038 -0.7994 -0.3528  0.1372
17191TIP3    H172988   5.985   6.508   3.127 -0.4428  0.3501 -0.1139
17191TIP3    H272989   6.035   6.477   2.988 -0.9138  0.7448 -0.3778
17192TIP3   OH272990   5.060   0.297  13.260  0.2297 -0.1030 -0.0161
17192TIP3    H172991   5.020   0.330  13.341  1.1093  0.4065  0.2155
17192TIP3    H272992   5.041   0.203  13.261  0.5552 -0.1641  0.9743
17193TIP3   OH272993   2.966   4.316  15.281 -0.2568 -0.5041  0.1368
17193TIP3    H172994   2.931   4.385  15.337 -0.0895 -0.9971  0.8434
17193TIP3    H272995   2.888   4.278  15.239 -0.3250  0.3166 -0.4968
17194TIP3   OH272996   6.212   1.638   2.731  0.1937 -1.0941  0.2232
17194TIP3    H172997   6.164   1.557   2.716  2.4907 -2.3103 -0.7617
17194TIP3    H272998   6.286   1.634   2.670  1.5812  0.6976  1.7167
17195TIP3   OH272999   3.167   0.789   0.903 -0.3651 -0.1647  0.6505
17195TIP3    H173000   3.114   0.842   0.842  1.3872 -2.3683 -2.9235
17195TIP3    H273001   3.102   0.738   0.952 -1.8341  1.7942  0.8293
17196TIP3   OH273002   6.319   5.259   3.841 -0.3937  0.4938  0.4468
17196TIP3    H173003   6.353   5.172   3.857 -0.7993  0.4716  1.1846
17196TIP3    H273004   6.363   5.288   3.761 -0.2642 -0.3856  0.2006
17197TIP3   OH273005   2.370   3.909  13.246  0.5364  1.0898 -0.0501
17197TIP3    H173006   2.332   3.896  13.333  0.7762  1.6986  0.1424
17197TIP3    H273007   2.380   3.820  13.211  1.7201  0.7767  1.0759
17198TIP3   OH273008   4.734   4.497   0.681  0.6089  0.2117  0.6048
17198TIP3    H173009   4.786   4.426   0.642  0.3918  1.1410 -1.4245
17198TIP3    H273010   4.778   4.577   0.652 -0.6974  0.9650  0.6872
17199TIP3   OH273011   2.537   3.543   0.197  0.6792 -0.2973 -0.7281
17199TIP3    H173012   2.570   3.517   0.111 -0.3086  0.1752 -1.2738
17199TIP3    H273013   2.509   3.462   0.239 -0.0077 -0.4074 -1.3802
17200TIP3   OH273014   1.764   4.654   2.970 -0.4356 -0.8860 -0.0364
17200TIP3    H173015   1.759   4.641   3.065 -1.0590 -0.0433  0.0641
17200TIP3    H273016   1.779   4.748   2.960 -2.3440 -0.6267 -0.7963
17201TIP3   OH273017   4.546   1.989  14.661 -0.0314  0.0648  0.1312
17201TIP3    H173018   4.564   2.040  14.582  0.8274  0.3380  0.4960
17201TIP3    H273019   4.633   1.969  14.697 -0.3867 -0.9941  0.4055
17202TIP3   OH273020   6.523   4.643  14.657 -0.4356 -0.0656 -0.5113
17202TIP3    H173021   6.501   4.557  14.695 -1.7618 -0.1740 -1.4762
17202TIP3    H273022   6.532   4.701  14.732 -0.0242 -0.9440  0.1295
17203TIP3   OH273023   2.061   4.957   2.188  0.1381 -0.0613  0.1196
17203TIP3    H173024   2.142   4.959   2.240 -0.1507  0.8019  0.5496
17203TIP3    H273025   2.089   4.932   2.100  1.3046  3.0980 -0.4652
17204TIP3   OH273026   3.538   3.296   4.813 -0.4650 -0.1483 -0.4673
17204TIP3    H173027   3.631   3.272   4.814 -0.6154 -0.7163 -0.4482
17204TIP3    H273028   3.532   3.362   4.744  0.2417  1.0642  0.5903
17205TIP3   OH273029   6.342   0.104   0.806 -0.1702  0.1230 -0.5063
17205TIP3    H173030   6.399   0.043   0.758  1.1583 -1.4360  2.8683
17205TIP3    H273031   6.402   0.170   0.842 -1.0396  0.9235 -0.5114
17206TIP3   OH273032   4.614   4.451   3.521 -1.0676  0.1224  0.1950
17206TIP3    H173033   4.541   4.505   3.489  0.6475  0.0853 -4.2035
17206TIP3    H273034   4.672   4.513   3.564 -3.1682  0.3132  2.8581
17207TIP3   OH273035   1.957   6.542   4.497 -0.4304 -0.2103  0.1629
17207TIP3    H173036   1.916   6.457   4.516  1.0049 -1.1856 -0.9943
17207TIP3    H273037   2.049   6.531   4.521 -0.0978  0.8030 -0.6126
17208TIP3   OH273038   0.835   1.444   1.396 -0.6164  0.0982 -0.1131
17208TIP3    H173039   0.850   1.350   1.407  1.6950  0.4646  0.1770
17208TIP3    H273040   0.827   1.456   1.301 -0.3779 -0.3048 -0.1841
17209TIP3   OH273041   4.509   4.630   1.863 -0.1753  0.1061  0.0348
17209TIP3    H173042   4.435   4.603   1.918 -0.3929 -0.6592 -0.6264
17209TIP3    H273043   4.474   4.700   1.808 -0.6182 -0.7950 -0.8238
17210TIP3   OH273044   4.731   2.256  11.752  0.0324  0.1966 -0.1140
17210TIP3    H173045   4.649   2.274  11.798 -1.0199 -0.6093 -1.6524
17210TIP3    H273046   4.797   2.256  11.821 -1.0636  2.0383  0.9964
17211TIP3   OH273047   5.240   5.576  11.660 -0.6674  0.3730 -0.1061
17211TIP3    H173048   5.241   5.506  11.594 -1.5428 -1.8998  2.1964
17211TIP3    H273049   5.150   5.576  11.694  0.0130  0.8411  1.7526
17212TIP3   OH273050   5.258   1.732  12.337 -0.4076  0.0976  0.4171
17212TIP3    H173051   5.347   1.726  12.372 -0.4733 -0.5218  0.4765
17212TIP3    H273052   5.263   1.688  12.252 -0.2965  1.4042 -0.2585
17213TIP3   OH273053   4.956   0.184  14.757 -0.0335  0.3818 -0.4848
17213TIP3    H173054   4.914   0.137  14.830  1.4434 -1.0567 -0.5425
17213TIP3    H273055   4.883   0.228  14.713 -0.9797  1.1770  1.7675
17214TIP3   OH273056   6.690   1.578   5.113  0.1867  0.0302 -0.7471
17214TIP3    H173057   6.611   1.524   5.125 -0.4502  0.5664 -2.4159
17214TIP3    H273058   6.691   1.635   5.190  0.1979 -1.5038  0.4219
17215TIP3   OH273059   1.686   3.418  16.837 -0.4590 -0.0656 -0.1351
17215TIP3    H173060   1.703   3.486  16.772  2.7238 -0.1870  0.4811
17215TIP3    H273061   1.648   3.465  16.912 -1.7429  0.4509 -1.1015
17216TIP3   OH273062   3.081   2.695  14.151 -0.1047  0.4945 -0.6515
17216TIP3    H173063   3.021   2.621  14.159  0.1131  0.3588 -0.2259
17216TIP3    H273064   3.077   2.720  14.059  0.0942 -0.2799 -0.8699
17217TIP3   OH273065   4.449   3.341  11.591 -0.1354 -0.2789 -0.3182
17217TIP3    H173066   4.454   3.255  11.550  0.4824 -0.5007  0.2205
17217TIP3    H273067   4.361   3.372  11.570 -0.9252 -1.6929  0.7615
17218TIP3   OH273068   4.736   2.976   4.762  0.3632  0.0044 -0.0318
17218TIP3    H173069   4.804   2.976   4.830  2.0833 -0.8994 -1.7066
17218TIP3    H273070   4.665   2.925   4.800  0.0485  2.0249  2.2455
17219TIP3   OH273071   5.263   0.813   4.800  0.3037  0.7549  0.2050
17219TIP3    H173072   5.338   0.835   4.855  0.3355 -0.7433  0.7770
17219TIP3    H273073   5.188   0.812   4.859  0.3969 -1.2238  0.3262
17220TIP3   OH273074   4.893   4.032   2.469  0.4678  0.2132 -0.2671
17220TIP3    H173075   4.869   4.079   2.550 -0.9589 -0.8143 -0.0823
17220TIP3    H273076   4.869   4.093   2.399 -1.1728 -0.1010 -0.0157
17221TIP3   OH273077   4.259   5.694  14.235  0.4357 -0.6835  0.3840
17221TIP3    H173078   4.232   5.786  14.244  0.5978 -0.7263  1.3288
17221TIP3    H273079   4.176   5.646  14.232  0.3738 -0.6596  1.6099
17222TIP3   OH273080   5.546   5.222  14.495  0.4089 -0.3364  0.3239
17222TIP3    H173081   5.451   5.219  14.478  0.6487 -0.5744 -1.0657
17222TIP3    H273082   5.577   5.136  14.467  1.1455  0.0112  0.0795
17223TIP3   OH273083   0.540   5.347   0.732  0.1934  0.7250  0.4293
17223TIP3    H173084   0.604   5.317   0.667  0.3917 -1.6456  1.6872
17223TIP3    H273085   0.471   5.281   0.730 -0.3210  1.2084  1.8549
17224TIP3   OH273086   5.862   0.576   2.731 -0.4495 -0.1386  0.1931
17224TIP3    H173087   5.831   0.490   2.704 -0.4228  0.2710 -1.1917
17224TIP3    H273088   5.916   0.559   2.808 -0.4843 -1.3549 -0.0405
17225TIP3   OH273089   1.777   1.495   5.934 -0.1031  0.7830 -0.9181
17225TIP3    H173090   1.747   1.477   6.024  2.3076 -2.8823 -0.7017
17225TIP3    H273091   1.870   1.515   5.944  0.1774  0.3693 -2.5674
17226TIP3   OH273092   3.726   1.297  15.035  0.6121 -0.7410 -0.6077
17226TIP3    H173093   3.699   1.386  15.058  0.2380 -0.9070 -0.3861
17226TIP3    H273094   3.643   1.250  15.023  0.8026 -1.2437 -0.0020
17227TIP3   OH273095   0.268   2.601  17.103  0.2742 -0.5451 -0.8639
17227TIP3    H173096   0.293   2.632  17.190  0.0030 -0.8357 -0.6797
17227TIP3    H273097   0.351   2.593  17.055  0.2603  1.4949 -1.2658
17228TIP3   OH273098   4.147   0.214  13.430 -0.1589 -0.4518  0.4002
17228TIP3    H173099   4.138   0.125  13.465  1.9261 -0.4951  0.8645
17228TIP3    H273100   4.129   0.271  13.504 -0.1619 -0.4986  0.4357
17229TIP3   OH273101   5.455   3.758   4.654  0.3892 -0.3053 -0.4518
17229TIP3    H173102   5.494   3.839   4.623  0.1304  0.5705  1.4442
17229TIP3    H273103   5.475   3.756   4.748 -2.0243 -1.0147  0.0842
17230TIP3   OH273104   4.621   1.883  14.032  0.7819 -0.4156 -0.3090
17230TIP3    H173105   4.648   1.874  14.123  0.9853 -1.4192 -0.4572
17230TIP3    H273106   4.529   1.907  14.036  0.7313 -0.6796  0.1591
17231TIP3   OH273107   0.759   2.938  14.884 -1.1074  0.0160  0.1825
17231TIP3    H173108   0.797   2.940  14.796 -1.5917 -0.8545 -0.0554
17231TIP3    H273109   0.745   3.030  14.906  1.4157  0.3632  0.4064
17232TIP3   OH273110   4.230   1.114   3.658 -0.7825 -0.1567  0.5263
17232TIP3    H173111   4.202   1.098   3.568  1.6823 -0.3918 -0.2578
17232TIP3    H273112   4.203   1.204   3.675  0.3855  0.5578 -1.1646
17233TIP3   OH273113   2.200   0.810   0.533 -0.3558  0.0050  0.2174
17233TIP3    H173114   2.187   0.750   0.459 -0.3361 -0.0980  0.2978
17233TIP3    H273115   2.267   0.768   0.587  0.3646  0.5637 -0.2285
17234TIP3   OH273116   3.053   6.353   1.829  0.5460 -0.1474  0.1507
17234TIP3    H173117   3.135   6.305   1.826  0.6584  0.0275  0.5192
17234TIP3    H273118   3.011   6.324   1.910 -0.0752 -0.7667 -0.3846
17235TIP3   OH273119   3.709   0.508   5.089 -0.0299 -0.2869  0.3345
17235TIP3    H173120   3.757   0.440   5.137  0.9457 -0.6816 -1.1441
17235TIP3    H273121   3.724   0.588   5.140 -0.1188 -0.9417  1.3989
17236TIP3   OH273122   2.530   5.684  14.604 -0.3007 -0.0427 -0.1541
17236TIP3    H173123   2.508   5.605  14.652 -0.1243  0.2664  0.4398
17236TIP3    H273124   2.450   5.706  14.556  0.0300 -1.2701 -1.3047
17237TIP3   OH273125   1.523   3.865   6.593  0.0088 -0.0789  0.0916
17237TIP3    H173126   1.562   3.937   6.642 -1.9494  0.9269  0.2326
17237TIP3    H273127   1.558   3.786   6.634  1.3626  0.7926  0.6234
17238TIP3   OH273128   5.109   0.936   3.693  0.1213 -0.2481  0.1578
17238TIP3    H173129   5.162   1.014   3.711 -0.5079  0.5942 -1.4557
17238TIP3    H273130   5.171   0.864   3.696  0.9720  0.4762  0.3641
17239TIP3   OH273131   4.672   0.329  14.925  0.0801 -0.2051 -0.3062
17239TIP3    H173132   4.673   0.243  14.884  0.3920 -0.4151  0.1436
17239TIP3    H273133   4.656   0.312  15.018  2.7909  0.0382  0.2239
17240TIP3   OH273134   4.251   0.324   6.452  0.5127  0.4765 -0.0118
17240TIP3    H173135   4.191   0.299   6.381 -1.2593  1.9372  0.9391
17240TIP3    H273136   4.245   0.251   6.514 -1.2395  1.1574  0.6525
17241TIP3   OH273137   4.461   1.776   3.226 -0.0824 -0.4022 -0.0729
17241TIP3    H173138   4.512   1.828   3.288 -2.4304  1.4083  0.4239
17241TIP3    H273139   4.385   1.746   3.277 -0.5552 -1.3654 -1.3182
17242TIP3   OH273140   2.696   5.647   3.188  0.3802 -0.0952 -0.7149
17242TIP3    H173141   2.774   5.635   3.242  1.0691 -0.3916 -1.7626
17242TIP3    H273142   2.701   5.577   3.123 -0.7760 -0.1308 -0.7776
17243TIP3   OH273143   4.631   2.808  16.433  0.0910  0.2916 -0.1398
17243TIP3    H173144   4.708   2.859  16.458  0.3906 -0.0749 -0.3181
17243TIP3    H273145   4.658   2.758  16.357  0.5536 -1.9505  1.4509
17244TIP3   OH273146   5.211   5.687   3.470 -0.1339  0.0005  0.4816
17244TIP3    H173147   5.230   5.655   3.381 -1.3614  2.2624 -0.6196
17244TIP3    H273148   5.291   5.733   3.496 -0.6763  1.5326 -0.4904
17245TIP3   OH273149   0.295   0.107   0.874  0.1745 -0.5445  0.2162
17245TIP3    H173150   0.286   0.097   0.969 -0.6457  0.0984  0.2032
17245TIP3    H273151   0.383   0.074   0.855  0.8053  0.4619  1.3677
17246TIP3   OH273152   1.693   5.560  12.670  0.4983  0.0013 -0.2458
17246TIP3    H173153   1.734   5.567  12.584 -1.8002  0.6918 -1.3391
17246TIP3    H273154   1.630   5.488  12.660 -1.5048  1.6655  0.0856
17247TIP3   OH273155   5.215   6.604  13.887  1.0521  0.0815  0.4902
17247TIP3    H173156   5.168   6.588  13.969 -0.0740  0.3504 -0.0995
17247TIP3    H273157   5.267   6.525  13.873 -1.0274 -1.2157 -0.0762
17248TIP3   OH273158   0.097   4.700   1.540  0.3461 -0.4341 -0.3441
17248TIP3    H173159   0.101   4.795   1.526  0.1605 -0.2070  1.0447
17248TIP3    H273160   0.107   4.690   1.635 -0.6251 -1.7400 -0.3719
17249TIP3   OH273161   4.018   5.226   5.260  0.0150  0.2008 -0.2413
17249TIP3    H173162   3.958   5.160   5.226  1.0080 -0.4802 -0.6806
17249TIP3    H273163   3.962   5.286   5.310 -0.8179 -1.3006  0.6551
17250TIP3   OH273164   3.383   0.517   5.389 -0.2045 -0.2178  0.0740
17250TIP3    H173165   3.468   0.473   5.396  0.0412  0.2103 -0.2385
17250TIP3    H273166   3.382   0.578   5.463  0.3476  0.7822 -0.7292
17251TIP3   OH273167   2.533   2.057  15.286  0.5610 -0.1724 -0.2634
17251TIP3    H173168   2.493   2.079  15.202 -1.3903  1.7322  1.1129
17251TIP3    H273169   2.530   2.139  15.336  0.9766 -1.4609  1.9299
17252TIP3   OH273170   2.083   0.500  11.934 -0.6703 -0.1746  0.0784
17252TIP3    H173171   1.997   0.513  11.895 -1.3195 -1.1330  1.1606
17252TIP3    H273172   2.099   0.580  11.984 -1.5747 -0.5848  1.0436
17253TIP3   OH273173   0.288   1.117  11.625  0.0543  0.4617  0.0396
17253TIP3    H173174   0.217   1.112  11.562 -0.6572 -0.7128  0.9066
17253TIP3    H273175   0.310   1.026  11.643  0.0598  0.7686  1.6847
17254TIP3   OH273176   4.592   0.962   3.183  0.1453  0.0905 -0.0284
17254TIP3    H173177   4.505   0.923   3.173  0.0367  0.4083 -0.3262
17254TIP3    H273178   4.593   0.995   3.273 -0.8762  2.0943 -0.7084
17255TIP3   OH273179   4.857   1.800   1.614 -0.0757 -0.1707 -0.1810
17255TIP3    H173180   4.811   1.750   1.547  0.5630  1.1557 -1.6349
17255TIP3    H273181   4.845   1.892   1.589  0.2446  0.3503  1.4728
17256TIP3   OH273182   4.950   0.072  12.633  0.0618 -0.7493  0.2147
17256TIP3    H173183   4.965  -0.021  12.614  0.2742 -1.1578  2.2544
17256TIP3    H273184   5.037   0.106  12.655 -0.2523 -0.4391  0.9895
17257TIP3   OH273185   4.148   2.673   0.456 -0.2217 -0.3031  0.3168
17257TIP3    H173186   4.083   2.681   0.526 -2.7639 -1.5487 -1.7721
17257TIP3    H273187   4.143   2.581   0.429  2.4255 -0.3997  0.1013
17258TIP3   OH273188   6.643   3.137  14.584  0.9946 -0.3957  0.2939
17258TIP3    H173189   6.697   3.184  14.520 -1.2538  0.4701 -1.0244
17258TIP3    H273190   6.576   3.093  14.531 -0.9237  0.3439  2.0423
17259TIP3   OH273191   3.945   0.432   3.586  0.9068 -0.0763 -0.4702
17259TIP3    H173192   4.039   0.445   3.598  1.0521  0.0832 -1.6837
17259TIP3    H273193   3.938   0.355   3.530  0.3494  0.4688 -1.1620
17260TIP3   OH273194   4.051   5.973   3.574  0.1615  0.4837  0.3705
17260TIP3    H173195   4.127   6.029   3.590  0.0810  0.3929  1.0922
17260TIP3    H273196   4.068   5.933   3.488  0.2778  1.5193 -0.0948
17261TIP3   OH273197   4.636   2.052  16.883 -0.2195 -0.5974  0.2364
17261TIP3    H173198   4.681   2.077  16.964  1.9197 -1.9871 -0.4731
17261TIP3    H273199   4.544   2.048  16.907  0.1419  1.0284  2.0889
17262TIP3   OH273200   2.446   3.416  12.779  0.2568  0.0451 -0.5860
17262TIP3    H173201   2.532   3.417  12.736 -0.2056  0.8213 -1.5445
17262TIP3    H273202   2.390   3.465  12.718 -0.5997  0.4939  0.5609
17263TIP3   OH273203   3.316   5.085  12.767 -0.1302 -0.3679  0.1271
17263TIP3    H173204   3.291   5.150  12.833  0.4084 -0.6612  0.6328
17263TIP3    H273205   3.369   5.133  12.704 -0.4542 -0.1350  0.0315
17264TIP3   OH273206   5.746   5.603  13.521 -0.1236  0.7085  0.2297
17264TIP3    H173207   5.753   5.613  13.616  2.3000  1.3366  0.0116
17264TIP3    H273208   5.795   5.677  13.485 -1.1629  0.5766 -1.5299
17265TIP3   OH273209   5.853   3.513   1.251  0.4769  0.0199  0.0306
17265TIP3    H173210   5.832   3.590   1.305  0.5582  0.8345 -1.0866
17265TIP3    H273211   5.776   3.456   1.261  0.1378  0.5228  0.3607
17266TIP3   OH273212   3.139   3.375   2.252 -0.2089 -0.1898 -0.6396
17266TIP3    H173213   3.047   3.365   2.277 -0.3320  2.0522 -0.1753
17266TIP3    H273214   3.181   3.409   2.330  0.5937  0.9031 -1.5409
17267TIP3   OH273215   0.023   3.025   2.076  0.6004  0.4107  0.4379
17267TIP3    H173216   0.003   2.949   2.022 -1.2347  1.3985 -0.3379
17267TIP3    H273217   0.118   3.029   2.080  0.7167 -1.3589 -0.3012
17268TIP3   OH273218   2.918   2.978   3.681 -0.3536 -0.2969 -0.6576
17268TIP3    H173219   2.949   3.047   3.623 -1.2424  1.2138  0.6109
17268TIP3    H273220   2.992   2.918   3.690  0.0254 -0.1703 -2.7378
17269TIP3   OH273221   1.230   0.730  13.834  0.5401 -0.5077  0.4139
17269TIP3    H173222   1.266   0.807  13.789 -0.9225 -0.6013 -0.9700
17269TIP3    H273223   1.244   0.748  13.927 -1.8388  2.5328  0.2660
17270TIP3   OH273224   3.908   5.092   2.529 -0.1381  0.0689 -0.0958
17270TIP3    H173225   3.961   5.059   2.601  0.8357 -0.4854 -1.0582
17270TIP3    H273226   3.850   5.156   2.570 -1.3492 -2.0658  1.6092
17271TIP3   OH273227   0.673   2.816  11.788 -0.3312 -0.2112 -0.6092
17271TIP3    H173228   0.756   2.845  11.750 -0.3822  0.0764 -0.5030
17271TIP3    H273229   0.646   2.743  11.733  0.1929 -0.5696 -0.4011
17272TIP3   OH273230   4.354   5.465  12.754 -0.4494  0.0796  0.1378
17272TIP3    H173231   4.269   5.465  12.710 -0.7116 -2.1553  0.5846
17272TIP3    H273232   4.357   5.381  12.800  0.9739  1.1838  2.1441
17273TIP3   OH273233   1.514   5.439  10.617 -0.3249 -0.2465  0.1224
17273TIP3    H173234   1.489   5.531  10.614 -2.4572 -0.8080 -0.0212
17273TIP3    H273235   1.439   5.392  10.582 -0.3237 -2.2272  2.5969
17274TIP3   OH273236   6.345   1.119  16.993 -0.3647 -0.0846 -0.2445
17274TIP3    H173237   6.299   1.036  16.979 -1.1780  0.0828  1.2414
17274TIP3    H273238   6.288   1.185  16.953 -0.8486 -0.0068  0.5594
17275TIP3   OH273239   2.643   4.548   3.226  0.2174  0.3155  0.4079
17275TIP3    H173240   2.647   4.466   3.176  2.4854  0.1749  0.7458
17275TIP3    H273241   2.690   4.528   3.307  1.4412  2.1647  0.1724
17276TIP3   OH273242   6.320   4.201   1.270 -0.2393  0.6987 -0.5440
17276TIP3    H173243   6.369   4.120   1.255  0.8405  1.1620  0.4106
17276TIP3    H273244   6.265   4.182   1.346 -1.4989  0.2062 -1.5640
17277TIP3   OH273245   2.960   6.415  13.216 -0.1984 -0.6909  0.6223
17277TIP3    H173246   3.010   6.458  13.286  0.0663  0.6087 -0.3306
17277TIP3    H273247   2.897   6.481  13.188  0.6082 -0.6811 -1.2844
17278TIP3   OH273248   1.397   4.390  16.077  0.3946  0.2473  0.2723
17278TIP3    H173249   1.367   4.384  15.986  1.8494 -0.7261 -0.1520
17278TIP3    H273250   1.332   4.339  16.126  1.0537 -1.4486 -0.5767
17279TIP3   OH273251   1.361   5.906  15.555  0.2786  0.6471  0.1499
17279TIP3    H173252   1.403   5.991  15.565  0.0786  0.8337 -0.5834
17279TIP3    H273253   1.269   5.926  15.539  0.0577  0.2638  0.9308
17280TIP3   OH273254   1.262   1.376   1.431 -0.1122  0.1294 -0.3774
17280TIP3    H173255   1.331   1.358   1.367 -0.3187  0.0002 -0.5610
17280TIP3    H273256   1.256   1.472   1.433 -1.6342  0.0978 -2.1780
17281TIP3   OH273257   1.782   3.481   4.732  1.0041  0.0026 -0.3340
17281TIP3    H173258   1.835   3.427   4.791  0.2575  0.6558  0.9786
17281TIP3    H273259   1.692   3.461   4.758  0.6849  0.6743 -0.9232
17282TIP3   OH273260   1.028   0.244   2.012  0.0403  0.8394  0.1724
17282TIP3    H173261   0.944   0.277   1.980  0.0369  1.5889  0.9355
17282TIP3    H273262   1.059   0.186   1.942 -0.6198  1.3665 -0.5718
17283TIP3   OH273263   3.779   2.939  15.023 -0.2549 -0.0532  0.6798
17283TIP3    H173264   3.823   3.004  14.970 -0.4443 -1.3762 -1.1356
17283TIP3    H273265   3.686   2.961  15.016 -0.2877 -0.2837  0.3743
17284TIP3   OH273266   2.359   1.536   3.253 -0.0973  0.9216  0.0247
17284TIP3    H173267   2.300   1.553   3.326 -0.0268 -0.5985  0.4361
17284TIP3    H273268   2.444   1.519   3.294  0.0213  0.4047 -0.4343
17285TIP3   OH273269   1.236   5.381   1.785 -0.0310  0.2057  0.1575
17285TIP3    H173270   1.278   5.350   1.866  1.2151  1.3579 -0.0308
17285TIP3    H273271   1.208   5.470   1.805 -2.1134 -0.4389  0.1626
17286TIP3   OH273272   4.548   3.128   4.960 -0.1628  0.1319 -0.0076
17286TIP3    H173273   4.633   3.084   4.966 -1.6181 -2.8571 -0.3048
17286TIP3    H273274   4.515   3.130   5.050 -1.0659 -1.4280 -0.2914
17287TIP3   OH273275   4.979   5.556   3.424  0.6501  0.2269 -0.3265
17287TIP3    H173276   5.022   5.606   3.493  1.7176 -0.1398 -0.7170
17287TIP3    H273277   5.051   5.517   3.374 -0.1461 -2.9716  0.9045
17288TIP3   OH273278   6.613   6.513  10.799 -0.2537 -0.0261 -0.4938
17288TIP3    H173279   6.648   6.425  10.795 -1.5454 -0.6611  1.3195
17288TIP3    H273280   6.690   6.570  10.792  1.1049 -1.3586  2.5881
17289TIP3   OH273281   1.964   3.349  11.340 -0.3608 -0.1917 -0.5528
17289TIP3    H173282   1.907   3.317  11.270 -0.2721 -0.1596 -0.6399
17289TIP3    H273283   1.921   3.319  11.420 -1.0533  0.7186 -0.5725
17290TIP3   OH273284   4.797   4.191   1.041  0.3056  0.1895  0.5831
17290TIP3    H173285   4.764   4.131   1.107  0.1863  0.7406  1.0313
17290TIP3    H273286   4.888   4.208   1.067  0.2922  0.3211  0.5457
17291TIP3   OH273287   4.964   4.674   4.047  0.7317 -0.4615  0.1758
17291TIP3    H173288   4.897   4.607   4.037  0.3016  0.1271 -0.9005
17291TIP3    H273289   4.988   4.670   4.140  0.9770 -2.3532  0.0428
17292TIP3   OH273290   0.594   3.736   4.176 -0.1859  0.2918  0.0311
17292TIP3    H173291   0.527   3.678   4.139 -0.0609  0.3602 -0.3079
17292TIP3    H273292   0.656   3.677   4.218 -0.0030  0.1717 -0.4064
17293TIP3   OH273293   3.959   4.395  12.137 -0.5684  0.2308  0.1207
17293TIP3    H173294   4.011   4.423  12.062 -0.5664 -0.4238 -0.1240
17293TIP3    H273295   3.869   4.413  12.111 -0.6195 -0.6439 -0.3202
17294TIP3   OH273296   4.135   5.478  14.070  0.0323  0.2026 -0.1470
17294TIP3    H173297   4.040   5.467  14.081 -0.2605  1.2882 -1.5478
17294TIP3    H273298   4.144   5.534  13.994  1.8635 -1.1978 -0.9909
17295TIP3   OH273299   3.368   0.098   5.854  0.3522  0.1550  0.6555
17295TIP3    H173300   3.369   0.177   5.800 -1.6897 -0.5776 -0.5105
17295TIP3    H273301   3.326   0.125   5.936 -1.5947 -0.0103 -0.2606
17296TIP3   OH273302   3.296   1.720   1.853  0.2827  0.2397  0.0885
17296TIP3    H173303   3.274   1.685   1.767 -1.7713  2.4666 -0.3419
17296TIP3    H273304   3.277   1.648   1.914  0.8895 -1.0396 -1.2243
17297TIP3   OH273305   4.755   1.377   2.448 -0.1745 -0.4114  0.4607
17297TIP3    H173306   4.662   1.383   2.425 -0.1103  2.2959  0.7263
17297TIP3    H273307   4.765   1.289   2.484 -2.9289 -0.2690  1.7085
17298TIP3   OH273308   4.403   4.532   5.323 -0.2038 -0.3499  0.0801
17298TIP3    H173309   4.379   4.484   5.402  4.2627 -1.4223  0.8928
17298TIP3    H273310   4.441   4.614   5.354 -0.5935  0.2881 -1.0597
17299TIP3   OH273311   6.612   3.250  12.337  0.2588  0.2947  0.6909
17299TIP3    H173312   6.606   3.293  12.422  2.0289  0.1806  0.8938
17299TIP3    H273313   6.699   3.273  12.304  0.4129 -1.3761 -0.1453
17300TIP3   OH273314   3.330   0.722  11.816  0.5515 -0.3081 -0.1891
17300TIP3    H173315   3.288   0.684  11.893  0.1083 -2.3171 -1.3717
17300TIP3    H273316   3.422   0.728  11.839 -0.0948  2.6189  1.8370
17301TIP3   OH273317   2.267   2.669   3.262  0.7829 -0.0238 -0.5417
17301TIP3    H173318   2.310   2.748   3.229 -0.0505  0.7250  0.1489
17301TIP3    H273319   2.176   2.695   3.276  0.6355 -0.9475  0.2664
17302TIP3   OH273320   6.302   5.513  15.488 -0.7852 -0.1073 -1.1421
17302TIP3    H173321   6.217   5.473  15.507  0.1461 -1.0160  1.4152
17302TIP3    H273322   6.317   5.575  15.560  0.7906 -0.1336 -1.4129
17303TIP3   OH273323   4.354   2.243   2.928  0.3768  0.2258  0.4380
17303TIP3    H173324   4.407   2.184   2.982  2.0087  0.5956 -0.7043
17303TIP3    H273325   4.301   2.185   2.874  0.4678 -0.1668  0.7710
17304TIP3   OH273326   2.888   1.266  10.810  0.2312 -0.4701  0.0724
17304TIP3    H173327   2.984   1.264  10.810  0.2388 -0.1341  0.0928
17304TIP3    H273328   2.865   1.327  10.880  0.0483  1.1403 -1.3250
17305TIP3   OH273329   4.001   2.809  16.521 -0.0767  0.4875 -0.1840
17305TIP3    H173330   3.962   2.747  16.460 -0.2469  0.5534 -0.1425
17305TIP3    H273331   3.950   2.800  16.601  1.5551 -1.2647  0.7290
17306TIP3   OH273332   6.327   0.174   5.827 -0.2137  0.5189 -0.0352
17306TIP3    H173333   6.394   0.230   5.790  0.9014 -0.0704  1.0742
17306TIP3    H273334   6.273   0.149   5.752 -0.1382  2.2467 -0.6859
17307TIP3   OH273335   3.502   5.856   2.584 -0.3886  0.0558 -0.0486
17307TIP3    H173336   3.463   5.932   2.541  1.8740  1.3083  0.0619
17307TIP3    H273337   3.436   5.828   2.648 -1.7894  1.0763 -1.0155
17308TIP3   OH273338   4.880   0.537  12.696  0.3744 -0.1755  0.3707
17308TIP3    H173339   4.909   0.614  12.646 -0.6183  0.2204  0.3975
17308TIP3    H273340   4.879   0.466  12.631 -1.7486  0.5276 -0.3902
17309TIP3   OH273341   4.022   6.344   5.191  0.7666  0.1535 -0.6629
17309TIP3    H173342   4.004   6.402   5.265 -1.3644 -0.1925 -0.8686
17309TIP3    H273343   4.007   6.399   5.114  1.7348  0.1579 -0.8546
17310TIP3   OH273344   2.413   3.218  12.183 -0.2594 -0.0316  0.3399
17310TIP3    H173345   2.398   3.158  12.256 -1.7952  1.6205  1.3851
17310TIP3    H273346   2.502   3.197  12.154  0.6938 -0.1874  3.1829
17311TIP3   OH273347   4.674   0.385   4.348  0.4212  0.0065 -0.1915
17311TIP3    H173348   4.719   0.307   4.314 -1.3213 -0.6178 -1.1135
17311TIP3    H273349   4.730   0.458   4.321  0.4313 -0.6867 -2.1429
17312TIP3   OH273350   3.419   4.772   2.645  0.0443 -0.0455 -0.2469
17312TIP3    H173351   3.393   4.732   2.728 -1.5692 -0.9786 -1.1726
17312TIP3    H273352   3.336   4.786   2.599  1.1156 -2.1538 -2.8828
17313TIP3   OH273353   3.511   5.667  13.561  0.2697  0.4021 -0.1788
17313TIP3    H173354   3.470   5.637  13.642  3.9954 -0.4322  1.4921
17313TIP3    H273355   3.591   5.711  13.589  1.4872  0.3763 -3.4044
17314TIP3   OH273356   2.053   2.328   6.968 -0.6410 -0.5642 -0.0301
17314TIP3    H173357   2.101   2.300   6.889 -0.5426  2.0563 -0.9430
17314TIP3    H273358   2.092   2.412   6.991 -2.5987  0.0467  1.1677
17315TIP3   OH273359   6.349   3.766  10.512  0.8731 -0.2215 -0.2877
17315TIP3    H173360   6.380   3.848  10.476 -2.1789  0.6418 -1.0835
17315TIP3    H273361   6.339   3.783  10.606 -0.3888  0.5418 -0.5531
17316TIP3   OH273362   1.357   4.607  14.745  0.3009 -0.5947  0.5403
17316TIP3    H173363   1.344   4.572  14.657  2.6987  0.8077 -0.4244
17316TIP3    H273364   1.438   4.565  14.776  0.0139 -0.3337  1.6730
17317TIP3   OH273365   0.537   0.038   1.995  0.5439  0.0522 -0.8079
17317TIP3    H173366   0.526   0.026   2.089  1.4072  1.4371 -0.5131
17317TIP3    H273367   0.449   0.056   1.962  0.3421  0.2405 -0.1595
17318TIP3   OH273368   6.756   5.429  15.362 -0.5100 -0.2289  0.4975
17318TIP3    H173369   6.767   5.336  15.344  0.0872 -0.3577  1.5012
17318TIP3    H273370   6.680   5.455  15.309  0.1484 -0.9685 -0.8381
17319TIP3   OH273371   2.161   5.219  13.225 -0.4070  0.6942 -0.5892
17319TIP3    H173372   2.189   5.190  13.138 -0.0981 -1.1315  0.0988
17319TIP3    H273373   2.238   5.206  13.280 -1.7682 -1.9500  0.7898
17320TIP3   OH273374   3.998   0.603  13.543  0.3511  0.5186 -0.3811
17320TIP3    H173375   4.084   0.563  13.551 -0.0225 -0.2116  0.0183
17320TIP3    H273376   3.997   0.639  13.454  0.6791 -0.4133 -0.7726
17321TIP3   OH273377   1.843   3.430  14.811 -0.1905 -0.0589 -0.3488
17321TIP3    H173378   1.791   3.415  14.890  1.1225 -1.8222  0.2296
17321TIP3    H273379   1.887   3.514  14.827 -1.9009  0.8677 -0.3445
17322TIP3   OH273380   5.362   4.259  14.755 -0.0667 -0.1535 -0.2568
17322TIP3    H173381   5.370   4.352  14.774  0.8063 -0.4197  0.6972
17322TIP3    H273382   5.443   4.220  14.788 -1.2653 -1.5319  1.1200
17323TIP3   OH273383   6.770   4.474   3.049 -0.5613 -0.1210 -0.7860
17323TIP3    H173384   6.714   4.422   2.992 -1.1621 -0.0630 -0.2500
17323TIP3    H273385   6.733   4.562   3.047 -1.0576 -0.2950  0.3100
17324TIP3   OH273386   0.222   3.868   1.466  0.1478 -0.0368 -0.0641
17324TIP3    H173387   0.284   3.897   1.533 -0.3018 -0.7309  0.6660
17324TIP3    H273388   0.263   3.891   1.383 -0.3707  3.0603  0.4728
17325TIP3   OH273389   1.036   6.718   5.363  0.0793  0.1680 -0.1003
17325TIP3    H173390   1.114   6.745   5.411 -0.3776  2.0378 -0.3819
17325TIP3    H273391   1.069   6.657   5.296  1.1107 -0.0411  0.5854
17326TIP3   OH273392   3.338   6.517   3.169  0.3841 -0.3608  0.4860
17326TIP3    H173393   3.271   6.586   3.171 -0.6315 -1.3289  0.7784
17326TIP3    H273394   3.381   6.524   3.255  1.5644  1.1058 -0.1926
17327TIP3   OH273395   1.177   5.651  15.301 -0.3587  0.0367  0.0158
17327TIP3    H173396   1.106   5.707  15.333 -1.3041 -0.7604 -0.6537
17327TIP3    H273397   1.171   5.657  15.205  0.9414  0.5405 -0.0363
17328TIP3   OH273398   5.696   0.440  16.403  0.3568 -0.3887  0.3673
17328TIP3    H173399   5.673   0.533  16.391  1.9357  0.0884  0.9864
17328TIP3    H273400   5.655   0.417  16.487 -0.1592 -0.2968  0.1449
17329TIP3   OH273401   5.252   2.326   1.549 -0.2379  0.3004 -0.1698
17329TIP3    H173402   5.205   2.273   1.484  0.4800 -0.6919  0.0967
17329TIP3    H273403   5.337   2.343   1.508 -0.2882  0.8231 -0.0512
17330TIP3   OH273404   1.330   3.453  13.829 -0.3215 -0.1771  0.3080
17330TIP3    H173405   1.357   3.468  13.739 -0.1482  0.4613  0.4663
17330TIP3    H273406   1.337   3.538  13.871 -1.1325 -0.3094  0.7318
17331TIP3   OH273407   3.067   0.467   4.437  0.0619 -0.4670 -0.3978
17331TIP3    H173408   3.080   0.435   4.347  0.3226 -0.3975 -0.3849
17331TIP3    H273409   2.972   0.465   4.449  0.0719 -1.2098 -0.4071
17332TIP3   OH273410   4.389   5.252   3.003 -0.1023  0.5215 -0.2480
17332TIP3    H173411   4.396   5.272   2.909  1.1220  1.6503  0.0638
17332TIP3    H273412   4.303   5.286   3.028 -1.5524 -2.0990 -1.4850
17333TIP3   OH273413   4.137   3.236  17.111  0.5308  0.3956 -0.0929
17333TIP3    H173414   4.179   3.231  17.197  0.2905 -1.2182 -0.0590
17333TIP3    H273415   4.202   3.203  17.050  0.9491  2.1777 -0.6358
17334TIP3   OH273416   0.942   0.878  10.879 -0.7311  0.1740 -0.5763
17334TIP3    H173417   0.933   0.820  10.955  0.5026  2.2436  1.2029
17334TIP3    H273418   0.872   0.943  10.889 -2.2948 -1.1096 -2.7239
17335TIP3   OH273419   3.810   1.216  13.414  0.0732 -0.2580  0.2811
17335TIP3    H173420   3.829   1.301  13.374  1.2429 -0.3813  0.5463
17335TIP3    H273421   3.756   1.236  13.491  0.6082  0.2754  0.5183
17336TIP3   OH273422   2.389   5.968   3.388 -0.0245  0.1724 -0.2581
17336TIP3    H173423   2.323   5.918   3.341  1.7655 -2.0042 -0.5339
17336TIP3    H273424   2.351   5.981   3.475 -1.1340 -0.3778 -0.6455
17337TIP3   OH273425   5.858   3.142   2.414 -0.0462 -0.3953 -0.1833
17337TIP3    H173426   5.782   3.111   2.464 -1.4564  2.5950 -0.3489
17337TIP3    H273427   5.856   3.090   2.334 -0.0429 -2.5277  1.1457
17338TIP3   OH273428   6.207   6.419  15.512  0.3069 -0.0932  0.3583
17338TIP3    H173429   6.165   6.335  15.491  1.0547 -0.5640  0.7208
17338TIP3    H273430   6.180   6.438  15.602 -2.0492  1.4053 -0.6260
17339TIP3   OH273431   4.660   6.002   2.852 -0.6248  0.0788  0.1493
17339TIP3    H173432   4.705   6.086   2.842  0.5266 -0.4248  0.8836
17339TIP3    H273433   4.611   6.011   2.934  1.7569 -0.9071  1.7587
17340TIP3   OH273434   4.359   4.750   0.949  0.2681 -0.1775  0.5322
17340TIP3    H173435   4.346   4.842   0.925 -0.3831 -0.2740  0.4963
17340TIP3    H273436   4.396   4.754   1.037  1.5024  0.1483  0.0058
17341TIP3   OH273437   2.221   6.023   5.137 -0.4595 -0.0912 -0.0519
17341TIP3    H173438   2.235   6.079   5.213  1.5029 -0.4101 -0.1491
17341TIP3    H273439   2.286   6.053   5.073 -0.8085 -1.0756 -0.8830
17342TIP3   OH273440   0.707   1.429  12.976 -0.1184  0.1702  0.3055
17342TIP3    H173441   0.747   1.370  12.912 -1.0609 -1.4318  1.1626
17342TIP3    H273442   0.771   1.499  12.987  0.3174  0.1595 -1.9358
17343TIP3   OH273443   2.969   4.766   1.455  0.1527 -1.4264 -0.1738
17343TIP3    H173444   2.875   4.780   1.443  0.2454 -0.0960  0.5933
17343TIP3    H273445   2.985   4.680   1.416 -0.8569 -0.4423 -2.9031
17344TIP3   OH273446   1.461   2.762  16.906 -0.2585 -0.0513 -0.1954
17344TIP3    H173447   1.387   2.821  16.921 -1.4539 -2.1909  3.0938
17344TIP3    H273448   1.448   2.729  16.817 -3.9853 -1.2274  0.6951
17345TIP3   OH273449   2.364   4.380   4.851 -0.1973  0.1363 -0.1219
17345TIP3    H173450   2.459   4.378   4.838 -0.5523  1.8368 -3.6077
17345TIP3    H273451   2.338   4.469   4.827 -2.7042 -0.3850  0.5099
17346TIP3   OH273452   2.866   3.325  11.775  0.4899 -0.0543 -0.7201
17346TIP3    H173453   2.796   3.262  11.760  1.6206 -1.3793 -0.5990
17346TIP3    H273454   2.858   3.388  11.704 -0.8453 -0.1597 -0.6781
17347TIP3   OH273455   3.375   1.252  12.376  0.7002 -0.2562 -0.1264
17347TIP3    H173456   3.418   1.252  12.291  1.1216  3.6256 -0.0071
17347TIP3    H273457   3.445   1.233  12.439  0.5211 -2.4041 -0.5304
17348TIP3   OH273458   6.085   3.016   2.633  0.0119 -0.7377  0.5730
17348TIP3    H173459   6.081   3.074   2.557  1.9773 -1.7378 -0.3529
17348TIP3    H273460   6.102   3.074   2.707  1.6817 -0.0745 -0.3001
17349TIP3   OH273461   0.167   3.148  16.740 -0.2847 -0.3224  0.0087
17349TIP3    H173462   0.154   3.181  16.829  0.3090 -0.3314  0.0984
17349TIP3    H273463   0.123   3.212  16.684  0.9299  0.6604  0.1745
17350TIP3   OH273464   1.791   2.760   5.015  0.6315 -0.1020  0.2248
17350TIP3    H173465   1.862   2.775   5.078  1.2586  0.0797 -0.5146
17350TIP3    H273466   1.774   2.666   5.020 -0.7472  0.2326  2.1665
17351TIP3   OH273467   2.777   1.054   1.889 -0.5321  0.5003  0.1738
17351TIP3    H173468   2.709   1.110   1.852  0.8190  2.8396  1.1061
17351TIP3    H273469   2.835   1.034   1.816 -1.5166 -0.4320 -0.3544
17352TIP3   OH273470   6.511   4.533  15.079  0.2997 -0.3772 -0.3991
17352TIP3    H173471   6.552   4.602  15.132  1.3044 -0.9605 -0.4018
17352TIP3    H273472   6.579   4.508  15.017 -0.7164 -0.0098 -1.6904
17353TIP3   OH273473   5.087   0.996  12.487 -0.7083 -0.0771  0.2881
17353TIP3    H173474   5.154   0.946  12.441 -0.2781 -0.2126  1.0624
17353TIP3    H273475   5.132   1.075  12.516 -0.4075 -0.9657  2.3453
17354TIP3   OH273476   2.250   6.146   1.122  0.3008  0.1132  0.3984
17354TIP3    H173477   2.323   6.190   1.078  0.3291  0.1053  0.4368
17354TIP3    H273478   2.199   6.217   1.161  1.6405 -0.0231  2.4688
17355TIP3   OH273479   1.809   2.775  14.910 -0.2398 -0.6589  0.5159
17355TIP3    H173480   1.809   2.855  14.858  0.5147 -1.0144 -0.0273
17355TIP3    H273481   1.774   2.802  14.995 -0.8435  0.0549  0.0472
17356TIP3   OH273482   1.743   5.672   2.373 -0.2425  0.2174 -0.4866
17356TIP3    H173483   1.732   5.634   2.460  2.7437 -0.0036 -0.1528
17356TIP3    H273484   1.725   5.600   2.313 -2.4712  0.4106 -0.1037
17357TIP3   OH273485   6.484   0.766   0.058 -0.4284 -0.1907 -0.0641
17357TIP3    H173486   6.490   0.828  -0.015  0.2628 -1.3217 -0.9766
17357TIP3    H273487   6.519   0.814   0.133  1.7923 -0.0483 -1.1421
17358TIP3   OH273488   3.400   0.423  11.989  0.1157 -0.7906 -0.7043
17358TIP3    H173489   3.325   0.471  12.026  0.9653  1.4037 -1.7185
17358TIP3    H273490   3.383   0.423  11.895  1.3507 -0.3096 -0.9347
17359TIP3   OH273491   4.450   6.742   4.576  0.6061  0.3440 -0.0497
17359TIP3    H173492   4.471   6.826   4.534  0.6637  0.8107  0.8809
17359TIP3    H273493   4.503   6.742   4.656 -0.4772  0.0610  0.6756
17360TIP3   OH273494   1.034   4.064  13.044 -0.3097  0.1853  0.0695
17360TIP3    H173495   1.117   4.021  13.064  0.3884  1.2962 -0.3496
17360TIP3    H273496   1.060   4.148  13.005 -1.6336  0.3669 -0.4391
17361TIP3   OH273497   2.590   2.590   4.250 -0.3103 -0.3606  0.0695
17361TIP3    H173498   2.683   2.589   4.273 -0.7494 -1.0158  1.8435
17361TIP3    H273499   2.582   2.526   4.180  0.7133  0.3002 -0.6638
17362TIP3   OH273500   2.834   3.685  15.855 -0.6391 -0.1651 -0.0191
17362TIP3    H173501   2.904   3.621  15.843  0.2675  1.2832 -2.8799
17362TIP3    H273502   2.879   3.765  15.884 -1.4523 -0.0228  0.8715
17363TIP3   OH273503   5.911   4.629   3.519 -0.6685  0.1170  0.0937
17363TIP3    H173504   5.984   4.661   3.465 -0.6815 -1.1375 -0.6945
17363TIP3    H273505   5.921   4.674   3.602  0.5506  0.5556 -0.2778
17364TIP3   OH273506   5.015   5.287  16.661 -0.2134 -0.8872  0.0287
17364TIP3    H173507   4.949   5.234  16.705 -0.9105 -0.0335  0.0392
17364TIP3    H273508   5.033   5.242  16.579  1.4576 -2.7610  1.3786
17365TIP3   OH273509   4.254   4.632  11.501  0.6418  0.3448 -0.1783
17365TIP3    H173510   4.256   4.604  11.592 -1.0692  3.2077  0.8193
17365TIP3    H273511   4.253   4.551  11.451 -3.6037 -1.4166  2.4931
17366TIP3   OH273512   3.994   5.718   2.239 -0.0705 -0.3485 -0.0612
17366TIP3    H173513   4.015   5.648   2.301  0.0356 -1.1807 -1.0248
17366TIP3    H273514   4.077   5.765   2.226 -0.7403  1.6776  2.6872
17367TIP3   OH273515   5.575   4.664   3.058 -0.7759 -0.2064  0.4940
17367TIP3    H173516   5.666   4.688   3.077 -1.1876  0.8672  1.1975
17367TIP3    H273517   5.526   4.694   3.135 -2.1874  2.2656 -1.2668
17368TIP3   OH273518   4.054   4.409  14.804 -0.2920 -0.0865  0.2107
17368TIP3    H173519   4.129   4.450  14.847 -0.2880 -1.9473  2.0967
17368TIP3    H273520   4.050   4.450  14.718  2.2938  0.7537  0.4405
17369TIP3   OH273521   3.525   4.176  13.535 -0.3936  0.3165 -0.1786
17369TIP3    H173522   3.486   4.094  13.502  2.7337 -1.9558  1.5110
17369TIP3    H273523   3.550   4.156  13.625  1.9431  2.6145 -0.2608
17370TIP3   OH273524   4.444   1.238  14.803  0.3240 -0.2269 -0.1367
17370TIP3    H173525   4.364   1.275  14.765 -0.4125 -1.2813  0.3598
17370TIP3    H273526   4.503   1.227  14.728 -0.1938  0.0524 -0.5896
17371TIP3   OH273527   6.147   3.074  13.092 -0.2350  0.3681 -0.7485
17371TIP3    H173528   6.082   3.133  13.131  0.5934  1.4083 -0.9032
17371TIP3    H273529   6.115   3.058  13.003  0.2464  1.7490 -1.1960
17372TIP3   OH273530   5.004   2.051  16.495  0.4549 -0.1595 -0.2013
17372TIP3    H173531   4.994   2.100  16.414  0.4730 -1.4158 -0.9798
17372TIP3    H273532   4.917   2.051  16.535  0.4119  0.3220 -0.2985
17373TIP3   OH273533   3.046   0.796   3.379 -0.1412 -0.2995  0.3065
17373TIP3    H173534   3.083   0.721   3.331  0.2206  0.4784 -0.6394
17373TIP3    H273535   3.121   0.833   3.425 -0.6032 -1.4334  2.0331
17374TIP3   OH273536   0.841   2.812  17.188  0.0580  0.5889 -0.8673
17374TIP3    H173537   0.920   2.858  17.161  1.0206  0.0795  1.0074
17374TIP3    H273538   0.848   2.726  17.147  0.1442  0.7866 -1.2655
17375TIP3   OH273539   5.706   5.088  11.776 -0.4023 -0.2959  0.0075
17375TIP3    H173540   5.725   5.180  11.795  1.1145 -0.8852  1.4089
17375TIP3    H273541   5.611   5.082  11.781 -0.5322  1.2317 -0.2729
17376TIP3   OH273542   3.661   1.566   5.366 -0.0256 -0.3559 -0.4805
17376TIP3    H173543   3.756   1.572   5.374  0.1192 -0.9932 -1.6564
17376TIP3    H273544   3.638   1.634   5.303 -0.2964 -0.5427 -0.5838
17377TIP3   OH273545   2.013   4.678   5.454  0.1234  0.0849 -0.1792
17377TIP3    H173546   1.947   4.683   5.524 -0.2841 -0.4951 -0.5207
17377TIP3    H273547   2.069   4.754   5.470 -0.4132  0.3872  0.3324
17378TIP3   OH273548   0.722   0.342   0.965 -0.4904  0.5918  0.1426
17378TIP3    H173549   0.802   0.381   0.928 -0.1585  0.0214  0.2550
17378TIP3    H273550   0.748   0.315   1.053 -0.5924 -0.3152 -0.1027
17379TIP3   OH273551   2.352   3.761  14.811  0.1716  0.0411  0.2696
17379TIP3    H173552   2.403   3.702  14.867  0.0031  0.7931  1.2251
17379TIP3    H273553   2.281   3.706  14.778 -1.2347  0.2321  2.8857
17380TIP3   OH273554   1.350   4.224   0.182 -0.2364 -0.5956  0.3271
17380TIP3    H173555   1.322   4.201   0.270  1.6120 -0.1850  1.0603
17380TIP3    H273556   1.442   4.199   0.178 -0.5452 -1.5499 -1.8457
17381TIP3   OH273557   2.678   0.465   0.937 -0.4914  0.3697 -0.0358
17381TIP3    H173558   2.731   0.522   0.993  2.0695 -0.7937 -1.1762
17381TIP3    H273559   2.675   0.512   0.853 -1.0204  0.2930 -0.0567
17382TIP3   OH273560   0.065   1.491  14.074  0.1204  0.0249 -0.5966
17382TIP3    H173561  -0.029   1.503  14.084  0.3572 -0.9971  3.4925
17382TIP3    H273562   0.081   1.401  14.101  2.3437  0.3598 -0.7132
17383TIP3   OH273563   4.524   2.131  15.380  0.0550  0.7306  0.0192
17383TIP3    H173564   4.456   2.114  15.315  0.3546  0.3814 -0.2034
17383TIP3    H273565   4.584   2.057  15.372 -0.6933 -0.0865  1.7312
17384TIP3   OH273566   1.614   1.500   3.556  0.1755  0.0897 -0.0345
17384TIP3    H173567   1.659   1.584   3.566  1.0470 -0.2556 -0.9148
17384TIP3    H273568   1.522   1.523   3.549  0.0179  0.7017  3.3028
17385TIP3   OH273569   3.435   3.950  14.213 -0.3081 -0.0588 -0.1979
17385TIP3    H173570   3.515   3.897  14.214  0.1406  0.6050 -0.6869
17385TIP3    H273571   3.366   3.890  14.243  0.1924 -0.9264 -0.7678
17386TIP3   OH273572   5.298   3.229  11.867  0.4890  0.3376 -0.8727
17386TIP3    H173573   5.204   3.228  11.886  0.2629  1.4550 -1.8750
17386TIP3    H273574   5.311   3.154  11.809  0.4652 -0.6242  0.3431
17387TIP3   OH273575   1.212   0.125   1.276 -0.3673  0.0877  0.8151
17387TIP3    H173576   1.155   0.125   1.200  0.8223 -2.0212 -0.1278
17387TIP3    H273577   1.284   0.185   1.253 -1.4509  1.6695  1.4563
17388TIP3   OH273578   1.211   1.576   4.400  0.0587  0.0895  0.0254
17388TIP3    H173579   1.243   1.623   4.477  0.3949 -1.2283  0.6846
17388TIP3    H273580   1.290   1.542   4.358 -0.2175 -0.2255 -0.2398
17389TIP3   OH273581   6.553   3.359  15.630 -0.2093  0.1317 -0.6406
17389TIP3    H173582   6.559   3.391  15.719 -0.1263 -1.3620 -0.0922
17389TIP3    H273583   6.641   3.327  15.609 -0.5638 -0.7691 -0.7697
17390TIP3   OH273584   6.206   3.684   2.980 -0.2800 -0.0220 -0.1421
17390TIP3    H173585   6.244   3.605   3.019 -0.9987  0.0881  0.7987
17390TIP3    H273586   6.182   3.658   2.892  1.3921 -0.2737 -0.5487
17391TIP3   OH273587   1.661   6.438  13.553 -0.0714 -0.4332  0.7387
17391TIP3    H173588   1.656   6.531  13.530  0.8122 -0.3843  0.7236
17391TIP3    H273589   1.747   6.410  13.521 -1.5290 -2.0138 -2.0325
17392TIP3   OH273590   0.152   6.252  15.996 -0.1311  1.1513 -0.0659
17392TIP3    H173591   0.230   6.224  15.949 -1.6569 -1.4954 -1.1941
17392TIP3    H273592   0.167   6.224  16.087 -0.9568 -2.1661 -0.8699
17393TIP3   OH273593   2.820   4.341  17.051  0.2560 -0.4544  0.2508
17393TIP3    H173594   2.854   4.420  17.093 -4.2703  1.7736 -0.0510
17393TIP3    H273595   2.790   4.370  16.965 -0.5618 -2.7588 -0.2942
17394TIP3   OH273596   4.610   0.634   3.605  0.3390  0.2215  0.5960
17394TIP3    H173597   4.544   0.618   3.538 -0.2325 -0.6223  1.3386
17394TIP3    H273598   4.580   0.712   3.651  0.6127  0.6679  0.0192
17395TIP3   OH273599   2.724   1.742   1.292  0.1346  0.3583 -0.0005
17395TIP3    H173600   2.635   1.754   1.324  0.1009  0.1396 -0.0103
17395TIP3    H273601   2.713   1.724   1.199  0.2134  0.7026 -0.0776
17396TIP3   OH273602   6.071   6.495  11.365  0.4559  0.0362 -0.2149
17396TIP3    H173603   6.108   6.415  11.404 -0.1478 -0.3553 -0.4488
17396TIP3    H273604   6.041   6.467  11.278 -0.0997  0.4355 -0.1472
17397TIP3   OH273605   3.408   0.125  15.413 -0.3017 -0.2261  0.0963
17397TIP3    H173606   3.372   0.071  15.343  1.2045 -1.4380  0.2349
17397TIP3    H273607   3.402   0.071  15.491 -1.9695  1.1159  0.9354
17398TIP3   OH273608   1.363   3.564   0.753  0.1405 -0.3992 -0.0921
17398TIP3    H173609   1.458   3.571   0.744  0.1864  1.4503  1.5301
17398TIP3    H273610   1.329   3.639   0.704 -0.4290 -0.3046  0.4530
17399TIP3   OH273611   0.499   6.132   5.328 -0.3309  0.0024  0.1774
17399TIP3    H173612   0.522   6.205   5.270 -0.4518 -0.0141  0.1089
17399TIP3    H273613   0.492   6.056   5.269 -1.3011  0.1557  0.0860
17400TIP3   OH273614   5.439   0.634   4.389  0.1097 -0.4597  0.3772
17400TIP3    H173615   5.395   0.633   4.474  0.1274  1.0241  0.4112
17400TIP3    H273616   5.368   0.644   4.326  0.3113  1.0905  0.3829
17401TIP3   OH273617   3.320   1.910  16.390  0.2215 -0.6398 -0.2997
17401TIP3    H173618   3.257   1.890  16.321 -0.3321  0.8314 -0.2316
17401TIP3    H273619   3.369   1.986  16.357  1.0386 -0.9288  0.2253
17402TIP3   OH273620   3.037   0.318   0.510 -0.0351 -1.0908  0.2927
17402TIP3    H173621   3.010   0.252   0.573  0.9643 -1.9741 -0.1807
17402TIP3    H273622   3.106   0.276   0.459 -0.0604 -0.0138 -0.6617
17403TIP3   OH273623   3.888   1.680   1.017 -0.6293 -0.1976 -0.2787
17403TIP3    H173624   3.972   1.680   0.971 -1.0416 -1.0552 -1.0571
17403TIP3    H273625   3.879   1.591   1.051 -0.9382  0.0608  0.3187
17404TIP3   OH273626   2.766   5.571  15.956  0.0484  0.0776 -0.1117
17404TIP3    H173627   2.682   5.564  15.911  0.3669 -0.0368 -0.6981
17404TIP3    H273628   2.821   5.622  15.896 -0.0369  1.3754  0.9028
17405TIP3   OH273629   3.044   4.621  15.008  0.4659  0.1680  0.1318
17405TIP3    H173630   3.098   4.552  14.970  0.2102 -0.6258  1.1854
17405TIP3    H273631   3.093   4.701  14.991  0.3834 -0.1594 -1.8005
17406TIP3   OH273632   2.554   3.651  13.396 -0.4974  0.1340  0.6528
17406TIP3    H173633   2.647   3.672  13.386 -0.3431 -0.3030  1.1857
17406TIP3    H273634   2.522   3.713  13.461 -0.4107 -0.2057  1.0200
17407TIP3   OH273635   1.190   4.375   0.773  1.0721  0.0704  0.0765
17407TIP3    H173636   1.208   4.365   0.867  0.6602  0.2307  0.1724
17407TIP3    H273637   1.114   4.319   0.757  0.9210  0.3197 -0.0871
17408TIP3   OH273638   4.014   0.488   4.616 -0.2659 -0.1988 -0.1327
17408TIP3    H173639   4.064   0.561   4.653 -2.1977  0.2529  1.6797
17408TIP3    H273640   3.971   0.524   4.538 -0.1059  0.2136 -0.0275
17409TIP3   OH273641   5.270   2.678   5.623  0.3248 -0.0936  0.4402
17409TIP3    H173642   5.276   2.716   5.711  0.6897  0.3542  0.2292
17409TIP3    H273643   5.251   2.753   5.567  3.0508  0.1258 -0.2509
17410TIP3   OH273644   3.530   1.613  12.225  0.1352 -0.0849  0.3855
17410TIP3    H173645   3.481   1.625  12.307 -0.6130  0.2827 -0.1155
17410TIP3    H273646   3.464   1.623  12.156  0.6833 -0.8104 -0.2494
17411TIP3   OH273647   4.609   6.427   0.920 -0.8917 -0.0532  0.0359
17411TIP3    H173648   4.685   6.396   0.969  1.1006  0.9557 -2.3181
17411TIP3    H273649   4.589   6.513   0.958  0.0393  0.3048 -0.2848
17412TIP3   OH273650   5.698   2.297   4.130  0.1455  0.2551  0.1505
17412TIP3    H173651   5.744   2.359   4.185  0.5604  1.2963 -1.3360
17412TIP3    H273652   5.767   2.253   4.080 -0.1649 -1.1896  0.9450
17413TIP3   OH273653   0.342   2.553   3.881 -0.0286 -0.6251 -0.0530
17413TIP3    H173654   0.286   2.477   3.893  0.5767 -0.9013  1.1141
17413TIP3    H273655   0.347   2.593   3.968 -0.4690  0.8409 -0.6795
17414TIP3   OH273656   2.221   1.136   6.188  0.1462 -0.1748  0.1327
17414TIP3    H173657   2.224   1.104   6.098 -0.0301 -1.5003  0.5844
17414TIP3    H273658   2.196   1.060   6.240  3.0997 -0.2110  1.6487
17415TIP3   OH273659   1.035   3.839   1.899 -0.1329 -0.5464  0.1393
17415TIP3    H173660   0.946   3.818   1.929  0.2415 -1.2292  0.7714
17415TIP3    H273661   1.081   3.868   1.978  0.8597 -2.3634  0.2536
17416TIP3   OH273662   5.170   1.515   3.593 -0.7366  0.2174  0.3676
17416TIP3    H173663   5.226   1.498   3.669 -1.0419 -2.4569  0.0521
17416TIP3    H273664   5.231   1.529   3.521 -0.4555  2.0750  0.9329
17417TIP3   OH273665   1.704   6.758  10.540 -0.0055  0.6375 -0.1764
17417TIP3    H173666   1.751   6.676  10.553  0.1684  1.0195  1.7187
17417TIP3    H273667   1.772   6.821  10.516  0.0770  0.5866 -0.0759
17418TIP3   OH273668   3.402   4.542   4.534 -0.0997 -0.4449  0.3047
17418TIP3    H173669   3.334   4.607   4.515 -0.1620 -0.5632  0.1170
17418TIP3    H273670   3.389   4.474   4.468  1.6447  0.5996 -1.1334
17419TIP3   OH273671   3.031   5.284   3.131 -0.5701  0.4367  0.1326
17419TIP3    H173672   2.967   5.267   3.062 -0.1269 -0.6595 -0.0091
17419TIP3    H273673   3.087   5.353   3.095 -2.3693  2.2443  0.7134
17420TIP3   OH273674   0.759   2.750   1.966  0.1448  0.9990  0.3712
17420TIP3    H173675   0.788   2.823   2.021 -0.0298  1.5297 -0.2288
17420TIP3    H273676   0.721   2.792   1.889  1.0984  0.2673 -0.5163
17421TIP3   OH273677   4.688   1.549  13.843  0.9237  0.2865  0.2210
17421TIP3    H173678   4.747   1.576  13.914 -0.4371 -0.1597  1.5478
17421TIP3    H273679   4.623   1.619  13.837  2.0270  1.1766 -1.7959
17422TIP3   OH273680   4.148   6.507  16.587 -0.2033 -0.8126  0.4739
17422TIP3    H173681   4.236   6.526  16.555 -0.8495 -1.7783 -2.0104
17422TIP3    H273682   4.138   6.562  16.664  1.7641  0.9777 -0.4915
17423TIP3   OH273683   2.901   0.712   1.962 -0.0944  0.4430 -0.4303
17423TIP3    H173684   2.821   0.670   1.929 -0.9129  1.3011  0.4507
17423TIP3    H273685   2.928   0.657   2.035  1.0534 -0.7806 -1.7485
17424TIP3   OH273686   1.999   5.427  12.185  0.6028 -0.2591 -0.1952
17424TIP3    H173687   1.911   5.463  12.192  0.6804 -0.1212  0.1134
17424TIP3    H273688   2.001   5.357  12.250  1.4831  1.3266  1.5626
17425TIP3   OH273689   2.208   2.246   6.746  0.3809 -0.2840  0.2563
17425TIP3    H173690   2.194   2.274   6.656  0.0717 -1.7547 -0.1682
17425TIP3    H273691   2.295   2.207   6.745  0.5643  0.1123  0.7027
17426TIP3   OH273692   5.732   0.486   1.990 -0.2517  0.3875  0.6968
17426TIP3    H173693   5.695   0.516   2.073  0.1532  0.7715  0.7390
17426TIP3    H273694   5.781   0.407   2.014 -0.9165 -0.0331  0.6663
17427TIP3   OH273695   3.653   2.733   0.650 -0.7668 -0.4943 -0.0079
17427TIP3    H173696   3.650   2.790   0.727 -1.2856 -0.8968  0.2711
17427TIP3    H273697   3.688   2.789   0.581 -0.3057 -0.1271  0.5159
17428TIP3   OH273698   2.797   0.435   4.532  0.2037 -0.3781  1.3105
17428TIP3    H173699   2.714   0.479   4.552 -0.5124 -1.0138 -0.1671
17428TIP3    H273700   2.843   0.430   4.616 -0.6176  1.2838  1.8777
17429TIP3   OH273701   1.005   5.395   3.338 -0.6033  0.3324  0.1789
17429TIP3    H173702   1.076   5.352   3.387  0.5565  0.5030 -1.3290
17429TIP3    H273703   1.033   5.391   3.247 -2.9562 -0.3492 -0.5272
17430TIP3   OH273704   0.991   1.156  12.585  0.2490  0.3024  0.5825
17430TIP3    H173705   1.058   1.219  12.612 -1.2043  1.2014  2.2264
17430TIP3    H273706   1.033   1.103  12.517  1.6195  2.8794 -0.6765
17431TIP3   OH273707   0.165   1.513  11.289  0.2326  0.0895  0.0302
17431TIP3    H173708   0.223   1.558  11.227 -0.0810  1.5618  0.7835
17431TIP3    H273709   0.079   1.553  11.275 -0.0836 -0.3787  0.6040
17432TIP3   OH273710   4.385   6.358   6.561  0.1391 -0.2013  0.4041
17432TIP3    H173711   4.307   6.397   6.601  1.4402  1.4136  1.4814
17432TIP3    H273712   4.435   6.433   6.530  1.7026 -1.1597  0.5608
17433TIP3   OH273713   6.152   5.698  14.579 -0.4014 -0.1182  0.7590
17433TIP3    H173714   6.162   5.793  14.579  0.5095 -0.2141  0.7153
17433TIP3    H273715   6.070   5.683  14.531  0.1539  0.5775 -0.4459
17434TIP3   OH273716   4.117   4.092   0.295 -0.0936 -0.2515 -0.1500
17434TIP3    H173717   4.094   4.033   0.223 -0.6822 -0.0066 -0.1672
17434TIP3    H273718   4.033   4.130   0.322  0.4021  1.4679 -0.9157
17435TIP3   OH273719   2.038   3.256   3.765 -0.1835  0.0455  0.2736
17435TIP3    H173720   2.081   3.173   3.745 -0.5643 -0.5607  1.8527
17435TIP3    H273721   2.108   3.312   3.800  0.1442  0.5300 -1.1193
17436TIP3   OH273722   3.532   0.558   1.532  0.1513 -0.0569 -0.3959
17436TIP3    H173723   3.516   0.622   1.601  1.8861  0.6252 -0.6050
17436TIP3    H273724   3.513   0.605   1.451  3.7242  1.0354 -0.7082
17437TIP3   OH273725   1.608   5.148  16.508 -0.2827 -0.4131 -0.0236
17437TIP3    H173726   1.540   5.122  16.571 -0.7480 -0.1981 -0.4353
17437TIP3    H273727   1.572   5.226  16.465  0.3513 -0.1214 -0.0323
17438TIP3   OH273728   1.147   6.689   3.884  0.6129 -0.4759  0.1691
17438TIP3    H173729   1.230   6.726   3.913  0.8046 -0.4180 -0.4433
17438TIP3    H273730   1.170   6.603   3.848  0.2781 -0.8598  0.8700
17439TIP3   OH273731   1.036   3.965  11.367 -0.0293  0.1872 -0.0517
17439TIP3    H173732   1.103   3.906  11.401 -0.0872  0.9828  1.5388
17439TIP3    H273733   1.067   4.052  11.391 -1.9229  0.5241  1.3093
17440TIP3   OH273734   1.356   6.425   5.405 -0.2812  0.4844 -0.2081
17440TIP3    H173735   1.326   6.489   5.340  0.6340  0.4319 -0.6858
17440TIP3    H273736   1.443   6.399   5.375 -0.1919 -0.1599  0.5918
17441TIP3   OH273737   2.559   0.041   3.687  0.1430  0.1180  0.1280
17441TIP3    H173738   2.580   0.127   3.722 -0.2351  0.9533 -1.6551
17441TIP3    H273739   2.644   0.005   3.659  0.4908 -0.6850  2.1169
17442TIP3   OH273740   6.308   2.923  14.675  0.8747 -0.5121  0.0084
17442TIP3    H173741   6.325   3.005  14.628  1.1776  0.0651  1.1263
17442TIP3    H273742   6.277   2.950  14.761  2.5212 -1.5832  0.9485
17443TIP3   OH273743   4.336   4.392  15.346  0.0180 -0.1647 -0.4005
17443TIP3    H173744   4.290   4.475  15.336 -0.0624 -0.1229  0.2400
17443TIP3    H273745   4.273   4.326  15.320 -0.9445 -0.2054  1.8789
17444TIP3   OH273746   6.023   5.769  15.878 -0.1614  0.4354  0.0952
17444TIP3    H173747   6.078   5.840  15.845  0.5385 -0.6851 -1.2361
17444TIP3    H273748   6.015   5.709  15.803 -0.9225 -0.7653  1.1227
17445TIP3   OH273749   3.200   4.186  12.341 -0.0239 -0.1743  0.9113
17445TIP3    H173750   3.113   4.167  12.376 -1.1524  1.7892 -0.7060
17445TIP3    H273751   3.255   4.115  12.373 -2.0340 -1.0020  2.6519
17446TIP3   OH273752   5.482   3.527   1.005 -0.3268 -0.4220 -0.0353
17446TIP3    H173753   5.487   3.576   1.087  2.2509 -1.9973  0.8006
17446TIP3    H273754   5.541   3.573   0.946 -0.6808 -0.4315 -0.3978
17447TIP3   OH273755   6.469   6.133  15.460  0.0472 -0.2777  0.1200
17447TIP3    H173756   6.518   6.115  15.380 -0.5869 -2.5392  0.1936
17447TIP3    H273757   6.481   6.227  15.475  1.8522 -0.2149 -1.4897
17448TIP3   OH273758   3.039   2.662  11.280  0.1022  0.4709  0.1600
17448TIP3    H173759   3.011   2.738  11.229 -0.3609 -0.3851 -0.8957
17448TIP3    H273760   3.065   2.598  11.214 -0.8418 -0.7810  0.9774
17449TIP3   OH273761   3.057   4.297  11.959 -0.2835  0.3062 -0.4878
17449TIP3    H173762   3.048   4.308  11.864 -2.4344 -1.1632 -0.4852
17449TIP3    H273763   3.089   4.208  11.970  1.1465  0.8846  0.1408
17450TIP3   OH273764   4.096   4.706   4.063  0.5030 -0.2387 -0.5679
17450TIP3    H173765   4.185   4.670   4.057 -0.4567 -3.3982  2.3661
17450TIP3    H273766   4.103   4.772   4.132  0.8074  0.4636 -1.2555
17451TIP3   OH273767   2.277   4.068  12.064 -0.2295 -0.3958  0.4231
17451TIP3    H173768   2.240   4.118  12.136 -0.7049  2.7191 -1.8771
17451TIP3    H273769   2.233   4.102  11.986  3.5990 -0.3276 -1.8274
17452TIP3   OH273770   0.911   5.028   3.653  0.1698 -0.1488 -0.3511
17452TIP3    H173771   0.966   4.960   3.614  1.9809  0.6330  0.7638
17452TIP3    H273772   0.887   4.992   3.738  0.3019  0.1903 -0.1724
17453TIP3   OH273773   4.181   0.338  14.471  0.3003 -0.0067 -0.1840
17453TIP3    H173774   4.266   0.350  14.429  0.7815 -2.0567  0.1501
17453TIP3    H273775   4.118   0.342  14.400  1.0349 -2.4978 -1.0303
17454TIP3   OH273776   4.218   3.154  15.769  0.1429 -0.0597  0.1401
17454TIP3    H173777   4.239   3.155  15.862  1.0860 -1.3417 -0.0380
17454TIP3    H273778   4.140   3.100  15.762  1.7864 -2.4658 -0.1133
17455TIP3   OH273779   0.938   0.971  11.932 -0.1422  0.0376  0.5476
17455TIP3    H173780   0.864   1.018  11.893  0.2562 -0.1484 -0.4548
17455TIP3    H273781   0.925   0.979  12.026 -0.1983  1.9744  0.3823
17456TIP3   OH273782   6.598   6.057  12.996 -0.1856  0.3312  0.2743
17456TIP3    H173783   6.534   5.991  13.023 -2.2568  1.0165 -2.6880
17456TIP3    H273784   6.568   6.138  13.036  0.7134  0.0815  1.5111
17457TIP3   OH273785   4.334   6.044  10.713 -0.5082  0.3515  0.3119
17457TIP3    H173786   4.261   6.003  10.666 -1.6055  2.6480 -0.0409
17457TIP3    H273787   4.361   5.978  10.777 -2.3850 -0.8368 -0.0822
17458TIP3   OH273788   5.176   4.151   2.613  0.2520 -0.8441 -0.3004
17458TIP3    H173789   5.262   4.163   2.654  0.8660  4.0600 -2.6095
17458TIP3    H273790   5.195   4.104   2.531  0.7149 -0.1591 -0.5921
17459TIP3   OH273791   5.071   2.348   2.273 -0.4727 -0.2759 -0.1842
17459TIP3    H173792   5.151   2.384   2.234 -0.4303 -0.2937 -0.1123
17459TIP3    H273793   5.037   2.288   2.207 -1.2252  0.8370 -0.8298
17460TIP3   OH273794   5.677   0.143  15.185  0.1247 -0.4131 -0.2842
17460TIP3    H173795   5.582   0.156  15.183  0.1939  0.1565  0.0837
17460TIP3    H273796   5.709   0.186  15.106  0.2308  0.6583  0.3394
17461TIP3   OH273797   0.302   3.526  15.701 -0.1819 -0.7429 -0.6629
17461TIP3    H173798   0.277   3.480  15.621 -0.3371 -1.8263  0.0008
17461TIP3    H273799   0.395   3.506  15.713 -0.5767 -2.0698  0.3814
17462TIP3   OH273800   2.693   5.233  13.622 -0.6373  0.0205 -0.9639
17462TIP3    H173801   2.760   5.229  13.553 -1.2918  0.4431 -1.6227
17462TIP3    H273802   2.643   5.311  13.603  0.4749  1.3354  1.2051
17463TIP3   OH273803   1.000   1.877  13.742  0.5454  0.4454  0.2051
17463TIP3    H173804   1.095   1.891  13.735  0.5715 -1.0641 -3.4710
17463TIP3    H273805   0.962   1.964  13.731  1.4738  0.9420  0.8818
17464TIP3   OH273806   0.860   0.665   5.280  0.3219  0.0161  0.0908
17464TIP3    H173807   0.915   0.744   5.281 -0.2107  0.3892  1.3205
17464TIP3    H273808   0.923   0.592   5.286  0.7165  0.4287  1.1841
17465TIP3   OH273809   4.991   1.222   0.927 -0.5657 -0.4374  0.0790
17465TIP3    H173810   4.972   1.177   0.844  0.7754 -1.6814  0.4170
17465TIP3    H273811   5.056   1.288   0.904 -0.8070 -0.2311 -0.0082
17466TIP3   OH273812   6.602   3.061   4.548  0.7598 -0.1985  0.7041
17466TIP3    H173813   6.566   2.978   4.518  0.0467 -0.2706  1.7451
17466TIP3    H273814   6.696   3.044   4.559  0.4013 -1.2875  2.2929
17467TIP3   OH273815   1.287   2.515  11.514 -0.0729 -0.4162  0.5659
17467TIP3    H173816   1.266   2.437  11.464 -1.1737  0.0554  0.2684
17467TIP3    H273817   1.265   2.588  11.455 -3.6516  0.2070  2.5290
17468TIP3   OH273818   1.994   6.070   2.683 -0.2401  0.2958  0.0533
17468TIP3    H173819   1.931   6.140   2.675 -0.2970  0.1888 -0.4920
17468TIP3    H273820   1.953   5.995   2.639  0.2830  0.2464 -0.3713
17469TIP3   OH273821   0.111   1.898   2.770 -0.0741  0.2789 -0.4158
17469TIP3    H173822   0.064   1.928   2.847  1.5310  0.3794  0.5636
17469TIP3    H273823   0.043   1.870   2.708 -1.3517 -0.6433  1.3820
17470TIP3   OH273824   6.680   6.609   3.736  0.5767 -0.2265  0.5963
17470TIP3    H173825   6.589   6.591   3.715  0.5576  0.8341 -0.2736
17470TIP3    H273826   6.730   6.560   3.671  0.5621  1.1662 -0.4974
17471TIP3   OH273827   2.227   4.798  16.395  0.1347 -0.5461 -0.0916
17471TIP3    H173828   2.163   4.870  16.396  0.8893  0.1308  0.2496
17471TIP3    H273829   2.185   4.730  16.343 -1.2526 -0.4651  0.9022
17472TIP3   OH273830   3.134   1.594  16.425  0.4437 -0.2501 -0.4920
17472TIP3    H173831   3.166   1.658  16.361 -1.6949 -0.4219 -1.7968
17472TIP3    H273832   3.155   1.632  16.510  0.6025  1.4372 -1.2713
17473TIP3   OH273833   3.185   0.864  14.159 -0.6006 -0.2761 -0.5793
17473TIP3    H173834   3.199   0.824  14.245  1.5248  1.0227 -0.2551
17473TIP3    H273835   3.247   0.937  14.157 -5.0313  3.7366 -0.6768
17474TIP3   OH273836   6.705   5.809   6.081  0.1689 -0.6182 -0.6146
17474TIP3    H173837   6.699   5.897   6.118  1.8620 -0.8378  0.2280
17474TIP3    H273838   6.760   5.819   6.003 -0.5063 -0.7606 -1.1145
17475TIP3   OH273839   4.705   1.973   2.999 -0.3900 -0.0001 -0.1982
17475TIP3    H173840   4.785   2.008   2.959 -0.5474  1.0761  0.4355
17475TIP3    H273841   4.708   1.879   2.978  1.9577 -0.3207  1.3534
17476TIP3   OH273842   6.525   6.386  11.438  0.3529 -0.0460  0.2576
17476TIP3    H173843   6.565   6.464  11.400  0.8493 -0.8058 -0.8119
17476TIP3    H273844   6.596   6.321  11.439 -0.5139 -1.0147 -0.4727
17477TIP3   OH273845   1.452   6.205  12.115  0.0961  0.5295  0.2003
17477TIP3    H173846   1.539   6.243  12.103  0.3377 -0.3912 -1.0636
17477TIP3    H273847   1.402   6.273  12.160  1.1817  1.4509  0.0379
17478TIP3   OH273848   5.097   1.312  14.285  0.0929  0.0040 -0.2601
17478TIP3    H173849   5.115   1.235  14.341  1.8547 -1.5830 -2.8800
17478TIP3    H273850   5.175   1.367  14.296 -0.7050  0.9268  0.8066
17479TIP3   OH273851   5.938   1.519  13.370  0.1382 -0.5505  0.2520
17479TIP3    H173852   5.857   1.567  13.385  1.0032  0.3157  2.4909
17479TIP3    H273853   5.929   1.482  13.283 -1.5719  1.6837 -0.5618
17480TIP3   OH273854   0.609   0.784  16.741  0.2177  0.1317 -0.4291
17480TIP3    H173855   0.520   0.806  16.767  0.4946  0.9924 -0.1970
17480TIP3    H273856   0.606   0.782  16.645 -0.0905 -0.0044 -0.4153
17481TIP3   OH273857   0.632   6.240   4.748  0.1980  0.1920 -0.5549
17481TIP3    H173858   0.628   6.151   4.785 -1.0804  0.3127 -0.3653
17481TIP3    H273859   0.698   6.235   4.679 -0.0528 -0.9883 -0.7206
17482TIP3   OH273860   1.467   0.416  11.579 -0.0791  0.1124  0.3983
17482TIP3    H173861   1.470   0.321  11.585 -0.5421  0.0088 -0.8395
17482TIP3    H273862   1.519   0.447  11.653 -0.5130 -1.0913  1.2170
17483TIP3   OH273863   2.785   4.140   0.435  0.5795 -0.2351  0.1669
17483TIP3    H173864   2.783   4.190   0.517  0.3338 -0.0701  0.0636
17483TIP3    H273865   2.791   4.049   0.463 -1.1894 -0.2935  0.4208
17484TIP3   OH273866   2.167   5.676  11.629 -0.0676  0.6002  0.0841
17484TIP3    H173867   2.150   5.676  11.535 -0.1003  1.9734  0.0724
17484TIP3    H273868   2.084   5.651  11.669 -0.0694  0.0707 -0.2503
17485TIP3   OH273869   2.672   3.590  14.688 -0.0823  0.0542 -0.3519
17485TIP3    H173870   2.649   3.513  14.740  0.6083  0.1904  0.1635
17485TIP3    H273871   2.767   3.596  14.695 -0.3224  2.3815  1.6927
17486TIP3   OH273872   1.763   4.472   6.191  0.3433  0.5422  0.0549
17486TIP3    H173873   1.697   4.466   6.259  0.0774 -0.9257 -0.3127
17486TIP3    H273874   1.822   4.541   6.220 -0.5596  0.8923  1.0703
17487TIP3   OH273875   3.788   0.456  13.117 -0.4395 -0.1048 -0.2451
17487TIP3    H173876   3.852   0.527  13.122 -1.9233  1.2556 -0.0521
17487TIP3    H273877   3.773   0.444  13.024  0.6416 -0.9430 -0.3194
17488TIP3   OH273878   4.495   0.929   0.646 -0.0745  0.4309 -0.4693
17488TIP3    H173879   4.507   0.913   0.552  0.9004  2.1225 -0.6570
17488TIP3    H273880   4.488   1.024   0.653 -0.8905  0.2650  1.1013
17489TIP3   OH273881   6.098   1.104  11.595  0.1288  0.3500 -0.5780
17489TIP3    H173882   6.037   1.127  11.664  2.2220  2.9369  0.4939
17489TIP3    H273883   6.142   1.025  11.628 -0.0449  0.6225  0.3266
17490TIP3   OH273884   1.147   6.252  15.575 -0.0450 -0.3319  0.2532
17490TIP3    H173885   1.093   6.305  15.518 -2.3906 -1.0862  1.7224
17490TIP3    H273886   1.094   6.238  15.653  2.2923 -1.0342  1.7812
17491TIP3   OH273887   2.974   5.158  10.788 -0.4271  0.0937 -0.2382
17491TIP3    H173888   2.917   5.196  10.721  0.4407  0.5443 -0.7319
17491TIP3    H273889   2.968   5.219  10.861 -1.6449 -0.5783  0.2268
17492TIP3   OH273890   2.523   0.447   6.564 -0.2298  0.5063  0.2102
17492TIP3    H173891   2.537   0.368   6.616  0.9796  1.0129  0.6878
17492TIP3    H273892   2.429   0.452   6.552 -0.3854 -0.5427  0.9026
17493TIP3   OH273893   6.349   1.117   5.308  0.6952  0.1816 -0.4929
17493TIP3    H173894   6.335   1.181   5.238  1.2429 -0.6584 -1.3872
17493TIP3    H273895   6.262   1.086   5.329  0.4550  0.9819 -0.2768
17494TIP3   OH273896   5.897   2.452   3.111  0.2043  0.4816  0.4662
17494TIP3    H173897   5.849   2.449   3.194 -0.7568  1.3364 -0.0450
17494TIP3    H273898   5.950   2.532   3.117  1.0196 -0.0697  0.7237
17495TIP3   OH273899   4.542   0.094   3.309 -0.5296  0.2184  0.4240
17495TIP3    H173900   4.514   0.060   3.394 -1.0971 -0.2990  0.0340
17495TIP3    H273901   4.637   0.099   3.315 -0.6644  1.6064  1.6254
17496TIP3   OH273902   2.228   5.856   1.424 -0.8454  0.3568 -0.1941
17496TIP3    H173903   2.138   5.824   1.414 -1.5157  1.8105  0.8112
17496TIP3    H273904   2.224   5.911   1.503  1.2034 -0.5073  0.5236
17497TIP3   OH273905   0.240   3.434  10.795 -0.2902  0.1661 -0.8762
17497TIP3    H173906   0.286   3.507  10.836  1.4275 -0.1540 -2.1693
17497TIP3    H273907   0.154   3.471  10.771 -0.6059  0.8718  1.2262
17498TIP3   OH273908   0.489   2.630  12.573  0.2019  0.3162 -0.3571
17498TIP3    H173909   0.469   2.679  12.653  1.1854  1.2355 -0.6549
17498TIP3    H273910   0.482   2.538  12.598 -4.0059  0.5299 -0.3483
17499TIP3   OH273911   5.998   5.013  15.459 -0.7668  0.3992  0.2882
17499TIP3    H173912   6.085   4.986  15.430 -0.8909  0.4916 -0.1697
17499TIP3    H273913   6.015   5.082  15.523 -0.5183  0.6769 -0.0807
17500TIP3   OH273914   0.740   4.954  11.347  0.3018 -0.4844 -0.1950
17500TIP3    H173915   0.784   5.014  11.407 -0.6306  0.6519 -0.6354
17500TIP3    H273916   0.808   4.923  11.288  0.7240  0.3392 -0.1317
17501TIP3   OH273917   0.221   5.639  12.111  0.7821  0.4651  0.7204
17501TIP3    H173918   0.253   5.596  12.190  0.8068 -1.0097 -0.0799
17501TIP3    H273919   0.287   5.620  12.044  0.3381  0.9671  0.1236
17502TIP3   OH273920   4.492   3.597   4.056 -0.4568 -0.6939  0.0011
17502TIP3    H173921   4.408   3.635   4.082 -0.0981 -0.0481  0.2179
17502TIP3    H273922   4.472   3.505   4.039 -1.2731 -0.4769 -0.2554
17503TIP3   OH273923   3.930   1.853  11.935  0.2426  0.7688  0.3382
17503TIP3    H173924   3.991   1.826  12.003  0.6149  1.2747  0.2085
17503TIP3    H273925   3.947   1.946  11.923  1.0699  0.4169 -1.3388
17504TIP3   OH273926   2.443   5.022  15.509  0.0381  0.0987 -0.3884
17504TIP3    H173927   2.518   5.049  15.457 -0.6044  1.1704 -0.7899
17504TIP3    H273928   2.462   4.932  15.534  1.1832  0.1665 -0.9668
17505TIP3   OH273929   0.629   2.582  10.958  0.1486 -0.1801  0.8361
17505TIP3    H173930   0.565   2.545  10.898 -0.2184  1.8764 -0.1075
17505TIP3    H273931   0.691   2.629  10.902  1.8304 -1.1580  1.8164
17506TIP3   OH273932   0.065   1.826  14.645  0.1459 -0.2320 -0.0900
17506TIP3    H173933   0.043   1.734  14.658 -0.2728 -0.1438 -0.1809
17506TIP3    H273934   0.077   1.861  14.734 -0.6566 -0.1394 -0.0157
17507TIP3   OH273935   3.406   2.545  15.542  1.1206 -0.9318  0.5507
17507TIP3    H173936   3.326   2.495  15.561  1.1515 -0.7844  1.0620
17507TIP3    H273937   3.428   2.589  15.624  1.7855 -1.0529  0.4441
17508TIP3   OH273938   2.079   0.351   4.986 -0.3234 -0.2824 -0.5683
17508TIP3    H173939   1.999   0.301   4.974 -0.1717 -0.0366 -2.8339
17508TIP3    H273940   2.148   0.294   4.952  0.3836 -0.1683  0.6255
17509TIP3   OH273941   1.387   1.950   4.880 -0.4686 -0.1876 -0.3562
17509TIP3    H173942   1.379   2.028   4.935  0.3009 -0.0525 -0.4313
17509TIP3    H273943   1.349   1.975   4.796 -0.0156  0.1825 -0.4542
17510TIP3   OH273944   4.993   4.719   1.022 -0.0971  0.3388 -0.7339
17510TIP3    H173945   5.039   4.666   1.086 -1.8676 -1.8588 -1.1864
17510TIP3    H273946   5.059   4.744   0.958  0.7360 -1.5913 -0.6468
17511TIP3   OH273947   4.140   6.008   4.747  0.0074 -0.2114  0.0535
17511TIP3    H173948   4.195   6.044   4.677  0.6936  1.4870  1.4055
17511TIP3    H273949   4.197   6.007   4.824 -1.1059 -0.8124  0.8875
17512TIP3   OH273950   3.631   0.133   3.121 -0.1864  0.1587 -0.0008
17512TIP3    H173951   3.663   0.196   3.186  1.4584 -0.5881 -0.0725
17512TIP3    H273952   3.648   0.175   3.037  0.3989 -0.1291 -0.0304
17513TIP3   OH273953   4.446   5.625   2.815  0.3477 -0.1259  0.5036
17513TIP3    H173954   4.356   5.641   2.843  0.4432  1.2618  0.0074
17513TIP3    H273955   4.442   5.541   2.769 -0.5985 -0.3103  0.9098
17514TIP3   OH273956   1.459   0.362  15.437 -0.5183  0.2244 -0.0273
17514TIP3    H173957   1.408   0.425  15.385  1.4568  0.9742 -1.1097
17514TIP3    H273958   1.486   0.295  15.374  1.4858  0.8889  0.0762
17515TIP3   OH273959   0.323   5.131  11.274 -0.1522  0.3487  0.1302
17515TIP3    H173960   0.370   5.124  11.191 -1.5748  0.5692 -0.7200
17515TIP3    H273961   0.369   5.072  11.333 -0.7346 -1.9126 -1.6009
17516TIP3   OH273962   2.102   3.268  17.127 -0.0830 -0.0601  0.1452
17516TIP3    H173963   2.176   3.210  17.109 -0.4428 -0.7875  0.9628
17516TIP3    H273964   2.141   3.355  17.135  0.1101  0.2937 -3.9419
17517TIP3   OH273965   0.359   6.044   3.260 -0.5392  0.1698 -0.2434
17517TIP3    H173966   0.340   6.010   3.173 -0.2782  1.9373 -0.9980
17517TIP3    H273967   0.273   6.064   3.297 -0.6299 -0.3068 -0.1835
17518TIP3   OH273968   5.975   2.978  15.648 -0.0136 -0.5573 -0.5117
17518TIP3    H173969   5.982   2.915  15.576 -0.0750 -0.0175 -0.9892
17518TIP3    H273970   5.997   2.927  15.726 -0.8277 -1.3660 -0.8002
17519TIP3   OH273971   0.426   1.801  16.617  0.2852 -0.0914 -0.1361
17519TIP3    H173972   0.370   1.869  16.581 -1.9191 -1.5583  0.3811
17519TIP3    H273973   0.482   1.846  16.680 -0.7458  1.3233 -0.2079
17520TIP3   OH273974   3.480   1.386  16.367  0.2586 -0.1538  0.6427
17520TIP3    H173975   3.495   1.402  16.460 -0.6769  1.8337  0.4675
17520TIP3    H273976   3.385   1.377  16.358  0.1643  1.7224 -0.4203
17521TIP3   OH273977   6.075   2.721   3.858  0.2630 -0.0601  0.1796
17521TIP3    H173978   6.096   2.632   3.829 -1.0612 -0.0912 -0.7479
17521TIP3    H273979   5.998   2.711   3.913 -0.4602  0.6168 -0.7015
17522TIP3   OH273980   1.505   1.845   3.502 -0.0600  0.5239  0.2815
17522TIP3    H173981   1.595   1.822   3.523  0.3208  2.3717  0.8035
17522TIP3    H273982   1.452   1.796   3.565  0.3798 -2.5177 -1.6128
17523TIP3   OH273983   0.236   5.719   3.574  0.4187 -0.0538  0.1336
17523TIP3    H173984   0.276   5.776   3.509 -0.7404  2.5238  1.5907
17523TIP3    H273985   0.310   5.686   3.626  0.9526  1.9061  0.6530
17524TIP3   OH273986   1.779   0.186   3.212  0.0599 -0.0695  0.2356
17524TIP3    H173987   1.774   0.281   3.224  3.3269  0.0271  1.2322
17524TIP3    H273988   1.811   0.175   3.122  2.4326 -0.1110  1.0500
17525TIP3   OH273989   3.903   5.258  11.348 -0.4132 -0.3422  0.3307
17525TIP3    H173990   3.817   5.286  11.378 -0.1167 -0.2554  1.1298
17525TIP3    H273991   3.962   5.327  11.378 -0.1014 -0.2728 -0.4373
17526TIP3   OH273992   5.365   6.560  11.252  0.1501  0.2502 -0.2853
17526TIP3    H173993   5.301   6.620  11.215  0.3208 -0.3279 -1.5571
17526TIP3    H273994   5.393   6.506  11.178 -0.6425 -1.9995  0.9921
17527TIP3   OH273995   4.360   4.153  13.012  0.3674  0.0806  0.5100
17527TIP3    H173996   4.361   4.245  13.037 -0.0476 -0.5382  2.9004
17527TIP3    H273997   4.314   4.152  12.928  1.2053  2.1427 -0.0066
17528TIP3   OH273998   5.678   1.748  15.097 -0.3120  0.9257  0.2423
17528TIP3    H173999   5.745   1.699  15.143 -1.3338  0.4890  1.2920
17528TIP3    H274000   5.699   1.840  15.113 -0.1630  0.7843  0.8538
17529TIP3   OH274001   5.410   2.294   4.141 -0.1123 -0.2226  0.6452
17529TIP3    H174002   5.376   2.207   4.120 -1.8925  1.1197 -2.4603
17529TIP3    H274003   5.501   2.292   4.113 -0.3118 -0.9167  0.0236
17530TIP3   OH274004   6.409   5.599   4.747  0.4316  0.2629  0.5593
17530TIP3    H174005   6.374   5.513   4.774  0.0626  0.3005  0.2048
17530TIP3    H274006   6.370   5.661   4.808  1.0603  0.1246  1.1045
17531TIP3   OH274007   1.347   1.171   1.875  0.3578 -0.2765  0.0125
17531TIP3    H174008   1.291   1.127   1.811  0.1914  1.6851 -1.2090
17531TIP3    H274009   1.425   1.115   1.880  0.4439 -0.3688 -2.0201
17532TIP3   OH274010   1.927   6.002   3.447  0.2992 -0.3222 -0.4475
17532TIP3    H174011   1.941   5.908   3.456  0.2242 -0.3041 -0.1314
17532TIP3    H274012   1.875   6.012   3.367  0.7675 -0.5066 -0.7754
17533TIP3   OH274013   4.454   0.596   4.652 -0.0119 -0.0724  0.3331
17533TIP3    H174014   4.415   0.634   4.573  0.6396 -0.6267 -0.2717
17533TIP3    H274015   4.502   0.668   4.693 -0.2418  0.1888  0.1449
17534TIP3   OH274016   1.138   0.237   2.368 -0.4310  0.4185 -0.1620
17534TIP3    H174017   1.214   0.273   2.414 -1.0742  0.2447  1.0722
17534TIP3    H274018   1.143   0.275   2.281  1.7629 -0.5681 -0.5087
17535TIP3   OH274019   3.181   5.001  10.613 -0.1837 -0.2351 -0.2150
17535TIP3    H174020   3.224   4.922  10.646  0.6517  0.1175 -0.4621
17535TIP3    H274021   3.115   5.021  10.679  0.3729 -0.4834  0.4182
17536TIP3   OH274022   2.091   4.840   5.687 -0.1325  0.1474  0.2470
17536TIP3    H174023   2.033   4.855   5.762  2.1484  0.8516  1.9107
17536TIP3    H274024   2.056   4.898   5.619 -1.0980  0.9371  1.3735
17537TIP3   OH274025   6.360   6.615   2.197 -0.3167 -0.4709  0.0031
17537TIP3    H174026   6.290   6.550   2.202  0.4796 -1.2584  1.0882
17537TIP3    H274027   6.369   6.648   2.286 -1.0821  1.5593 -0.6322
17538TIP3   OH274028   6.457   5.387  11.042  0.3521  0.6967 -0.2560
17538TIP3    H174029   6.378   5.417  10.997 -0.4882  0.2206  0.8658
17538TIP3    H274030   6.486   5.311  10.992 -0.0089  0.7597 -0.5643
17539TIP3   OH274031   2.683   6.508   6.181  0.0197  0.2630 -0.2912
17539TIP3    H174032   2.738   6.565   6.236 -1.7966  0.2488  1.6042
17539TIP3    H274033   2.595   6.518   6.217 -1.0666 -0.4942 -2.6479
17540TIP3   OH274034   2.488   3.353  17.221  0.2731 -0.5764  0.2306
17540TIP3    H174035   2.508   3.324  17.132 -1.1729 -2.0889  0.3629
17540TIP3    H274036   2.416   3.415  17.211 -0.4034 -1.3173  0.3754
17541TIP3   OH274037   4.459   0.129   5.521  0.3405  0.1334 -0.0347
17541TIP3    H174038   4.364   0.142   5.519  0.0912 -1.0469  2.1421
17541TIP3    H274039   4.493   0.208   5.562 -0.0714 -0.9266  2.4425
17542TIP3   OH274040   6.357   2.831   4.128  0.4938  0.7434  0.2785
17542TIP3    H174041   6.330   2.847   4.218  0.2777 -0.9036  0.5210
17542TIP3    H274042   6.285   2.867   4.075 -0.2043  0.1566  0.8150
17543TIP3   OH274043   5.885   3.829  14.508  0.0959 -0.4850 -0.2286
17543TIP3    H174044   5.890   3.883  14.587  1.2613 -0.8744 -0.0408
17543TIP3    H274045   5.891   3.739  14.539 -0.7618 -0.6970 -0.6503
17544TIP3   OH274046   5.409   2.685  13.324 -0.6075  0.4224  0.1159
17544TIP3    H174047   5.369   2.767  13.297  0.9746  1.0220 -0.4447
17544TIP3    H274048   5.465   2.708  13.398  0.6931  0.0335 -0.7490
17545TIP3   OH274049   4.478   3.331  12.664  0.1499 -0.4011  0.2352
17545TIP3    H174050   4.565   3.362  12.686 -0.0060 -0.1488  0.4933
17545TIP3    H274051   4.482   3.313  12.570  0.8767 -1.6758  0.5008
17546TIP3   OH274052   4.109   1.614  10.515  0.2612 -0.1784 -0.3889
17546TIP3    H174053   4.150   1.566  10.443  1.1087  0.9830 -0.6979
17546TIP3    H274054   4.026   1.569  10.530  1.0298 -1.7254 -0.6773
17547TIP3   OH274055   3.751   4.097  14.840 -0.6130 -0.4270  0.7765
17547TIP3    H174056   3.776   4.140  14.758 -0.6869 -2.7623 -0.5053
17547TIP3    H274057   3.761   4.165  14.906  1.7793  0.8565 -0.8088
17548TIP3   OH274058   5.705   3.912   0.977 -0.0594  0.2522  0.2677
17548TIP3    H174059   5.732   3.984   0.920 -1.3799  0.5439 -0.0121
17548TIP3    H274060   5.773   3.846   0.965  0.7516  1.1268 -0.0794
17549TIP3   OH274061   2.512   1.008  11.179  0.2099  0.0332 -0.2177
17549TIP3    H174062   2.493   1.102  11.179  3.2792  0.7441  1.4865
17549TIP3    H274063   2.606   1.004  11.162  0.0068 -2.7964 -0.8149
17550TIP3   OH274064   4.383   4.585   0.407 -0.2844 -0.1905  0.1086
17550TIP3    H174065   4.417   4.572   0.496 -1.2828 -1.6471  0.2932
17550TIP3    H274066   4.339   4.502   0.386  0.8942 -0.2639 -2.1800
17551TIP3   OH274067   1.966   2.375  15.919  0.0159 -0.7909 -0.4126
17551TIP3    H174068   1.894   2.334  15.966  0.3762 -0.2557  0.6285
17551TIP3    H274069   2.017   2.302  15.884 -0.3590 -1.1881 -0.1298
17552TIP3   OH274070   0.369   3.181  11.613  0.1129 -0.1643 -0.1117
17552TIP3    H174071   0.278   3.150  11.612  0.2169 -0.4580 -0.3417
17552TIP3    H274072   0.417   3.117  11.561  0.5450 -0.2721  0.4190
17553TIP3   OH274073   0.824   3.993  13.948  0.7119  0.2997  0.4847
17553TIP3    H174074   0.823   3.972  13.854  1.4764  2.0155  0.0764
17553TIP3    H274075   0.845   3.910  13.990 -2.4144 -1.1639 -0.6504
17554TIP3   OH274076   1.211   5.160  14.931 -0.0730 -0.2691 -0.1254
17554TIP3    H174077   1.172   5.073  14.920 -0.5696 -0.0862  0.1888
17554TIP3    H274078   1.137   5.217  14.952  0.2137  0.2789 -0.5706
17555TIP3   OH274079   1.902   6.202  13.996  0.1946  0.6732 -0.7803
17555TIP3    H174080   1.934   6.263  14.062 -0.6728  0.6062 -0.2947
17555TIP3    H274081   1.897   6.253  13.916 -1.9130  1.6501 -0.0669
17556TIP3   OH274082   3.977   1.990   2.621 -0.5130 -0.2214 -0.0430
17556TIP3    H174083   4.064   1.959   2.643 -0.5703  0.1340  0.7058
17556TIP3    H274084   3.948   2.038   2.698 -0.3132  1.9286 -1.2460
17557TIP3   OH274085   1.573   2.450  17.100  0.2762  0.3703 -0.1980
17557TIP3    H174086   1.638   2.385  17.123  1.4718  1.0589 -1.5280
17557TIP3    H274087   1.616   2.505  17.034 -1.7916  0.5502 -1.4534
17558TIP3   OH274088   6.744   0.818  10.417  0.2178 -0.3142  0.0213
17558TIP3    H174089   6.688   0.778  10.483  0.0746  1.3989  0.9708
17558TIP3    H274090   6.709   0.906  10.406  1.4648  0.0796 -0.8984
17559TIP3   OH274091   0.158   0.469  13.064 -0.0772 -0.8301  0.2135
17559TIP3    H174092   0.114   0.384  13.074 -1.4327  0.0709  2.0193
17559TIP3    H274093   0.138   0.495  12.974 -0.9660 -1.6770  0.1555
17560TIP3   OH274094   0.500   1.386   6.107  0.1525  0.8728 -0.4110
17560TIP3    H174095   0.552   1.444   6.163 -0.4220  0.8782  0.1209
17560TIP3    H274096   0.467   1.318   6.167  2.9895 -1.5475 -1.4739
17561TIP3   OH274097   1.213   6.764  15.476  0.0586 -0.1905  0.4754
17561TIP3    H174098   1.267   6.696  15.434 -0.2135 -1.1398  1.6318
17561TIP3    H274099   1.182   6.723  15.557 -2.6672  0.2261 -0.3034
17562TIP3   OH274100   1.406   2.734  12.940  0.0030 -0.7034 -0.4528
17562TIP3    H174101   1.436   2.819  12.971 -1.8871  0.4290 -1.6105
17562TIP3    H274102   1.471   2.708  12.875 -0.0703  0.4563 -1.0061
17563TIP3   OH274103   5.611   0.454  11.614  0.1676  0.8461 -0.3726
17563TIP3    H174104   5.590   0.520  11.680  2.5634  1.1033  0.1567
17563TIP3    H274105   5.648   0.504  11.541 -0.9311  0.3902 -1.2575
17564TIP3   OH274106   1.761   0.253  13.438  0.3218  0.0386 -0.5608
17564TIP3    H174107   1.746   0.295  13.353  1.1711  0.9030 -0.3001
17564TIP3    H274108   1.683   0.275  13.489  0.0679  0.0019 -0.9278
17565TIP3   OH274109   4.443   5.686  15.187 -0.2909  0.2605  0.4572
17565TIP3    H174110   4.434   5.722  15.099  1.0858 -0.5727 -0.0352
17565TIP3    H274111   4.538   5.682  15.202 -0.4903 -0.8270  1.4673
17566TIP3   OH274112   6.324   6.188  13.532 -0.1919  0.5027 -0.3741
17566TIP3    H174113   6.261   6.131  13.488  0.3462  0.0559 -0.5816
17566TIP3    H274114   6.405   6.135  13.535  0.8400  1.9256 -2.1579
17567TIP3   OH274115   1.333   4.224   3.442 -0.2261  0.9221 -0.3505
17567TIP3    H174116   1.302   4.178   3.520  1.1063  0.5756 -0.0240
17567TIP3    H274117   1.280   4.304   3.439 -0.3017  0.9285  0.8901
17568TIP3   OH274118   1.156   4.653   2.460 -0.2438 -0.5628 -0.1568
17568TIP3    H174119   1.187   4.676   2.548 -0.9811  2.5994 -0.6837
17568TIP3    H274120   1.061   4.655   2.467 -0.3907 -3.8134 -0.2051
17569TIP3   OH274121   5.769   5.851  15.916  0.3418  0.1814  0.1936
17569TIP3    H174122   5.735   5.767  15.944  2.1615 -0.7126 -0.2425
17569TIP3    H274123   5.863   5.845  15.929  0.4783  2.2058  0.2984
17570TIP3   OH274124   3.955   3.326  13.815 -0.3974  0.5711  0.2890
17570TIP3    H174125   3.919   3.237  13.810  0.4234  0.1939  0.8149
17570TIP3    H274126   3.923   3.359  13.899 -0.0295  0.4582  0.4766
17571TIP3   OH274127   6.447   4.460   2.540  0.0322  0.3029 -0.1901
17571TIP3    H174128   6.515   4.446   2.474 -1.0859 -0.2963 -1.2164
17571TIP3    H274129   6.496   4.470   2.622  1.3137 -1.3249 -0.7286
17572TIP3   OH274130   2.831   3.173   2.846 -0.8222  0.3004  0.0634
17572TIP3    H174131   2.771   3.129   2.907  1.3446  0.6143  2.5081
17572TIP3    H274132   2.831   3.264   2.875  1.4417  0.1412  0.6255
17573TIP3   OH274133   1.123   5.717   5.041  0.3632 -0.0247  0.0401
17573TIP3    H174134   1.034   5.751   5.029  0.6196  1.1508  1.3783
17573TIP3    H274135   1.114   5.622   5.034 -0.5697  0.2187 -2.5087
17574TIP3   OH274136   1.749   0.575  11.622  0.1918  0.6060  0.2462
17574TIP3    H174137   1.684   0.642  11.644 -1.0699 -0.6572  0.4116
17574TIP3    H274138   1.806   0.569  11.699 -0.1831  0.9026  0.5465
17575TIP3   OH274139   5.973   1.223   0.590 -0.0551 -0.0121  0.0311
17575TIP3    H174140   5.987   1.153   0.527  0.8998 -1.9304  2.2882
17575TIP3    H274141   5.878   1.232   0.596 -0.2595 -2.6374  1.2926
17576TIP3   OH274142   1.826   2.927  13.336 -0.2256 -0.5906  0.1212
17576TIP3    H174143   1.831   2.839  13.298  0.0842 -0.3000 -0.5135
17576TIP3    H274144   1.916   2.948  13.358 -0.2500 -0.2769 -0.0810
17577TIP3   OH274145   4.402   2.334   5.112  0.0961  0.0642  0.7935
17577TIP3    H174146   4.481   2.297   5.151  2.1512  2.5457 -0.8684
17577TIP3    H274147   4.360   2.383   5.183  1.0751  0.3213  1.1944
17578TIP3   OH274148   2.954   1.805  11.415 -0.1643  0.3708  0.1431
17578TIP3    H174149   2.899   1.734  11.383 -0.7183  0.8988 -0.0822
17578TIP3    H274150   3.025   1.811  11.351 -0.7325  0.7690 -0.4584
17579TIP3   OH274151   5.681   6.085  12.000  0.2534 -0.1701 -0.6150
17579TIP3    H174152   5.708   6.114  12.087 -2.9820 -0.5254  0.5555
17579TIP3    H274153   5.687   5.990  12.004 -2.1526 -0.3116  0.0183
17580TIP3   OH274154   2.843   2.440  16.385  0.1201  0.1965 -0.4889
17580TIP3    H174155   2.927   2.430  16.428 -1.1387 -1.1001  1.7485
17580TIP3    H274156   2.847   2.381  16.309  1.2136  0.1645 -0.4070
17581TIP3   OH274157   4.194   4.731   4.752  0.4544 -0.0879 -0.0799
17581TIP3    H174158   4.230   4.650   4.786 -1.3878 -1.2909 -0.8904
17581TIP3    H274159   4.144   4.704   4.674  0.0031  1.8375 -0.4787
17582TIP3   OH274160   5.030   3.860  16.006  0.4332 -0.1910  0.6413
17582TIP3    H174161   4.993   3.821  16.086 -0.4459  1.4199  1.0362
17582TIP3    H274162   4.954   3.873  15.949  0.9851 -0.7841 -0.2419
17583TIP3   OH274163   4.891   4.929  15.877  0.3834  0.3439 -0.5478
17583TIP3    H174164   4.833   5.005  15.867 -1.7673 -1.2988 -0.9026
17583TIP3    H274165   4.892   4.912  15.971 -1.0852 -0.6138 -0.6790
17584TIP3   OH274166   0.224   2.030   4.607  0.2384 -0.1399  0.6504
17584TIP3    H174167   0.259   2.044   4.695  1.2528  1.8724 -0.0435
17584TIP3    H274168   0.129   2.025   4.619  0.4903 -2.1729  2.1105
17585TIP3   OH274169   2.164   6.760   2.522 -0.0811 -0.8593  0.0509
17585TIP3    H174170   2.209   6.783   2.603 -0.3827 -3.0050  0.8585
17585TIP3    H274171   2.234   6.734   2.462  0.1661  1.0080 -0.4949
17586TIP3   OH274172   6.662   2.816   4.746 -0.2900 -0.0299 -0.2835
17586TIP3    H174173   6.649   2.834   4.653 -0.8995 -1.3415 -0.4648
17586TIP3    H274174   6.618   2.888   4.791 -0.1313  0.5213 -1.0074
17587TIP3   OH274175   3.655   4.729  16.729  0.9664  0.0179  0.3786
17587TIP3    H174176   3.636   4.772  16.812  1.6007  2.1970 -0.5631
17587TIP3    H274177   3.610   4.784  16.664 -1.0574 -2.6562 -0.5824
17588TIP3   OH274178   6.512   4.303   4.746  0.6428 -0.0656 -0.0723
17588TIP3    H174179   6.458   4.366   4.699  2.8730  2.4273  0.5401
17588TIP3    H274180   6.451   4.237   4.778 -1.7792  1.7791 -0.7791
17589TIP3   OH274181   5.842   5.512   1.684 -0.2150  0.1528 -0.4005
17589TIP3    H174182   5.850   5.607   1.680 -0.0667  0.1624  0.0392
17589TIP3    H274183   5.804   5.495   1.770  1.6210 -0.2854  0.3526
17590TIP3   OH274184   6.286   5.183   0.167 -0.2566  0.1935 -0.0664
17590TIP3    H174185   6.347   5.239   0.216  1.4197 -2.1708  0.6657
17590TIP3    H274186   6.200   5.222   0.182  0.9644  3.1292 -0.4244
17591TIP3   OH274187   4.483   2.626   2.475  0.1975 -0.1121  0.6054
17591TIP3    H174188   4.538   2.654   2.402 -1.4120 -0.4163 -0.7514
17591TIP3    H274189   4.497   2.531   2.480  0.9707  0.0303  1.2666
17592TIP3   OH274190   4.015   5.194   1.156  0.5697  0.1132  0.2976
17592TIP3    H174191   4.017   5.112   1.207  0.7939 -0.8524 -1.2280
17592TIP3    H274192   4.108   5.215   1.142  0.5157 -0.3573 -0.8355
17593TIP3   OH274193   0.339   2.194  11.843 -0.4158 -0.5221 -0.3036
17593TIP3    H174194   0.298   2.254  11.781  0.7192 -0.5699 -1.1241
17593TIP3    H274195   0.300   2.109  11.823  0.2659 -0.6174 -1.2648
17594TIP3   OH274196   1.605   6.324  14.398  0.3909 -0.8111 -0.0352
17594TIP3    H174197   1.560   6.253  14.353 -2.2836  1.4807 -1.1826
17594TIP3    H274198   1.645   6.376  14.328  1.5155 -0.6503  0.7084
17595TIP3   OH274199   3.969   4.080  12.231  0.4020  0.4995  0.0139
17595TIP3    H174200   3.891   4.096  12.284  0.3365  0.1539  0.0189
17595TIP3    H274201   4.019   4.161  12.239 -0.3026  0.9959 -0.5943
17596TIP3   OH274202   3.842   4.973   4.253  0.0015  0.0358  0.1266
17596TIP3    H174203   3.916   4.959   4.195  2.1882 -1.0580  3.0523
17596TIP3    H274204   3.811   4.885   4.274 -0.0348  0.3598  1.4673
17597TIP3   OH274205   6.500   5.662   2.523 -0.0422  0.3060  0.3597
17597TIP3    H174206   6.535   5.656   2.612  1.8979 -0.8772 -0.4629
17597TIP3    H274207   6.405   5.659   2.535  0.1985 -0.2099  2.3681
17598TIP3   OH274208   5.574   4.679   5.139 -0.0690  0.0166 -0.5660
17598TIP3    H174209   5.493   4.671   5.191 -0.0936  2.4089 -0.1921
17598TIP3    H274210   5.562   4.760   5.089  2.6535  1.1566  0.5374
17599TIP3   OH274211   5.102   5.128  11.735 -0.0140  0.2602 -0.0032
17599TIP3    H174212   5.086   5.042  11.774  1.5438  0.2747  0.6916
17599TIP3    H274213   5.022   5.177  11.752 -1.6452 -1.6231 -2.0111
17600TIP3   OH274214   4.172   2.401   0.372  0.5573 -0.4925  0.4833
17600TIP3    H174215   4.183   2.343   0.297  2.1767 -0.1711  0.4715
17600TIP3    H274216   4.173   2.343   0.448 -0.0854 -0.7045  0.3397
17601TIP3   OH274217   5.817   5.807   2.073  0.7895  0.3163 -0.0019
17601TIP3    H174218   5.780   5.880   2.123 -1.5267  0.2054 -1.5064
17601TIP3    H274219   5.837   5.741   2.139 -1.5451  0.4566  0.8729
17602TIP3   OH274220   0.410   0.758  11.878  0.0813 -0.5593  0.4089
17602TIP3    H174221   0.462   0.818  11.932  0.6298 -0.8024  0.1494
17602TIP3    H274222   0.369   0.698  11.942 -4.6813  3.1891  1.2189
17603TIP3   OH274223   3.881   0.829  11.243  0.7038  0.2154  0.5489
17603TIP3    H174224   3.868   0.918  11.275  1.3551 -0.0658  1.5983
17603TIP3    H274225   3.847   0.831  11.153  1.8855  1.8470  0.1148
17604TIP3   OH274226   4.179   1.745  16.899  0.3880  0.4450  0.7349
17604TIP3    H174227   4.144   1.740  16.810  1.6766  1.2161  0.1648
17604TIP3    H274228   4.113   1.793  16.948 -0.0330  0.6027  0.0263
17605TIP3   OH274229   3.863   2.008  13.309 -0.4051  0.6309 -0.9053
17605TIP3    H174230   3.794   2.055  13.356 -2.1216 -0.3379 -2.3623
17605TIP3    H274231   3.937   2.068  13.309 -0.2160  0.5228  3.2582
17606TIP3   OH274232   1.964   1.690   3.968  0.2129  0.4828  0.3952
17606TIP3    H174233   2.041   1.635   3.952  0.1149  0.9595 -1.9836
17606TIP3    H274234   1.950   1.735   3.885 -1.2136  2.2164  1.5365
17607TIP3   OH274235   2.419   6.213   2.709  0.1133  0.0917 -0.1646
17607TIP3    H174236   2.364   6.137   2.728  1.4025 -0.8557 -0.1636
17607TIP3    H274237   2.494   6.178   2.662  0.7143  1.3712 -0.1901
17608TIP3   OH274238   3.460   2.701   4.109 -0.7620  0.2368 -0.5227
17608TIP3    H174239   3.534   2.727   4.055 -1.5490  0.8479 -1.3288
17608TIP3    H274240   3.449   2.607   4.091 -0.6758  0.3200 -1.0163
17609TIP3   OH274241   2.079   2.460  13.119  0.0941 -0.1447 -0.0602
17609TIP3    H174242   2.153   2.519  13.133 -0.3851  0.3596  0.3097
17609TIP3    H274243   2.004   2.504  13.157 -0.6571 -0.0783 -1.5684
17610TIP3   OH274244   0.048   4.110   3.733  0.5193  0.1538  0.6511
17610TIP3    H174245   0.079   4.065   3.812  0.5163 -1.1172 -0.0449
17610TIP3    H274246  -0.042   4.133   3.752 -0.0746 -1.8209  0.3504
17611TIP3   OH274247   0.081   4.300  12.241  0.1009  0.6754 -0.0961
17611TIP3    H174248   0.115   4.212  12.258 -0.2815  0.0750 -2.2812
17611TIP3    H274249   0.132   4.332  12.167  0.0308  2.1957  0.4920
17612TIP3   OH274250   0.910   5.994  13.530  0.1005 -0.0100 -0.1456
17612TIP3    H174251   0.836   6.037  13.487  1.2151  0.6457 -1.4421
17612TIP3    H274252   0.920   5.911  13.484  1.1690  0.6050 -1.0427
17613TIP3   OH274253   4.439   2.172  10.758 -0.2108 -0.0059  0.0391
17613TIP3    H174254   4.483   2.229  10.821  0.6982 -0.1531 -0.4561
17613TIP3    H274255   4.409   2.098  10.810 -0.0703  0.2040  0.4220
17614TIP3   OH274256   5.745   4.178  13.768  0.0074  0.5773 -0.0165
17614TIP3    H174257   5.717   4.182  13.859  0.7654  0.7949  0.2087
17614TIP3    H274258   5.829   4.222  13.766 -0.5072  1.5452 -1.0246
17615TIP3   OH274259   6.203   4.760   1.953  0.8266 -0.3232  0.0087
17615TIP3    H174260   6.223   4.819   2.026 -0.4746  0.5439 -0.3160
17615TIP3    H274261   6.288   4.726   1.926  1.3270 -0.6617  1.9269
17616TIP3   OH274262   2.619   2.063   3.548 -0.1136 -0.2087  0.6389
17616TIP3    H174263   2.554   2.126   3.580 -0.5940  1.3488 -3.0961
17616TIP3    H274264   2.703   2.095   3.582 -0.6667  0.8867  0.9787
17617TIP3   OH274265   3.541   3.201  17.021  0.3022 -0.2951 -0.0267
17617TIP3    H174266   3.637   3.204  17.026  0.2800  1.3897 -0.3433
17617TIP3    H274267   3.513   3.289  17.045 -1.3040 -1.4849  2.7343
17618TIP3   OH274268   3.635   6.108   2.181  0.3238 -0.2459  0.1170
17618TIP3    H174269   3.619   6.014   2.169 -1.6977 -0.0549  1.2161
17618TIP3    H274270   3.701   6.112   2.250  0.4224 -0.8621  0.0667
17619TIP3   OH274271   6.326   2.158  12.975  0.0805 -0.4955  0.1235
17619TIP3    H174272   6.364   2.071  12.965  0.7470 -0.0369 -1.5084
17619TIP3    H274273   6.247   2.157  12.922 -0.3955 -0.3926  0.8270
17620TIP3   OH274274   6.058   5.506   5.189  0.0972 -0.0263  0.2680
17620TIP3    H174275   6.059   5.576   5.123 -2.2309 -1.5739 -1.5083
17620TIP3    H274276   6.008   5.542   5.262 -0.4630  0.4101 -0.3282
17621TIP3   OH274277   1.237   0.951   0.671  0.3159 -0.3090 -0.0362
17621TIP3    H174278   1.232   1.040   0.636  0.6566 -0.6056 -0.8377
17621TIP3    H274279   1.330   0.937   0.688  0.2267 -0.4001  0.3738
17622TIP3   OH274280   5.711   6.384  12.933 -0.6514  0.1612 -0.0552
17622TIP3    H174281   5.686   6.302  12.891 -0.2017  0.0833 -0.1759
17622TIP3    H274282   5.694   6.451  12.867 -1.0276  0.1684  0.0454
17623TIP3   OH274283   0.099   1.641   2.558 -0.5934 -0.6048  0.0631
17623TIP3    H174284   0.104   1.704   2.486 -0.5725 -0.2985  0.3357
17623TIP3    H274285   0.029   1.673   2.614  0.3481 -0.0480  0.9423
17624TIP3   OH274286   6.466   6.389   2.123 -0.1173  0.0831 -0.1571
17624TIP3    H174287   6.457   6.472   2.168 -0.3326 -0.9482  1.7457
17624TIP3    H274288   6.442   6.408   2.032  2.0859  2.5874 -0.2817
17625TIP3   OH274289   5.562   0.443   5.179 -0.1538  0.1007  0.2663
17625TIP3    H174290   5.557   0.409   5.090  0.5572  1.0292 -0.1306
17625TIP3    H274291   5.628   0.388   5.222 -0.9838 -0.7848  0.4284
17626TIP3   OH274292   2.496   1.954   0.441  0.0234 -0.1435 -0.7233
17626TIP3    H174293   2.524   1.870   0.405 -0.2760  0.1205 -1.5901
17626TIP3    H274294   2.577   2.004   0.452  0.2864 -0.8261  0.5505
17627TIP3   OH274295   5.682   4.335   2.453 -0.4801  0.4657  0.0337
17627TIP3    H174296   5.596   4.375   2.465 -0.1107  1.5500 -0.7856
17627TIP3    H274297   5.687   4.317   2.359 -0.3472 -0.8458  0.2952
17628TIP3   OH274298   6.150   0.165   0.087  0.7873  0.4267 -0.3309
17628TIP3    H174299   6.207   0.221   0.140  1.1434  1.9401 -2.2618
17628TIP3    H274300   6.194   0.159   0.003 -1.0976  0.2309 -1.3274
17629TIP3   OH274301   2.819   4.208  14.543  0.0844 -1.2031 -0.2198
17629TIP3    H174302   2.853   4.131  14.590 -0.3563 -1.8884 -1.0077
17629TIP3    H274303   2.729   4.184  14.520 -0.7675  0.3884  1.3604
17630TIP3   OH274304   3.510   4.907   1.097  0.7506  0.3973  0.0770
17630TIP3    H174305   3.601   4.932   1.081  1.7611 -3.2228 -0.3549
17630TIP3    H274306   3.477   4.879   1.012 -1.1672  2.7047  0.0095
17631TIP3   OH274307   4.051   6.270  14.987 -0.3022  0.0118  0.4058
17631TIP3    H174308   4.080   6.191  15.034 -1.1312  0.0524  0.9931
17631TIP3    H274309   4.031   6.240  14.899  0.2456 -0.2658  0.3712
17632TIP3   OH274310   6.372   6.311   1.696  0.1885 -0.1297 -0.4684
17632TIP3    H174311   6.457   6.322   1.653 -0.1690  1.5550 -0.7600
17632TIP3    H274312   6.319   6.264   1.631 -0.0502  1.5561 -1.5290
17633TIP3   OH274313   3.016   0.690   0.003  0.5860 -0.0863  0.3691
17633TIP3    H174314   3.017   0.596   0.023  0.0641 -0.6808 -2.1892
17633TIP3    H274315   2.929   0.720   0.032 -0.4136 -1.0702 -1.4712
17634TIP3   OH274316   1.859   3.378   0.880  0.5247 -0.2781 -0.0750
17634TIP3    H174317   1.954   3.379   0.886  0.5496  2.3264 -0.5761
17634TIP3    H274318   1.828   3.422   0.959 -0.2246 -0.0738 -0.4720
17635TIP3   OH274319   5.513   2.770   0.311 -0.0332  0.4200  0.2754
17635TIP3    H174320   5.511   2.676   0.328 -0.9597  0.3750 -0.0410
17635TIP3    H274321   5.590   2.783   0.254  0.4182 -0.0566  0.7747
17636TIP3   OH274322   6.282   2.968   1.376 -0.4215 -0.6161 -0.2349
17636TIP3    H174323   6.263   2.875   1.391  0.9647 -0.4785  2.6270
17636TIP3    H274324   6.364   2.968   1.328  0.3540 -0.8530  1.0726
17637TIP3   OH274325   2.051   4.034   1.878 -0.0122  0.4571 -0.5993
17637TIP3    H174326   2.107   4.113   1.877 -1.4711  1.5139 -0.2303
17637TIP3    H274327   2.046   4.008   1.786  3.0501 -1.0906 -0.3900
17638TIP3   OH274328   6.097   2.438  12.625  0.1669 -0.1272 -0.0668
17638TIP3    H174329   6.072   2.414  12.714  0.4091  0.8638  0.2729
17638TIP3    H274330   6.135   2.525  12.633  1.1013 -0.4354 -1.0012
17639TIP3   OH274331   5.341   4.482  14.418 -0.2537 -0.3488  0.2458
17639TIP3    H174332   5.249   4.460  14.434 -0.2206 -0.7332 -0.0837
17639TIP3    H274333   5.390   4.412  14.462 -0.1571 -1.3123 -1.3594
17640TIP3   OH274334   5.527   1.924  13.203  0.2549 -0.2305 -0.6835
17640TIP3    H174335   5.513   2.014  13.174 -2.2017  0.4487  2.2708
17640TIP3    H274336   5.607   1.927  13.255 -1.1275  0.8292  1.4525
17641TIP3   OH274337   4.954   6.582   0.460  0.3028 -0.4765 -0.2129
17641TIP3    H174338   4.904   6.504   0.435 -0.5524 -0.4677  1.3682
17641TIP3    H274339   4.943   6.588   0.555  1.2570  0.9609 -0.1720
17642TIP3   OH274340   4.495   4.753  12.557  0.3483  0.0593  0.0906
17642TIP3    H174341   4.417   4.733  12.506  0.6305  0.0270 -0.3365
17642TIP3    H274342   4.568   4.739  12.496  0.9334 -3.4714  1.5128
17643TIP3   OH274343   1.062   2.856  12.527  0.5849 -0.1185  0.0040
17643TIP3    H174344   1.111   2.880  12.605  0.1714  1.1724 -0.1110
17643TIP3    H274345   1.128   2.848  12.458  0.5633  2.5852 -0.3765
17644TIP3   OH274346   2.892   6.494  16.031 -0.1294 -0.1883  0.4367
17644TIP3    H174347   2.841   6.574  16.037  0.7058  0.2292  2.1580
17644TIP3    H274348   2.831   6.429  15.996 -1.1772  0.8750  0.2835
17645TIP3   OH274349   3.396   2.137  13.351  0.5803  0.2131 -0.1654
17645TIP3    H174350   3.309   2.106  13.377  1.1436  0.4220  2.0900
17645TIP3    H274351   3.385   2.231  13.340  0.0441 -0.0513 -1.9796
17646TIP3   OH274352   5.993   2.418   0.915 -0.3236 -0.6551 -0.0246
17646TIP3    H174353   6.019   2.326   0.909 -2.5814 -1.2360 -2.0068
17646TIP3    H274354   5.906   2.416   0.953  0.5031  0.8809  2.0522
17647TIP3   OH274355   3.826   5.273  16.808  0.5101 -0.6040 -0.9055
17647TIP3    H174356   3.879   5.306  16.735  0.1422 -0.2769 -1.0214
17647TIP3    H274357   3.750   5.331  16.811  1.6390  0.8163  1.1947
17648TIP3   OH274358   2.048   5.150   1.329 -0.6198  0.7535  0.1456
17648TIP3    H174359   2.039   5.156   1.424 -2.3161 -0.2183  0.0650
17648TIP3    H274360   2.008   5.231   1.296 -2.9333 -0.3737  0.1244
17649TIP3   OH274361   5.425   0.488  16.693 -0.3993  0.3118  0.5323
17649TIP3    H174362   5.451   0.396  16.690  0.0614  0.4679 -1.0668
17649TIP3    H274363   5.505   0.534  16.719  0.2481  0.5312 -1.7125
17650TIP3   OH274364   3.776   3.529   3.782 -0.0571 -0.0163  0.0044
17650TIP3    H174365   3.843   3.580   3.736  0.1611  0.0116  0.3507
17650TIP3    H274366   3.824   3.487   3.854 -0.6019  0.7329  0.8024
17651TIP3   OH274367   2.792   0.239   3.913 -0.1349 -0.1087 -0.3282
17651TIP3    H174368   2.863   0.195   3.867  0.0400 -0.9305  0.7157
17651TIP3    H274369   2.829   0.264   3.997  0.1494  3.2144 -1.3670
17652TIP3   OH274370   6.281   6.590  16.007  0.1945 -0.7148 -0.1915
17652TIP3    H174371   6.268   6.496  16.005  1.4250 -0.8809 -0.4185
17652TIP3    H274372   6.340   6.605  16.081 -0.7724 -0.0256  0.4575
17653TIP3   OH274373   3.902   5.013  13.302 -0.2565 -0.0494 -0.2323
17653TIP3    H174374   3.977   4.953  13.306 -0.2305  0.0726  2.8663
17653TIP3    H274375   3.852   4.985  13.226  3.4372  0.5071 -2.9948
17654TIP3   OH274376   2.772   6.335  11.627  0.1551 -0.0853  0.1364
17654TIP3    H174377   2.768   6.240  11.632  1.4846 -0.0883  1.7605
17654TIP3    H274378   2.697   6.365  11.677  0.9899 -0.2867  1.5394
17655TIP3   OH274379   0.973   4.813  10.869 -0.5242  0.5923 -0.2481
17655TIP3    H174380   1.027   4.753  10.817 -1.1631 -1.0147  0.9066
17655TIP3    H274381   1.035   4.877  10.904  0.2462  0.2965 -1.0520
17656TIP3   OH274382   0.249   6.579   5.318 -0.2503  0.5405  0.2876
17656TIP3    H174383   0.296   6.538   5.246  1.7196  1.9407  0.7471
17656TIP3    H274384   0.164   6.535   5.319  0.9820 -1.9720 -0.6086
17657TIP3   OH274385   5.094   4.792   4.583  0.3061  0.3721 -0.3865
17657TIP3    H174386   5.139   4.813   4.664 -2.3759  0.4567  1.1537
17657TIP3    H274387   5.074   4.878   4.544 -0.4704  0.4210  0.0900
17658TIP3   OH274388   0.421   2.844   3.014  0.5720  0.4108  0.0579
17658TIP3    H174389   0.483   2.855   3.086  0.9818  0.7153 -0.3404
17658TIP3    H274390   0.476   2.838   2.936  0.2431 -1.7953 -0.0426
17659TIP3   OH274391   5.844   4.202  12.835 -0.5178 -0.7073  0.7954
17659TIP3    H174392   5.892   4.150  12.771 -1.1248  0.6363 -0.7831
17659TIP3    H274393   5.880   4.175  12.920  0.9922 -1.7888 -0.1746
17660TIP3   OH274394   0.512   6.619   2.332 -0.1946  0.6045 -0.2318
17660TIP3    H174395   0.460   6.625   2.252  0.9566  2.4880 -0.8755
17660TIP3    H274396   0.581   6.684   2.321  1.6183 -1.0331  1.1176
17661TIP3   OH274397   4.443   0.074   2.280 -0.6364 -0.0524 -0.0599
17661TIP3    H174398   4.435   0.168   2.296 -0.4606 -0.0324 -0.0917
17661TIP3    H274399   4.357   0.048   2.248 -0.7115  0.0817  0.0310
17662TIP3   OH274400   3.480   2.924  14.756  0.9885  0.2593  0.2071
17662TIP3    H174401   3.483   2.926  14.851  2.8430 -1.1559  0.2018
17662TIP3    H274402   3.413   2.858  14.736  0.8343  0.3172  0.5289
17663TIP3   OH274403   3.165   5.968   1.264  0.1991 -0.1947  0.1700
17663TIP3    H174404   3.122   5.926   1.189  2.6062 -0.1839 -1.2484
17663TIP3    H274405   3.143   6.061   1.255 -0.6475 -0.3814  0.2674
17664TIP3   OH274406   4.731   0.735   1.970  0.4521  0.5319  0.3484
17664TIP3    H174407   4.764   0.674   2.036 -1.7215 -1.0485  0.0004
17664TIP3    H274408   4.637   0.736   1.982  0.4056  3.4752  0.0068
17665TIP3   OH274409   5.708   1.804  14.081  0.3639  0.0703 -0.2556
17665TIP3    H174410   5.660   1.880  14.048 -1.1145  0.2565  2.1847
17665TIP3    H274411   5.759   1.837  14.154 -1.0409 -1.4153  1.4544
17666TIP3   OH274412   4.212   0.684   0.883 -0.4162 -0.3764  0.3632
17666TIP3    H174413   4.198   0.758   0.824 -0.2930 -1.0495 -0.5194
17666TIP3    H274414   4.277   0.715   0.946 -0.0447  0.1246 -0.2628
17667TIP3   OH274415   1.083   4.741  16.307 -0.2619 -0.3010  0.0371
17667TIP3    H174416   0.989   4.754  16.294 -0.3804 -0.1691  1.0275
17667TIP3    H274417   1.105   4.796  16.382  0.9686  1.1488 -1.3410
17668TIP3   OH274418   0.314   3.142   0.585  0.0254 -0.2073 -0.0408
17668TIP3    H174419   0.282   3.175   0.668 -0.1834  0.2049 -0.2859
17668TIP3    H274420   0.255   3.070   0.563  0.0975 -0.3344  0.1779
17669TIP3   OH274421   5.449   6.722   4.199  0.1661 -0.3093 -0.2839
17669TIP3    H174422   5.522   6.784   4.190  0.0418 -0.3574 -1.7308
17669TIP3    H274423   5.438   6.686   4.111 -2.6093  0.8157 -0.4503
17670TIP3   OH274424   1.231   2.219   3.968  0.1012  0.2010 -0.3648
17670TIP3    H174425   1.230   2.208   4.063  0.1790 -0.2696 -0.4193
17670TIP3    H274426   1.319   2.250   3.947 -0.0155  0.6243 -0.2520
17671TIP3   OH274427   6.340   3.975  11.932 -0.6637 -0.1088  0.5813
17671TIP3    H174428   6.272   3.993  11.997  0.9124 -0.7419  2.4830
17671TIP3    H274429   6.385   3.897  11.966  0.3566 -0.2972 -1.1510
17672TIP3   OH274430   4.061   3.427   2.844 -0.0997 -0.4304  0.0852
17672TIP3    H174431   4.093   3.478   2.918  0.1469 -0.2477 -0.1476
17672TIP3    H274432   4.067   3.486   2.769 -0.3969 -0.5966 -0.0719
17673TIP3   OH274433   6.636   3.480   6.308  0.0860  0.5023 -0.6204
17673TIP3    H174434   6.570   3.417   6.339  1.1439 -0.3278 -0.0288
17673TIP3    H274435   6.694   3.492   6.383  1.0333  0.6845 -1.3857
17674TIP3   OH274436   5.108   1.687  15.037 -0.4315 -0.2280 -0.5317
17674TIP3    H174437   5.057   1.638  15.101 -0.1198 -0.4135 -0.4221
17674TIP3    H274438   5.181   1.629  15.015  0.0880  0.2869 -0.1988
17675TIP3   OH274439   4.146   3.458  16.763 -0.0485  0.1399 -0.3216
17675TIP3    H174440   4.230   3.481  16.802 -0.5255  0.5091  0.5074
17675TIP3    H274441   4.083   3.470  16.834 -0.7596 -0.4215 -0.8574
17676TIP3   OH274442   6.612   4.680  13.557 -0.1626 -0.5021 -0.1322
17676TIP3    H174443   6.593   4.708  13.467  1.0272 -0.6888 -0.4498
17676TIP3    H274444   6.652   4.594  13.548 -1.9515 -1.4453  0.7203
17677TIP3   OH274445   2.026   6.699  10.696  0.2741 -0.1247  0.5018
17677TIP3    H174446   2.098   6.645  10.728 -0.9063 -0.9459  1.7950
17677TIP3    H274447   1.958   6.637  10.672 -0.9108  0.7448  1.5394
17678TIP3   OH274448   2.857   5.131  16.455  0.0020  0.3948 -0.1654
17678TIP3    H174449   2.878   5.211  16.407  1.9166  0.1045  0.1635
17678TIP3    H274450   2.891   5.061  16.400 -0.0490 -0.0882  0.4222
17679TIP3   OH274451   1.943   5.800   1.386 -0.3054  0.1176  0.2599
17679TIP3    H174452   1.974   5.751   1.462 -1.9656 -1.9335 -0.3424
17679TIP3    H274453   1.896   5.875   1.424  0.7917  0.3435  1.2023
17680TIP3   OH274454   3.678   0.686   2.255 -0.1251 -0.3436 -0.3392
17680TIP3    H174455   3.621   0.610   2.269 -1.3044  0.4224 -0.9570
17680TIP3    H274456   3.739   0.657   2.187  0.4323 -1.2664  0.5308
17681TIP3   OH274457   4.531   1.847   0.200  0.3597 -0.1269 -0.2994
17681TIP3    H174458   4.456   1.847   0.141  0.0780 -2.0960  0.0121
17681TIP3    H274459   4.583   1.771   0.173  1.2161  0.0743  0.7373
17682TIP3   OH274460   0.559   2.386  15.082 -1.2876  0.0535 -0.4750
17682TIP3    H174461   0.650   2.364  15.102 -1.4607  0.4025  0.8106
17682TIP3    H274462   0.554   2.386  14.987  0.2773  0.8791 -0.5740
17683TIP3   OH274463   6.615   1.049  12.777 -0.1045  0.0866 -0.1597
17683TIP3    H174464   6.559   1.032  12.702  0.4124  0.0582 -0.5432
17683TIP3    H274465   6.555   1.079  12.845 -0.6338 -0.3337 -0.4362
17684TIP3   OH274466   1.187   0.496  16.294  0.1851  0.0154  0.5957
17684TIP3    H174467   1.270   0.520  16.253  0.5049 -0.9015  0.6953
17684TIP3    H274468   1.212   0.444  16.371 -0.4503  0.5336  1.1637
17685TIP3   OH274469   2.214   1.563  16.262  0.0304 -0.3870  0.4712
17685TIP3    H174470   2.303   1.541  16.235 -0.8220 -4.7729  0.9022
17685TIP3    H274471   2.162   1.550  16.183 -0.4890  0.3807  0.6837
17686TIP3   OH274472   3.476   5.069  16.388 -0.2844  0.0177 -0.4345
17686TIP3    H174473   3.390   5.050  16.349 -0.1350 -0.8938 -0.3412
17686TIP3    H274474   3.538   5.019  16.334  0.3001  1.4329 -1.0932
17687TIP3   OH274475   0.342   2.350  12.487 -0.6207 -0.0145 -0.1486
17687TIP3    H174476   0.419   2.294  12.473 -0.6950 -0.4447  1.0688
17687TIP3    H274477   0.268   2.293  12.469 -0.7020 -0.3983  1.3129
17688TIP3   OH274478   4.965   2.412   4.368  0.2176  0.1970 -0.5703
17688TIP3    H174479   5.031   2.453   4.313  2.7034 -0.0211  2.1152
17688TIP3    H274480   4.909   2.484   4.398 -1.0940  0.3219 -3.1924
17689TIP3   OH274481   0.079   5.984   0.220  0.3242  0.2159  1.1499
17689TIP3    H174482   0.115   5.942   0.298 -2.7340 -2.7899  1.0453
17689TIP3    H274483   0.125   5.943   0.147  0.1683 -0.0737  1.2131
17690TIP3   OH274484   2.620   0.028   1.431  0.5545 -0.0920  0.0695
17690TIP3    H174485   2.638  -0.009   1.517 -0.9789 -1.0439  0.0010
17690TIP3    H274486   2.539   0.078   1.443  0.4399 -0.0713 -0.7811
17691TIP3   OH274487   1.022   3.544  15.716  0.2621 -1.0098  0.3814
17691TIP3    H174488   1.048   3.609  15.781  0.6881 -2.8482  2.0775
17691TIP3    H274489   1.102   3.495  15.698  0.1983 -0.4112 -1.7073
17692TIP3   OH274490   6.360   5.391  12.059 -0.5943 -0.0498  0.0332
17692TIP3    H174491   6.442   5.430  12.030 -0.9377  1.6072  1.2244
17692TIP3    H274492   6.316   5.363  11.978  1.0927 -0.8888 -0.6111
17693TIP3   OH274493   5.460   4.731   0.309 -0.1756  0.0871  0.4475
17693TIP3    H174494   5.377   4.683   0.303 -0.1494  0.0038  0.7216
17693TIP3    H274495   5.472   4.745   0.403 -0.1415  0.5610  0.3744
17694TIP3   OH274496   6.057   6.668   2.127  0.8009 -0.1408 -0.1882
17694TIP3    H174497   6.012   6.656   2.211  3.2398  2.1107  1.4761
17694TIP3    H274498   6.130   6.726   2.146  1.8535 -0.1829 -3.7491
17695TIP3   OH274499   1.454   3.532  15.105 -0.1421 -0.4009  0.4363
17695TIP3    H174500   1.492   3.525  15.193  0.1553 -1.3946  0.2404
17695TIP3    H274501   1.518   3.488  15.049 -0.9586 -0.9320 -0.0870
17696TIP3   OH274502   4.360   0.404  12.365 -0.7033 -0.1571 -0.1859
17696TIP3    H174503   4.429   0.423  12.429  0.2874 -0.8937 -1.0136
17696TIP3    H274504   4.316   0.327  12.400 -0.5749 -0.1770 -0.0663
17697TIP3   OH274505   1.069   3.757   1.638 -0.3027 -0.1438 -0.0807
17697TIP3    H174506   1.132   3.709   1.691  0.5608  0.2091 -0.7719
17697TIP3    H274507   1.028   3.819   1.698  1.7176  1.2717 -0.1393
17698TIP3   OH274508   5.158   1.961   2.629  0.1418 -0.1099  0.0274
17698TIP3    H174509   5.134   1.870   2.645 -3.1286  0.6269 -0.3124
17698TIP3    H274510   5.165   2.000   2.716 -2.3582  0.2318  0.0933
17699TIP3   OH274511   0.365   2.453   5.936  0.0571  0.2793 -0.0410
17699TIP3    H174512   0.354   2.456   5.841 -1.5266 -1.2775  0.0447
17699TIP3    H274513   0.366   2.544   5.964 -1.0706  0.7298 -1.4114
17700TIP3   OH274514   2.345   2.492   4.412  0.1575 -0.0239 -0.6731
17700TIP3    H174515   2.385   2.559   4.357 -1.0419  2.0114  0.8257
17700TIP3    H274516   2.409   2.475   4.481  0.1037  0.2404 -0.5583
17701TIP3   OH274517   2.119   3.329   4.663  0.0310 -0.1737  0.8132
17701TIP3    H174518   2.199   3.280   4.647 -0.1511 -0.2385  0.0758
17701TIP3    H274519   2.049   3.266   4.644 -0.1989  0.2069  0.3696
17702TIP3   OH274520   1.014   2.466   5.325 -0.3644  0.0885  0.5399
17702TIP3    H174521   1.096   2.424   5.347  0.5679  1.0389 -1.0469
17702TIP3    H274522   0.957   2.449   5.401  1.4187 -0.1903  1.8476
17703TIP3   OH274523   0.641   4.864  13.275 -0.2982  0.3082  0.0327
17703TIP3    H174524   0.714   4.805  13.256  0.3151  1.0625  0.0206
17703TIP3    H274525   0.632   4.917  13.196  0.0315  1.1397  0.5458
17704TIP3   OH274526   0.855   1.478   5.866 -0.5491  0.6506  0.0276
17704TIP3    H174527   0.841   1.502   5.958  0.5174 -1.4672  0.7628
17704TIP3    H274528   0.929   1.417   5.868  0.1832  1.3818 -2.3607
17705TIP3   OH274529   3.657   0.809  14.298 -0.6408  0.0496 -0.3607
17705TIP3    H174530   3.731   0.798  14.239 -0.2396 -0.8266  0.2877
17705TIP3    H274531   3.674   0.747  14.370 -0.7173  1.6568  1.0686
17706TIP3   OH274532   4.439   1.282   5.133  0.3183 -0.1404 -0.1801
17706TIP3    H174533   4.375   1.247   5.196 -0.2412 -1.8164 -1.6152
17706TIP3    H274534   4.391   1.350   5.085  0.6313  0.8771  0.9419
17707TIP3   OH274535   6.250   5.221  13.588  0.2080 -0.0369 -1.3412
17707TIP3    H174536   6.313   5.194  13.655 -0.3156  1.8700 -0.0336
17707TIP3    H274537   6.291   5.197  13.506  2.2712  0.3873 -0.4621
17708TIP3   OH274538   4.909   6.151  13.564  0.0213 -0.4724  0.3817
17708TIP3    H174539   4.937   6.101  13.640 -0.6753  1.8313  2.2256
17708TIP3    H274540   4.980   6.214  13.549 -0.4398 -0.0648 -0.1035
17709TIP3   OH274541   6.708   1.944   2.950  0.0507 -0.0282 -0.5211
17709TIP3    H174542   6.736   1.896   3.028 -0.5446  0.1180 -0.2093
17709TIP3    H274543   6.613   1.948   2.958  0.0600  0.7831 -0.7859
17710TIP3   OH274544   1.570   3.623   3.732  0.4940  0.0696  0.0489
17710TIP3    H174545   1.583   3.557   3.800 -0.2936 -0.8660 -0.6949
17710TIP3    H274546   1.573   3.574   3.650 -2.8289  0.5025 -0.3863
17711TIP3   OH274547   0.102   5.459   3.520 -0.2634  0.3460 -0.1593
17711TIP3    H174548   0.135   5.432   3.434  1.7142  1.5427  0.1830
17711TIP3    H274549   0.164   5.525   3.549 -1.7688  1.0406  1.5467
17712TIP3   OH274550   2.067   5.029  16.348 -0.0456  0.0004 -0.1729
17712TIP3    H174551   1.979   5.011  16.315 -0.7233  0.2495  1.4117
17712TIP3    H274552   2.052   5.091  16.420  1.5621  1.1818 -0.8393
17713TIP3   OH274553   0.737   1.294  15.801 -0.4611  0.5222  0.5102
17713TIP3    H174554   0.793   1.225  15.836 -0.8629 -0.7578 -1.2934
17713TIP3    H274555   0.661   1.248  15.766 -1.3230  1.9982  0.3766
17714TIP3   OH274556   4.712   2.558  14.229  0.2291  0.1159 -0.0933
17714TIP3    H174557   4.662   2.638  14.216 -1.7490 -0.9196  0.8470
17714TIP3    H274558   4.798   2.588  14.257 -0.3539  1.9273 -0.1788
17715TIP3   OH274559   4.303   1.568  10.915  0.0824  0.1458 -0.4014
17715TIP3    H174560   4.275   1.644  10.863  0.9357  2.8833  2.9330
17715TIP3    H274561   4.397   1.563  10.902  0.1707  0.3035  0.1482
17716TIP3   OH274562   1.998   1.135   2.212  0.5270 -0.5179  0.1627
17716TIP3    H174563   1.973   1.050   2.250  0.4328  0.5041  2.4660
17716TIP3    H274564   1.932   1.196   2.245 -0.7257  0.1348 -3.2568
17717TIP3   OH274565   2.531   4.772  12.783 -0.6453  0.1511  0.4972
17717TIP3    H174566   2.460   4.708  12.777 -0.4118 -0.3014  2.2906
17717TIP3    H274567   2.555   4.790  12.692 -1.4970 -1.4334 -0.0553
17718TIP3   OH274568   4.621   3.930  16.890 -0.6492 -0.0924  0.4022
17718TIP3    H174569   4.575   3.905  16.810 -1.9493 -1.5953  1.5966
17718TIP3    H274570   4.707   3.959  16.859 -0.1987 -3.0537 -1.3417
17719TIP3   OH274571   4.010   4.264  15.030 -0.0740  0.0493 -0.2566
17719TIP3    H174572   3.969   4.321  15.096 -1.3530  0.5811 -1.4906
17719TIP3    H274573   4.008   4.316  14.950  0.8153 -0.8778 -0.8749
17720TIP3   OH274574   5.952   5.935   0.107  0.3355  0.2101  0.2588
17720TIP3    H174575   5.920   5.899   0.190  0.2153  1.5850  0.8310
17720TIP3    H274576   5.947   5.863   0.045 -1.9723 -0.1437  0.8353
17721TIP3   OH274577   4.993   2.573  14.173  0.5438 -0.1417  0.4270
17721TIP3    H174578   5.080   2.560  14.211  0.4850  0.9264  0.9620
17721TIP3    H274579   4.984   2.504  14.108  2.0276  0.0956 -0.0389
17722TIP3   OH274580   5.749   6.010  14.682  0.1014 -0.1226 -0.1091
17722TIP3    H174581   5.803   6.088  14.696  0.0168 -0.1557  0.4124
17722TIP3    H274582   5.794   5.941  14.731  0.1996 -0.4123 -0.6081
17723TIP3   OH274583   4.487   0.371  11.938 -0.2585 -0.3676  0.3456
17723TIP3    H174584   4.414   0.386  11.998 -0.1279 -1.3497  0.7680
17723TIP3    H274585   4.545   0.446  11.950 -0.5667 -0.2297  0.9527
17724TIP3   OH274586   4.849   5.506  13.266 -1.0055 -0.1709 -0.5278
17724TIP3    H174587   4.941   5.532  13.262 -0.4144 -2.0735  0.1137
17724TIP3    H274588   4.814   5.554  13.341  0.1631 -1.4618  0.8785
17725TIP3   OH274589   5.218   3.747   2.861 -0.4137 -0.2915 -0.8126
17725TIP3    H174590   5.159   3.798   2.806  0.4483  0.8406 -0.6888
17725TIP3    H274591   5.282   3.810   2.894 -1.7705 -0.6031  2.6959
17726TIP3   OH274592   3.291   5.254  14.998  0.3770 -0.0858  0.2904
17726TIP3    H174593   3.319   5.179  14.946  0.3894  0.8786 -1.1270
17726TIP3    H274594   3.371   5.285  15.040  1.0400  1.1482 -1.7832
17727TIP3   OH274595   6.391   3.487   4.459  0.0977  0.0179 -0.1103
17727TIP3    H174596   6.459   3.420   4.451  1.2423  1.3278 -1.6420
17727TIP3    H274597   6.435   3.562   4.500 -1.4622 -0.5178  2.7122
17728TIP3   OH274598   3.573   0.090   0.182  0.4916 -0.4007 -0.0840
17728TIP3    H174599   3.640   0.033   0.220 -0.0104 -1.0246 -0.1161
17728TIP3    H274600   3.518   0.031   0.130  0.4417  0.2473 -0.7676
17729TIP3   OH274601   2.691   0.796  17.088  0.1194  0.1827  0.5206
17729TIP3    H174602   2.681   0.701  17.092 -1.3850  0.3536  1.1963
17729TIP3    H274603   2.737   0.819  17.168  1.6901 -0.1026 -0.2804
17730TIP3   OH274604   4.920   5.253   3.834  0.5253  0.4667 -0.3894
17730TIP3    H174605   4.958   5.202   3.906 -2.4198 -1.3934 -0.0951
17730TIP3    H274606   4.969   5.226   3.757  1.1804 -0.3604  0.3073
17731TIP3   OH274607   5.853   0.735  10.683 -0.0422  0.2138 -0.9457
17731TIP3    H174608   5.932   0.683  10.698  0.0938  0.7971  0.4928
17731TIP3    H274609   5.848   0.793  10.759 -2.2034 -0.2492 -0.6949
17732TIP3   OH274610   5.362   1.307   2.032 -0.1217 -0.5356 -0.2246
17732TIP3    H174611   5.381   1.361   2.109 -0.0246 -0.8715 -0.0120
17732TIP3    H274612   5.448   1.293   1.991 -0.3251  0.7064 -1.1094
17733TIP3   OH274613   5.289   4.088  15.065 -0.3734 -0.1361  0.3511
17733TIP3    H174614   5.325   4.176  15.057  1.5619 -0.9506 -0.3065
17733TIP3    H274615   5.333   4.051  15.142  1.7733 -1.8195 -1.5922
17734TIP3   OH274616   0.283   2.655   5.534  0.0586 -0.0629 -0.2109
17734TIP3    H174617   0.257   2.679   5.445 -0.3496 -1.7728 -0.5610
17734TIP3    H274618   0.346   2.722   5.559  0.0350  0.5414 -1.7091
17735TIP3   OH274619   3.652   6.092   0.027  0.3358 -0.4539 -0.1625
17735TIP3    H174620   3.659   6.015   0.083  0.4431 -0.4500 -0.1694
17735TIP3    H274621   3.731   6.143   0.048  1.1297 -1.1541 -1.3843
17736TIP3   OH274622   0.272   4.196  10.889 -0.3562 -0.0654  0.0847
17736TIP3    H174623   0.223   4.192  10.807 -1.1282  1.3758  0.4527
17736TIP3    H274624   0.235   4.125  10.942 -0.0618 -0.8093 -0.7031
17737TIP3   OH274625   0.053   0.755  11.822 -0.0665  0.1297  0.1220
17737TIP3    H174626   0.067   0.691  11.891  0.2871 -0.3758 -0.4141
17737TIP3    H274627   0.141   0.770  11.785 -0.2916  0.1927 -0.3906
17738TIP3   OH274628   0.174   2.931   0.560  0.0007 -0.0659 -0.6325
17738TIP3    H174629   0.234   2.874   0.609  2.1087  0.8405 -2.1055
17738TIP3    H274630   0.164   2.889   0.475  2.1047  2.0585 -1.9762
17739TIP3   OH274631   3.312   0.559  13.046 -0.0279  0.1170  0.0535
17739TIP3    H174632   3.301   0.465  13.036 -0.5979  0.2500 -0.5397
17739TIP3    H274633   3.390   0.568  13.102 -0.0975 -0.7029  0.2841
17740TIP3   OH274634   5.100   5.684  16.656  0.4025 -0.6093 -0.1099
17740TIP3    H174635   5.097   5.671  16.751 -0.9494 -1.1555 -0.2069
17740TIP3    H274636   5.131   5.774  16.644 -0.5645 -0.1425  0.8775
17741TIP3   OH274637   5.037   6.527  15.096  0.0153  0.5887 -0.4154
17741TIP3    H174638   4.946   6.500  15.088 -0.4630  2.1323 -0.4722
17741TIP3    H274639   5.081   6.488  15.020 -0.3788 -0.9889  0.1660
17742TIP3   OH274640   2.197   4.332  13.364 -0.1928 -0.5263 -0.3064
17742TIP3    H174641   2.170   4.249  13.324 -0.2466 -0.0005 -1.3838
17742TIP3    H274642   2.293   4.330  13.360 -0.2170 -0.1614 -1.1188
17743TIP3   OH274643   1.579   0.150  17.061 -0.1113  0.2022 -0.1761
17743TIP3    H174644   1.661   0.199  17.066 -0.0820 -0.0629  2.3438
17743TIP3    H274645   1.522   0.204  17.007  1.8269  0.2091 -2.2963
17744TIP3   OH274646   5.398   5.740   6.253 -0.2232  0.0467 -0.5876
17744TIP3    H174647   5.371   5.657   6.214 -0.1642  0.6849 -2.0209
17744TIP3    H274648   5.321   5.769   6.303 -0.2998 -0.7811 -0.2243
17745TIP3   OH274649   6.376   2.931   5.378 -0.2972  0.1339  0.2178
17745TIP3    H174650   6.435   2.981   5.322 -0.9127  0.6201 -0.0091
17745TIP3    H274651   6.389   2.968   5.465  1.7852 -1.6494  0.7097
17746TIP3   OH274652   4.378   2.582  10.795  0.2698 -0.3309  0.2849
17746TIP3    H174653   4.367   2.567  10.701  1.5588 -2.7259  0.4751
17746TIP3    H274654   4.289   2.579  10.830 -0.2151  0.5066 -0.8257
17747TIP3   OH274655   0.179   0.255  14.365 -0.1999  0.4124 -0.1170
17747TIP3    H174656   0.150   0.318  14.298  1.1704 -0.6866 -1.8125
17747TIP3    H274657   0.274   0.249  14.351 -0.2143 -1.4816  0.4908
17748TIP3   OH274658   6.174   1.767   2.199 -0.3341 -0.8371  0.6302
17748TIP3    H174659   6.259   1.810   2.184 -0.9507  0.3091  0.3759
17748TIP3    H274660   6.180   1.733   2.289  0.6780 -1.4513  0.3460
17749TIP3   OH274661   0.743   3.416   5.655  0.0138  0.0450  0.1406
17749TIP3    H174662   0.718   3.486   5.715 -0.9109 -1.8756  2.0570
17749TIP3    H274663   0.834   3.435   5.633 -0.1707  1.7428  0.7831
17750TIP3   OH274664   6.240   0.703   0.897 -0.1261  0.1935  0.6869
17750TIP3    H174665   6.295   0.628   0.876  1.3178  0.5854  2.9170
17750TIP3    H274666   6.238   0.755   0.816 -0.5940 -1.8830 -0.6502
17751TIP3   OH274667   5.065   2.981  12.241 -1.1591  0.5904 -0.2791
17751TIP3    H174668   5.059   2.976  12.146 -1.3294 -0.2486 -0.2267
17751TIP3    H274669   4.974   2.993  12.269 -1.0211  1.7305 -0.2598
17752TIP3   OH274670   6.134   6.535  16.724 -0.9153  0.3344 -0.1410
17752TIP3    H174671   6.148   6.625  16.697  2.5776 -0.4368 -1.1937
17752TIP3    H274672   6.128   6.486  16.642 -2.5046 -0.4644  0.4214
17753TIP3   OH274673   6.092   6.450   5.235  0.3338 -0.2109 -0.0027
17753TIP3    H174674   6.149   6.374   5.224  1.5405  0.4075  1.7734
17753TIP3    H274675   6.127   6.515   5.173  0.7212 -0.3054  0.1169
17754TIP3   OH274676   4.264   2.184   0.998 -0.4811  0.2772  0.9773
17754TIP3    H174677   4.200   2.120   0.967 -2.1228  1.9009  0.9321
17754TIP3    H274678   4.339   2.132   1.026 -2.0845 -1.7025  1.6572
17755TIP3   OH274679   4.698   1.271  13.846  0.1478 -0.8907 -0.4973
17755TIP3    H174680   4.705   1.366  13.837 -0.7186 -0.9875 -2.3088
17755TIP3    H274681   4.770   1.248  13.905  1.2565  0.7271 -1.1698
17756TIP3   OH274682   5.289   4.190   1.165  0.3254  0.0148 -0.1809
17756TIP3    H174683   5.368   4.191   1.111  0.7096  2.0878  0.3573
17756TIP3    H274684   5.322   4.185   1.255 -0.2941 -2.9994 -0.0740
17757TIP3   OH274685   5.764   5.342   4.545 -0.3949 -0.4928  0.0139
17757TIP3    H174686   5.772   5.436   4.562 -1.8699 -0.3415 -0.0304
17757TIP3    H274687   5.828   5.324   4.477 -0.4064  0.5738 -0.2941
17758TIP3   OH274688   3.647   3.354  11.775  0.5420  0.3868 -0.4822
17758TIP3    H174689   3.683   3.431  11.731 -0.0854  0.9864  0.0555
17758TIP3    H274690   3.558   3.346  11.741  0.6693 -0.2222 -0.6813
17759TIP3   OH274691   3.222   0.481  13.468  0.5017 -0.3754  0.5497
17759TIP3    H174692   3.240   0.474  13.561  2.4258  1.0744  0.3303
17759TIP3    H274693   3.296   0.436  13.426 -0.4779 -1.2312 -0.2700
17760TIP3   OH274694   3.098   2.752  14.431  0.2004  0.0843  0.1470
17760TIP3    H174695   3.168   2.705  14.476 -0.4132  0.7793  1.8270
17760TIP3    H274696   3.121   2.743  14.338  1.6387 -1.0735  0.5794
17761TIP3   OH274697   0.863   0.583   2.841 -0.1736 -0.2435  0.6339
17761TIP3    H174698   0.912   0.543   2.913 -0.5673 -0.8126  0.5855
17761TIP3    H274699   0.880   0.677   2.850 -0.2788 -0.3113  1.5048
17762TIP3   OH274700   5.716   1.666   1.988  0.4017 -0.0567  0.0395
17762TIP3    H174701   5.702   1.736   1.924 -2.0631  0.2717  0.9021
17762TIP3    H274702   5.810   1.669   2.006  0.6001  1.9359 -1.1663
17763TIP3   OH274703   6.354   3.167  11.494  0.2692  0.1712  0.3396
17763TIP3    H174704   6.309   3.164  11.409 -0.3924 -0.2760  0.7093
17763TIP3    H274705   6.404   3.249  11.491 -0.6360  0.7210 -0.0350
17764TIP3   OH274706   1.081   4.394  14.761 -0.3769  0.1563 -0.1358
17764TIP3    H174707   0.992   4.364  14.745 -0.0332 -1.4439  0.8970
17764TIP3    H274708   1.080   4.486  14.733 -1.7306 -0.4632 -2.3206
17765TIP3   OH274709   4.903   6.097   5.440  0.1269 -0.3623  0.2765
17765TIP3    H174710   4.933   6.014   5.476 -0.0199 -0.8937 -0.7873
17765TIP3    H274711   4.925   6.162   5.506 -0.5827 -1.3727  1.5134
17766TIP3   OH274712   1.836   0.420  11.433 -0.4998  0.0394 -0.1124
17766TIP3    H174713   1.793   0.477  11.496 -1.4680 -1.2588  0.4188
17766TIP3    H274714   1.822   0.463  11.349 -3.4909 -0.7109 -0.0458
17767TIP3   OH274715   0.308   1.760  16.036  0.1454 -0.3344  0.2065
17767TIP3    H174716   0.244   1.829  16.056  0.5514  0.2324 -0.4248
17767TIP3    H274717   0.260   1.678  16.050 -0.6209  0.0827  0.0741
17768TIP3   OH274718   1.245   5.740  14.438  0.7050  0.4969  0.4186
17768TIP3    H174719   1.246   5.756  14.532  2.3338  0.5788  0.3951
17768TIP3    H274720   1.158   5.768  14.410  0.2197  0.4889  1.8897
17769TIP3   OH274721   5.544   6.661  14.138 -0.5512  0.2135 -0.0369
17769TIP3    H174722   5.548   6.663  14.042  0.3533 -1.4598 -0.0475
17769TIP3    H274723   5.606   6.728  14.166  1.0421 -0.9921 -0.6157
17770TIP3   OH274724   2.389   0.564  16.696 -0.2270 -0.3124  0.1739
17770TIP3    H174725   2.358   0.478  16.667 -2.7227 -0.5661  3.3801
17770TIP3    H274726   2.467   0.545  16.748  1.7145 -0.2073 -2.5834
17771TIP3   OH274727   3.687   3.394   3.126  0.6376  0.2933  0.0523
17771TIP3    H174728   3.611   3.337   3.115 -0.1306  1.4007 -0.4920
17771TIP3    H274729   3.678   3.459   3.056  0.8200  1.8226  1.4220
17772TIP3   OH274730   5.231   4.109   2.952 -0.3749  0.0668  0.2170
17772TIP3    H174731   5.298   4.048   2.921  0.3134  1.6923 -1.5767
17772TIP3    H274732   5.254   4.125   3.044  1.8520  0.8232 -0.4504
17773TIP3   OH274733   1.467   2.214  13.130 -0.3461  0.2447  0.6399
17773TIP3    H174734   1.445   2.273  13.202 -1.3561 -1.8874  2.1255
17773TIP3    H274735   1.383   2.185  13.095  0.1309  1.6102 -1.7430
17774TIP3   OH274736   5.973   5.834  13.581  0.5056 -0.0008 -0.4555
17774TIP3    H174737   6.004   5.796  13.663  3.0611 -2.3356 -2.4429
17774TIP3    H274738   6.049   5.833  13.523 -1.0243  2.3979 -2.6132
17775TIP3   OH274739   3.459   0.033  11.486 -0.2691 -0.0786  0.0972
17775TIP3    H174740   3.423  -0.015  11.561  1.3033 -3.1535 -1.0490
17775TIP3    H274741   3.521  -0.028  11.446  1.1189  2.6130 -1.9717
17776TIP3   OH274742   3.624   2.012  12.972  0.1223 -0.8517  0.5161
17776TIP3    H174743   3.676   1.983  13.047 -0.2668  1.3574  1.7103
17776TIP3    H274744   3.687   2.048  12.910  0.0895  1.8635  1.9783
17777TIP3   OH274745   2.317   2.652   4.056  0.2436 -0.0131  0.2140
17777TIP3    H174746   2.304   2.709   3.981 -0.9184 -2.9081 -1.8773
17777TIP3    H274747   2.375   2.583   4.024  1.9864  0.1631  2.8181
17778TIP3   OH274748   1.054   5.721  12.923 -0.6853 -0.2709  0.8743
17778TIP3    H174749   1.079   5.717  12.831  2.9807  1.7315  1.6894
17778TIP3    H274750   0.958   5.714  12.923 -0.7333 -0.2565 -3.0596
17779TIP3   OH274751   1.571   5.013  16.762  0.1120 -0.2393 -0.0306
17779TIP3    H174752   1.661   4.999  16.733 -0.4516 -1.9286 -1.0132
17779TIP3    H274753   1.567   5.106  16.784  1.5334  0.2819 -1.9167
17780TIP3   OH274754   4.968   6.104   0.291 -0.2502  0.1299  0.7801
17780TIP3    H174755   5.040   6.166   0.278  0.5730 -0.4179  2.4419
17780TIP3    H274756   4.907   6.150   0.349 -0.0786 -0.2490  1.2721
17781TIP3   OH274757   6.597   5.436   5.263  0.0239 -0.5851  0.4898
17781TIP3    H174758   6.575   5.348   5.294 -1.7015 -0.2024  0.4146
17781TIP3    H274759   6.557   5.442   5.176  0.2828  0.2107  0.4197
17782TIP3   OH274760   2.867   5.080   4.130 -0.2487 -0.4472  0.1865
17782TIP3    H174761   2.791   5.119   4.172  0.3705  0.9558  0.0225
17782TIP3    H274762   2.832   5.038   4.051 -0.7778  0.6276 -0.1502
17783TIP3   OH274763   5.951   2.174   4.050  0.6816 -0.4366 -0.7717
17783TIP3    H174764   6.024   2.159   4.110  2.6342  0.3097 -2.9014
17783TIP3    H274765   5.984   2.147   3.964 -1.1483  1.0130 -1.9833
17784TIP3   OH274766   4.662   6.758   5.420  0.2318  0.8095  0.7357
17784TIP3    H174767   4.667   6.667   5.450 -3.3495 -0.7154 -2.8197
17784TIP3    H274768   4.581   6.792   5.459 -0.6874  1.0547 -1.2968
17785TIP3   OH274769   5.079   1.987  13.736  0.2879  0.3862  0.4748
17785TIP3    H174770   5.006   1.955  13.788 -0.9125  1.1869 -0.6927
17785TIP3    H274771   5.141   1.914  13.735 -1.0489 -0.7758  0.4006
17786TIP3   OH274772   1.450   2.901   5.402 -0.2832  0.2587  0.0005
17786TIP3    H174773   1.520   2.940   5.454 -0.6343  0.9729 -0.0539
17786TIP3    H274774   1.372   2.951   5.427 -0.5716  0.1685 -0.7254
17787TIP3   OH274775   2.170   3.977   2.941 -0.2046  0.1014  0.8685
17787TIP3    H174776   2.253   3.996   2.985  0.3340  1.8641 -0.8107
17787TIP3    H274777   2.174   4.028   2.860 -1.9722 -1.5496 -0.3115
17788TIP3   OH274778   5.193   2.436   0.958  0.3164  0.1349  0.6576
17788TIP3    H174779   5.189   2.473   1.046 -0.9062 -1.8244  1.4536
17788TIP3    H274780   5.121   2.479   0.911 -0.4500 -0.4687  1.2749
17789TIP3   OH274781   3.001   2.086  14.449  0.3346 -0.0462  0.0249
17789TIP3    H174782   2.988   2.056  14.539  0.8302  3.8491  1.4896
17789TIP3    H274783   3.096   2.082  14.436  0.5433  2.1105  0.7288
17790TIP3   OH274784   5.111   1.700   2.734 -0.0281 -0.0520 -0.4034
17790TIP3    H174785   5.058   1.622   2.716 -0.2702 -0.3888  1.5873
17790TIP3    H274786   5.192   1.686   2.685 -0.6272 -0.9164 -1.1521
17791TIP3   OH274787   4.120   6.285  17.239 -0.1667 -0.5535 -0.1850
17791TIP3    H174788   4.193   6.325  17.193 -0.7707 -0.2626 -0.9066
17791TIP3    H274789   4.142   6.293  17.332 -1.0072  2.9569 -0.2137
17792TIP3   OH274790   6.040   2.889  11.423 -0.3100 -0.5929 -0.0521
17792TIP3    H174791   6.099   2.912  11.495 -0.4563 -2.8547  0.8430
17792TIP3    H274792   5.993   2.970  11.403  0.4950  0.3296  1.6767
17793TIP3   OH274793   1.889   3.814  11.990  0.2421 -0.2224  0.0440
17793TIP3    H174794   1.893   3.886  12.053 -1.8468  0.0057 -0.0245
17793TIP3    H274795   1.980   3.792  11.972  0.8722  0.6284  2.0912
17794TIP3   OH274796   6.310   2.560  15.423  0.4465 -0.3136  0.0933
17794TIP3    H174797   6.299   2.466  15.417  1.0498 -0.3014 -1.4881
17794TIP3    H274798   6.225   2.593  15.453 -0.9177 -1.0545 -2.8108
17795TIP3   OH274799   4.377   5.116   1.163  0.3249 -0.1809  0.1769
17795TIP3    H174800   4.357   5.030   1.201  1.3605 -1.0173 -1.1233
17795TIP3    H274801   4.463   5.104   1.123 -0.2963  0.9885 -1.5319
17796TIP3   OH274802   4.423   4.158   2.191 -0.3145  0.0229  0.4657
17796TIP3    H174803   4.332   4.173   2.166 -0.7458 -0.0587  1.9031
17796TIP3    H274804   4.424   4.069   2.227  1.0820 -1.3687 -2.8567
17797TIP3   OH274805   3.470   2.393  12.193  0.2050  0.2744 -0.4002
17797TIP3    H174806   3.423   2.453  12.136  1.6560  0.7768 -1.1094
17797TIP3    H274807   3.467   2.433  12.280  0.6085  1.0499 -0.7441
17798TIP3   OH274808   3.383   3.598  13.512 -0.2687  0.0419 -0.3101
17798TIP3    H174809   3.420   3.510  13.508  0.3320  0.1375  2.3526
17798TIP3    H274810   3.288   3.585  13.513 -0.1768 -0.7171  1.9452
17799TIP3   OH274811   6.754   6.777   3.931  0.4520  0.4004 -0.0069
17799TIP3    H174812   6.753   6.698   3.878  1.6581  1.3550 -1.4974
17799TIP3    H274813   6.823   6.761   3.996 -0.8869 -0.6799  1.2101
17800TIP3   OH274814   0.012   3.341  11.924  0.6943  0.1683 -0.2461
17800TIP3    H174815   0.097   3.307  11.953  1.2946  1.1182 -0.8622
17800TIP3    H274816   0.007   3.429  11.962  0.0237  0.1432 -0.2734
17801TIP3   OH274817   0.090   2.198  15.730 -0.1147  0.3270  0.2567
17801TIP3    H174818   0.037   2.163  15.658 -0.3052  1.2680 -0.0682
17801TIP3    H274819   0.155   2.129  15.748 -0.2431 -0.0258 -0.6241
17802TIP3   OH274820   5.462   2.451   1.027 -0.4962  0.1827  0.2249
17802TIP3    H174821   5.466   2.361   1.062 -0.8598  0.1351  0.1394
17802TIP3    H274822   5.381   2.454   0.976  0.2020  0.1540 -0.8966
17803TIP3   OH274823   0.678   0.929  15.536  0.3882 -0.2278 -0.0475
17803TIP3    H174824   0.707   0.937  15.445  1.1030  1.8200  0.3249
17803TIP3    H274825   0.584   0.947  15.532  0.0826 -1.8750 -0.5927
17804TIP3   OH274826   1.717   4.249   6.040  0.6029  0.0649 -0.5906
17804TIP3    H174827   1.742   4.326   6.091 -1.3466 -0.7480  1.6880
17804TIP3    H274828   1.783   4.183   6.063  0.3708  0.0428  0.0151
17805TIP3   OH274829   5.723   3.803   0.413  0.5158  0.0014  0.0441
17805TIP3    H174830   5.715   3.846   0.327 -0.7697  0.4972  0.3879
17805TIP3    H274831   5.731   3.710   0.392 -2.4683 -0.1888 -0.5965
17806TIP3   OH274832   5.713   3.350  16.284  0.4584 -0.6153  0.4629
17806TIP3    H174833   5.654   3.298  16.230 -1.2315  0.3260  1.3861
17806TIP3    H274834   5.677   3.439  16.281  0.9408 -0.3423  2.2781
17807TIP3   OH274835   2.869   6.639   5.808  0.0654 -0.4442 -0.2706
17807TIP3    H174836   2.782   6.657   5.843 -0.1858 -1.0548 -0.5750
17807TIP3    H274837   2.927   6.696   5.859 -0.0943 -2.3829  2.1662
17808TIP3   OH274838   0.342   2.732   0.679  0.4266 -0.3554 -0.4938
17808TIP3    H174839   0.403   2.741   0.752  0.7228 -0.2212 -0.7564
17808TIP3    H274840   0.337   2.638   0.663 -0.2023 -0.4406  0.1733
17809TIP3   OH274841   3.249   1.088   0.405 -0.1792 -0.2386 -0.1401
17809TIP3    H174842   3.205   1.160   0.450  1.1416 -0.0697  0.9061
17809TIP3    H274843   3.232   1.104   0.312 -1.8878  0.0957  0.2185
17810TIP3   OH274844   6.573   1.228  10.971 -0.4889  0.1666  0.3091
17810TIP3    H174845   6.493   1.207  10.923  0.8295 -2.7415 -0.6842
17810TIP3    H274846   6.640   1.238  10.903  0.9187 -1.8291  1.3481
17811TIP3   OH274847   2.135   2.340  14.607 -0.6802  0.2472  0.4440
17811TIP3    H174848   2.139   2.360  14.514  0.3025 -1.1686  0.1801
17811TIP3    H274849   2.186   2.410  14.649 -1.2194  0.9498 -0.0521
17812TIP3   OH274850   0.323   3.956   6.010  0.7291 -0.2111 -0.1376
17812TIP3    H174851   0.275   3.885   6.051  0.1678  0.1712 -0.1311
17812TIP3    H274852   0.401   3.914   5.972  0.9173 -0.6634  0.7411
17813TIP3   OH274853   3.034   1.385  13.259  0.2038 -0.6637  0.4728
17813TIP3    H174854   3.056   1.454  13.322 -1.8703  1.4681 -1.0734
17813TIP3    H274855   3.091   1.401  13.184 -0.8913 -0.0844 -0.2457
17814TIP3   OH274856   0.902   6.329   5.608  0.3411  0.2638 -0.7449
17814TIP3    H174857   0.966   6.400   5.609 -0.9598  1.4477  0.9685
17814TIP3    H274858   0.829   6.362   5.557 -0.2810  0.1784  0.0772
17815TIP3   OH274859   2.728   3.670   0.353  0.3669 -0.0211  0.0277
17815TIP3    H174860   2.695   3.758   0.372 -0.8758 -0.5325  0.3169
17815TIP3    H274861   2.676   3.641   0.278  1.1393 -0.3098 -0.4049
17816TIP3   OH274862   1.246   0.642   5.550 -0.1073 -0.5895  0.1286
17816TIP3    H174863   1.220   0.726   5.512  0.8150 -0.3684 -0.0253
17816TIP3    H274864   1.313   0.609   5.490  0.0559 -1.0941  0.5900
17817TIP3   OH274865   0.438   1.062   1.464 -0.5131  0.2029 -0.3373
17817TIP3    H174866   0.465   1.017   1.543  1.5202  1.3847 -0.3417
17817TIP3    H274867   0.418   0.992   1.402 -0.8380 -0.6996  0.7733
17818TIP3   OH274868   6.157   4.927   4.715  0.7078 -0.1511  0.0508
17818TIP3    H174869   6.151   4.833   4.699  0.9850 -0.3442  1.0606
17818TIP3    H274870   6.237   4.937   4.767  0.1462  0.5284  0.7923
17819TIP3   OH274871   5.705   1.292   0.609  0.2792 -0.0233  0.2314
17819TIP3    H174872   5.627   1.259   0.565  1.1618 -0.5118 -0.9945
17819TIP3    H274873   5.682   1.292   0.702 -0.4880 -2.0475  0.0670
17820TIP3   OH274874   6.634   6.662   1.351  0.1772  0.1327  0.8595
17820TIP3    H174875   6.709   6.679   1.409  0.6299 -0.4266  0.4381
17820TIP3    H274876   6.673   6.650   1.265 -0.4092 -0.1088  0.6316
17821TIP3   OH274877   2.439   0.316  12.381  0.7665  0.3606 -0.1795
17821TIP3    H174878   2.419   0.245  12.442  0.2480  1.6285  1.1603
17821TIP3    H274879   2.491   0.377  12.433  0.6496  1.2621 -1.1300
17822TIP3   OH274880   1.591   2.168  12.507 -0.4927  0.3271  0.5334
17822TIP3    H174881   1.574   2.075  12.526  1.1030  0.3167  1.9902
17822TIP3    H274882   1.665   2.167  12.447 -0.9158  0.6392  0.0031
17823TIP3   OH274883   5.563   2.832   4.153 -0.7443 -0.2314  0.0778
17823TIP3    H174884   5.635   2.821   4.216 -1.4791  0.0786  0.9843
17823TIP3    H274885   5.507   2.898   4.194 -0.0089  1.7464 -1.9936
17824TIP3   OH274886   3.840   2.745   0.871  0.2670  0.3621  0.4077
17824TIP3    H174887   3.758   2.789   0.847 -0.4031 -0.6109  0.8830
17824TIP3    H274888   3.817   2.691   0.947  0.8331 -1.4904 -0.6955
17825TIP3   OH274889   2.469   2.948  12.633 -0.2164 -0.2205  0.4628
17825TIP3    H174890   2.557   2.965  12.598  0.8932 -1.6321  2.4941
17825TIP3    H274891   2.415   2.933  12.555  1.2694  0.8938 -0.8240
17826TIP3   OH274892   5.920   4.613   3.034  0.1669  0.2071 -0.1917
17826TIP3    H174893   5.865   4.649   2.964  0.5745  0.7542 -0.2301
17826TIP3    H274894   5.919   4.519   3.019  0.6613  0.3612 -1.2460
17827TIP3   OH274895   3.480   4.095  14.890  0.5765  0.3791  0.2471
17827TIP3    H174896   3.430   4.109  14.810  0.7877  1.0937  0.2419
17827TIP3    H274897   3.570   4.117  14.866  0.5971  0.8600  0.7601
17828TIP3   OH274898   2.853   4.240   0.672 -0.8966  0.4054  0.0204
17828TIP3    H174899   2.795   4.210   0.742 -0.4924 -1.6405 -0.4988
17828TIP3    H274900   2.938   4.252   0.716 -1.3492  2.0622  0.4878
17829TIP3   OH274901   1.236   3.392  15.193 -0.1911 -0.4350  0.0516
17829TIP3    H174902   1.275   3.307  15.172 -1.5655 -0.4118 -2.9125
17829TIP3    H274903   1.298   3.457  15.160  0.2940 -0.2865  1.2323
17830TIP3   OH274904   6.346   2.135   3.110 -0.0657 -0.1193  0.3176
17830TIP3    H174905   6.296   2.071   3.060 -0.6909  0.3652  0.3117
17830TIP3    H274906   6.383   2.193   3.044  0.6670 -0.5936  0.3116
17831TIP3   OH274907   5.495   0.508  16.105 -0.1481 -0.2174  0.6802
17831TIP3    H174908   5.445   0.430  16.127  1.0722 -0.4301  2.8239
17831TIP3    H274909   5.545   0.528  16.184 -1.5408  3.6292  0.6841
17832TIP3   OH274910   6.344   6.037  16.586 -0.1399 -0.3408 -0.4303
17832TIP3    H174911   6.405   5.969  16.556 -2.2267 -1.6706 -1.7519
17832TIP3    H274912   6.329   6.017  16.678  0.3620 -0.8260 -0.4521
17833TIP3   OH274913   3.560   5.092  13.282  0.6303  0.1958  0.1396
17833TIP3    H174914   3.523   5.008  13.308 -1.3169  0.1341 -2.5255
17833TIP3    H274915   3.650   5.073  13.257  1.0037 -0.5861  2.0214
17834TIP3   OH274916   5.861   1.300   4.620  0.3881 -1.1101  0.5060
17834TIP3    H174917   5.778   1.329   4.657  1.1405  1.2230  0.4364
17834TIP3    H274918   5.908   1.260   4.693  0.5176  0.5221  1.3359
17835TIP3   OH274919   6.320   2.040   2.495  0.9218  0.3109 -0.4248
17835TIP3    H174920   6.370   2.095   2.435 -0.3817  0.2777 -1.5771
17835TIP3    H274921   6.386   1.993   2.545  2.0422  0.8592 -1.3555
17836TIP3   OH274922   3.552   2.133   4.437 -0.4957 -0.4044 -0.8787
17836TIP3    H174923   3.570   2.164   4.525  1.1988  1.1678 -1.7514
17836TIP3    H274924   3.612   2.058   4.425  0.6703  0.5854 -1.3564
17837TIP3   OH274925   1.227   0.885  16.467 -0.2040  0.0283  0.3082
17837TIP3    H174926   1.173   0.846  16.398  0.0200  0.7128 -0.2647
17837TIP3    H274927   1.166   0.903  16.537 -0.4128 -0.8061  0.3506
17838TIP3   OH274928   4.712   3.850  13.315  0.0234  0.6548 -0.7531
17838TIP3    H174929   4.710   3.931  13.263  0.1778  1.1801  0.0549
17838TIP3    H274930   4.792   3.857  13.367 -0.8348  0.7748  0.5755
17839TIP3   OH274931   0.273   2.493  13.322 -0.4001 -0.2432 -0.1069
17839TIP3    H174932   0.289   2.462  13.233  0.7626 -0.3668  0.1286
17839TIP3    H274933   0.350   2.547  13.342 -0.7536 -0.0484  0.7395
17840TIP3   OH274934   6.106   1.302   5.280 -0.1529  0.6468  0.1537
17840TIP3    H174935   6.017   1.303   5.243 -0.4671  0.1453  0.8799
17840TIP3    H274936   6.164   1.301   5.203 -0.7854  0.2854 -0.3273
17841TIP3   OH274937   0.835   1.917   5.647  0.1907  0.5542 -0.6588
17841TIP3    H174938   0.786   1.953   5.720 -0.2776 -1.0105 -0.1819
17841TIP3    H274939   0.805   1.967   5.571 -0.8799  0.7484 -0.1128
17842TIP3   OH274940   3.600   0.125   1.063 -0.0313 -0.2825 -0.3606
17842TIP3    H174941   3.528   0.186   1.047 -1.0892 -1.0924  1.2028
17842TIP3    H274942   3.658   0.136   0.987 -0.3069  2.4780 -0.2219
17843TIP3   OH274943   0.270   1.655   3.418  0.6569  0.0151  0.0283
17843TIP3    H174944   0.315   1.575   3.445 -0.2673 -0.3738  0.4538
17843TIP3    H274945   0.229   1.633   3.334  1.2997  0.3788 -0.3780
17844TIP3   OH274946   2.211   0.597  11.631 -0.0860  0.2020  0.0361
17844TIP3    H174947   2.257   0.573  11.712  1.3389  1.1207 -0.4818
17844TIP3    H274948   2.213   0.517  11.578  0.3750  0.0583  0.2659
17845TIP3   OH274949   4.140   0.635   1.542  0.0993 -0.3667 -0.4478
17845TIP3    H174950   4.151   0.729   1.555  0.1855 -0.2688 -1.2313
17845TIP3    H274951   4.053   0.616   1.579  0.1812 -0.0224 -0.0773
17846TIP3   OH274952   3.202   6.614  16.059  0.1482  0.0461  0.4164
17846TIP3    H174953   3.115   6.648  16.079 -0.0478 -0.3805  0.2829
17846TIP3    H274954   3.187   6.544  15.996  0.5725 -0.1463  0.5257
17847TIP3   OH274955   5.370   1.945   5.395 -0.4093 -0.9211 -0.1663
17847TIP3    H174956   5.289   1.980   5.357 -0.1856 -1.1935 -0.9006
17847TIP3    H274957   5.363   1.850   5.381 -0.5288 -1.0668  0.8744
17848TIP3   OH274958   6.760   5.380  17.229 -0.7214 -0.4121 -0.1887
17848TIP3    H174959   6.797   5.441  17.165 -2.4155  0.6644 -0.1619
17848TIP3    H274960   6.837   5.341  17.272  0.3862  0.9061 -0.9422
17849TIP3   OH274961   2.913   0.504  14.470 -0.1363 -0.0351  0.4152
17849TIP3    H174962   2.935   0.453  14.548  0.3798 -0.1447  0.2003
17849TIP3    H274963   2.844   0.453  14.427  0.6269 -0.7579  0.0075
17850TIP3   OH274964   2.792   0.768  14.794  0.4230  0.3948 -0.3834
17850TIP3    H174965   2.853   0.700  14.821  0.0894 -0.5975 -2.0578
17850TIP3    H274966   2.722   0.765  14.860  0.2553 -1.0986 -0.6234
17851TIP3   OH274967   4.665   0.638  11.674 -0.4994  0.2557  0.0964
17851TIP3    H174968   4.685   0.667  11.584 -0.5618  4.0434  1.1908
17851TIP3    H274969   4.582   0.682  11.694 -1.6159 -2.3261  1.2707
17852TIP3   OH274970   6.310   3.672   2.180 -0.4217 -0.0779  0.3347
17852TIP3    H174971   6.241   3.610   2.155 -1.1411 -0.2351  2.6002
17852TIP3    H274972   6.369   3.673   2.105 -1.1958 -2.3672 -0.3535
17853TIP3   OH274973   6.384   0.143  17.137 -0.0560  0.2164  0.3563
17853TIP3    H174974   6.470   0.164  17.174  0.0099  0.9741 -0.2319
17853TIP3    H274975   6.380   0.047  17.141  1.2533  0.1136 -0.5896
17854TIP3   OH274976   0.636   3.021   2.781  0.0649  0.2134 -0.5131
17854TIP3    H174977   0.575   2.952   2.756  0.1955 -0.4083  0.8183
17854TIP3    H274978   0.704   3.018   2.714  0.2890 -1.2373 -0.2484
17855TIP3   OH274979   3.511   1.737  17.119  0.2383 -0.3026  0.3201
17855TIP3    H174980   3.553   1.675  17.178  0.9685 -0.8124 -0.7124
17855TIP3    H274981   3.580   1.761  17.057 -0.8872 -0.8676 -1.1922
17856TIP3   OH274982   1.160   3.299  14.134  0.3460  0.1959 -0.1222
17856TIP3    H174983   1.118   3.378  14.101  0.9043  0.9405  0.9169
17856TIP3    H274984   1.164   3.312  14.229  0.5597 -1.0231  0.0446
17857TIP3   OH274985   5.749   4.667   2.816  0.3565  0.0573 -0.3356
17857TIP3    H174986   5.766   4.723   2.740 -0.9081  0.9504  0.0268
17857TIP3    H274987   5.744   4.579   2.780  0.2201  0.4261 -1.2304
17858TIP3   OH274988   3.916   2.605   4.434 -0.0808 -0.1116  0.1432
17858TIP3    H174989   3.992   2.564   4.476  0.8779  1.4652 -0.0076
17858TIP3    H274990   3.878   2.536   4.380 -0.4233 -1.7325  2.3784
17859TIP3   OH274991   0.136   6.750   2.824  0.7992 -0.2207 -0.0153
17859TIP3    H174992   0.051   6.780   2.858  0.9677  0.5719 -0.2708
17859TIP3    H274993   0.157   6.813   2.755  1.9033 -0.0279  0.4840
17860TIP3   OH274994   2.188   1.723  13.507 -0.1117  0.2211 -0.6198
17860TIP3    H174995   2.272   1.677  13.504 -0.7670 -0.9683 -1.2493
17860TIP3    H274996   2.144   1.688  13.585 -0.6721 -0.3304 -1.1790
17861TIP3   OH274997   6.478   4.711  15.557 -0.1455 -0.5354  0.2137
17861TIP3    H174998   6.476   4.618  15.532  2.5616 -0.5817  0.0085
17861TIP3    H274999   6.533   4.714  15.635  0.2369  0.9697 -0.1025
17862TIP3   OH275000   4.560   1.968   1.338 -0.0515 -0.1468 -0.1116
17862TIP3    H175001   4.491   1.955   1.273 -0.1196  0.1177 -0.0920
17862TIP3    H275002   4.539   2.051   1.380 -0.2253 -0.5110  0.5273
17863TIP3   OH275003   6.594   5.871  11.939  0.1853  0.3439  0.5454
17863TIP3    H175004   6.650   5.888  12.015  1.3882  0.3075 -0.3152
17863TIP3    H275005   6.613   5.781  11.915 -1.7747 -0.3530  1.4704
17864TIP3   OH275006   2.930   6.462  12.186 -0.2378  0.1344 -0.2053
17864TIP3    H175007   2.986   6.460  12.108 -0.5480 -3.3310 -0.3850
17864TIP3    H275008   2.841   6.464  12.152 -0.4156 -2.9127  0.0210
17865TIP3   OH275009   4.924   0.833  11.268  0.0795 -0.0209 -0.1105
17865TIP3    H175010   4.902   0.743  11.243 -0.5343  0.2026 -0.4002
17865TIP3    H275011   4.851   0.885  11.234  1.4518  0.8369 -1.8000
17866TIP3   OH275012   1.026   4.781   0.143 -0.9532  1.0693  0.7005
17866TIP3    H175013   1.050   4.784   0.236 -0.3354  0.1109  0.5875
17866TIP3    H275014   1.108   4.756   0.099 -1.2942  1.3264 -0.0828
17867TIP3   OH275015   6.126   0.160  12.241 -0.2171  0.1669  0.5837
17867TIP3    H175016   6.171   0.081  12.212  0.4499  0.2533  1.3640
17867TIP3    H275017   6.034   0.136  12.246 -0.2270 -0.1026 -0.7376
17868TIP3   OH275018   5.837   6.451   5.370 -0.2984  0.2776 -0.7322
17868TIP3    H175019   5.844   6.498   5.453  2.4738  0.3781 -0.9798
17868TIP3    H275020   5.923   6.462   5.329 -1.0841 -1.1977 -2.8420
17869TIP3   OH275021   3.237   6.313  15.113 -0.8444  1.1719 -0.5303
17869TIP3    H175022   3.329   6.312  15.089 -0.7921 -0.4311 -0.2905
17869TIP3    H275023   3.192   6.277  15.036 -1.1027  0.3379  0.0069
17870TIP3   OH275024   3.367   3.361   1.111  0.1707  0.1096  0.0003
17870TIP3    H175025   3.322   3.282   1.082  1.2092 -0.8593  0.9631
17870TIP3    H275026   3.297   3.417   1.144 -0.3895 -1.2817  1.2466
17871TIP3   OH275027   3.010   1.121  15.443 -0.4548 -0.1921  0.3722
17871TIP3    H175028   3.025   1.203  15.489 -0.1223 -0.0971  0.0960
17871TIP3    H275029   2.984   1.147  15.355 -0.5952 -0.3799  0.3567
17872TIP3   OH275030   4.095   1.329   6.876  0.0267 -0.1700 -0.7546
17872TIP3    H175031   4.027   1.349   6.941 -0.6455  1.3475 -1.8938
17872TIP3    H275032   4.067   1.376   6.797  1.7185 -0.6194 -1.6394
17873TIP3   OH275033   6.434   5.043   1.471  0.0149 -0.0513  0.1231
17873TIP3    H175034   6.375   5.000   1.410 -0.0152 -0.2285  0.2779
17873TIP3    H275035   6.381   5.059   1.549 -0.3983  1.6367 -0.4866
17874TIP3   OH275036   5.060   5.456  16.882  0.3943 -0.2664  0.1162
17874TIP3    H175037   5.063   5.375  16.932 -2.8363 -0.3675  0.2412
17874TIP3    H275038   5.055   5.428  16.791  1.6675 -0.1425 -0.0042
17875TIP3   OH275039   2.359   1.432   0.997 -0.3699  0.0265 -0.0751
17875TIP3    H175040   2.298   1.482   1.052 -0.9313 -0.2178 -0.4718
17875TIP3    H275041   2.426   1.496   0.972 -1.0113  0.5578 -0.4747
17876TIP3   OH275042   6.276   5.575  12.990 -0.4215  0.7951 -0.1398
17876TIP3    H175043   6.223   5.648  12.959 -1.8393 -0.3610 -0.5153
17876TIP3    H275044   6.212   5.508  13.014  0.8494 -0.3317  0.1513
17877TIP3   OH275045   5.326   0.971  11.769  0.2322 -0.6792 -0.5755
17877TIP3    H175046   5.358   1.062  11.767  1.2333 -1.0214 -0.6067
17877TIP3    H275047   5.239   0.977  11.809  0.9217  0.1101  0.8682
17878TIP3   OH275048   5.504   5.201   5.885  0.1990  0.0831  0.3589
17878TIP3    H175049   5.552   5.255   5.948 -0.3054 -0.4840  1.2389
17878TIP3    H275050   5.570   5.142   5.850  0.1329 -0.8140  1.6928
17879TIP3   OH275051   0.966   3.278  15.328  0.2179 -0.4229  0.2516
17879TIP3    H175052   0.938   3.354  15.380  1.7160 -1.1835  2.2290
17879TIP3    H275053   1.028   3.314  15.264 -0.9778  0.3849 -0.4741
17880TIP3   OH275054   4.115   5.497   1.708  0.0431  0.2022  0.0374
17880TIP3    H175055   4.200   5.540   1.694 -0.4513  0.4752 -2.2983
17880TIP3    H275056   4.050   5.566   1.690 -0.7073  0.1839  2.4448
17881TIP3   OH275057   5.878   2.296  11.553  1.3236  0.1922  0.3266
17881TIP3    H175058   5.941   2.367  11.563  1.0303  0.4805  0.1345
17881TIP3    H275059   5.850   2.301  11.462  0.7894  0.2583  0.4973
17882TIP3   OH275060   4.412   5.322  15.603 -0.5937  0.3662  0.0890
17882TIP3    H175061   4.429   5.386  15.534 -1.2879 -0.5474 -0.9508
17882TIP3    H275062   4.427   5.370  15.684  0.7203  1.3271 -0.6970
17883TIP3   OH275063   4.805   1.644   5.842 -0.5556 -0.4850  0.6353
17883TIP3    H175064   4.736   1.660   5.906 -1.7610 -2.6459 -0.0772
17883TIP3    H275065   4.844   1.561   5.868  0.4166 -0.2968 -0.1547
17884TIP3   OH275066   1.447   4.416  14.200  0.6630  0.0603  1.1816
17884TIP3    H175067   1.387   4.456  14.137  0.9869 -0.1144  0.7580
17884TIP3    H275068   1.487   4.490  14.246 -1.1602  0.1469  2.6862
17885TIP3   OH275069   0.651   2.100  11.580  0.4336  0.0585 -0.0880
17885TIP3    H175070   0.579   2.099  11.518 -0.7158  0.3502  1.2167
17885TIP3    H275071   0.728   2.121  11.527 -0.7421  1.7008 -1.1862
17886TIP3   OH275072   5.987   1.823  13.427 -0.7005  0.0336 -0.4248
17886TIP3    H175073   6.017   1.732  13.422 -1.7688 -0.2814 -1.3537
17886TIP3    H275074   6.067   1.874  13.437 -0.1681 -1.0914  1.2355
17887TIP3   OH275075   3.966   6.771  13.272 -0.3142  0.1030 -0.7519
17887TIP3    H175076   3.920   6.855  13.277 -0.8268 -0.0651 -2.2311
17887TIP3    H275077   4.055   6.791  13.300 -0.5704  1.0346 -0.5643
17888TIP3   OH275078   3.834   3.018   2.532 -0.1431 -0.2691  0.1894
17888TIP3    H175079   3.879   2.966   2.466 -1.2494  0.6300 -1.2984
17888TIP3    H275080   3.741   3.009   2.511 -0.6602 -1.4390  2.7322
17889TIP3   OH275081   0.988   0.619   1.503  0.5354 -0.4005 -0.0606
17889TIP3    H175082   0.988   0.605   1.598  1.9220 -0.2349 -0.0262
17889TIP3    H275083   1.032   0.703   1.491 -0.6530  0.1336 -0.7940
17890TIP3   OH275084   0.175   4.857  16.651 -0.4164  0.1641 -0.7449
17890TIP3    H175085   0.156   4.924  16.716 -0.1588  0.3284 -0.8376
17890TIP3    H275086   0.222   4.789  16.700 -0.0117  0.3963 -0.8032
17891TIP3   OH275087   6.622   1.608   6.172  0.0111  0.2087 -0.2312
17891TIP3    H175088   6.581   1.529   6.207 -0.2703  0.8283  0.8474
17891TIP3    H275089   6.699   1.622   6.226  0.2043  0.5337 -0.5855
17892TIP3   OH275090   2.124   1.507  13.334  0.2693  0.0540 -0.1293
17892TIP3    H175091   2.078   1.500  13.417 -2.8737  2.4887 -1.5732
17892TIP3    H275092   2.160   1.595  13.333 -0.8914  0.5462 -1.8680
17893TIP3   OH275093   0.337   2.487  11.510 -0.1686 -0.4358 -0.2759
17893TIP3    H175094   0.332   2.473  11.415  0.9154  0.2658 -0.4505
17893TIP3    H275095   0.294   2.411  11.548 -2.8955  0.5112 -1.3743
17894TIP3   OH275096   4.725   3.828   2.884  0.8271 -0.2776 -0.1245
17894TIP3    H175097   4.748   3.913   2.921  0.2620 -0.5804  0.9616
17894TIP3    H275098   4.797   3.770   2.909 -0.0888 -0.7497  1.5306
17895TIP3   OH275099   6.027   2.688  16.940 -0.1188  0.5838 -0.0534
17895TIP3    H175100   6.088   2.701  16.867  1.2215 -0.1181  0.9339
17895TIP3    H275101   5.965   2.761  16.932 -0.0391  0.4634 -1.9413
17896TIP3   OH275102   5.628   2.933  11.088  0.0369 -0.2399  0.0787
17896TIP3    H175103   5.585   2.883  11.018 -1.2079 -1.2459  1.5338
17896TIP3    H275104   5.556   2.970  11.139  0.9483  1.5795  0.0888
17897TIP3   OH275105   0.267   5.310  14.135  0.0133  0.1289 -0.3434
17897TIP3    H175106   0.249   5.289  14.043 -0.1232  0.5741 -0.4182
17897TIP3    H275107   0.352   5.354  14.133 -0.8363  1.7695 -0.4646
17898TIP3   OH275108   4.782   2.713  12.744  0.2799 -0.0576  0.5473
17898TIP3    H175109   4.778   2.757  12.828 -1.5448  1.2430 -0.2044
17898TIP3    H275110   4.701   2.737  12.700  0.4312 -2.0865 -0.9156
17899TIP3   OH275111   1.396   6.551  15.647  0.3255 -0.4629  0.1697
17899TIP3    H175112   1.474   6.604  15.631  0.9169 -0.7955  1.8301
17899TIP3    H275113   1.361   6.533  15.560  0.4874  2.0760 -0.4452
17900TIP3   OH275114   1.509   5.019   0.560 -0.5803 -0.2464 -0.4075
17900TIP3    H175115   1.604   5.009   0.567 -0.3859 -0.5477 -2.8478
17900TIP3    H275116   1.493   5.112   0.580  0.2421 -0.1604 -0.1295
17901TIP3   OH275117   5.655   5.377  11.840 -0.0286  0.1581 -0.0823
17901TIP3    H175118   5.602   5.373  11.920  1.8976  1.0277  1.2709
17901TIP3    H275119   5.719   5.445  11.858  1.3434 -0.6509 -1.8250
17902TIP3   OH275120   6.715   4.105   1.203  0.7818  0.1367  0.1657
17902TIP3    H175121   6.633   4.058   1.189  1.6508 -1.9926  1.9274
17902TIP3    H275122   6.777   4.062   1.144  0.9365  0.9207 -0.2472
17903TIP3   OH275123   1.925   0.398  13.064  0.5702 -0.1017 -0.1345
17903TIP3    H175124   1.940   0.400  12.969 -2.9041 -0.5821 -0.7359
17903TIP3    H275125   1.872   0.475  13.082 -0.6257 -1.1916  1.0863
17904TIP3   OH275126   6.481   6.411  12.907 -0.6549 -0.0137 -0.2860
17904TIP3    H175127   6.563   6.458  12.923 -0.0428 -0.6039 -1.5750
17904TIP3    H275128   6.462   6.367  12.990 -1.1538  2.3289  0.8721
17905TIP3   OH275129   4.479   1.721  13.788 -0.0171  0.5956 -0.0758
17905TIP3    H175130   4.413   1.774  13.743 -1.8700 -1.2249  0.4085
17905TIP3    H275131   4.451   1.722  13.880 -0.0774 -1.1591 -0.0572
17906TIP3   OH275132   0.340   3.959   2.161 -0.3388  0.1924 -0.4953
17906TIP3    H175133   0.385   4.032   2.117 -0.4850  1.5240  1.5096
17906TIP3    H275134   0.318   3.899   2.090  1.4198  1.2261 -1.9634
17907TIP3   OH275135   3.806   0.840   3.735  0.1868  0.5086 -0.4974
17907TIP3    H175136   3.825   0.871   3.824  1.5916 -2.1253  0.1675
17907TIP3    H275137   3.836   0.912   3.678 -0.3697  2.0548  1.1205
17908TIP3   OH275138   6.661   4.936  10.720  0.9017 -0.5068  0.3368
17908TIP3    H175139   6.581   4.936  10.771  1.2636  1.1249  0.9473
17908TIP3    H275140   6.668   4.847  10.685 -1.1613 -0.6598  0.2712
17909TIP3   OH275141   4.839   5.048   4.263  0.4683  0.0407  0.2943
17909TIP3    H175142   4.796   5.134   4.272 -0.5640 -0.5796  1.4452
17909TIP3    H275143   4.818   5.020   4.174 -1.5655 -0.2680  0.8560
17910TIP3   OH275144   6.246   5.512  10.867 -0.5720 -0.0559 -0.9396
17910TIP3    H175145   6.221   5.600  10.892  0.3384 -0.2402  0.6900
17910TIP3    H275146   6.220   5.504  10.775  0.4928  2.3259 -1.4570
17911TIP3   OH275147   6.570   3.411  15.905 -0.2225  0.1960 -0.0941
17911TIP3    H175148   6.599   3.502  15.902  0.3262  0.0821  1.2393
17911TIP3    H275149   6.494   3.412  15.963  1.0412 -0.4916  1.6336
17912TIP3   OH275150   6.115   6.578   4.468 -0.1736  0.5608  0.3497
17912TIP3    H175151   6.107   6.496   4.420  1.3040  0.3424  0.4311
17912TIP3    H275152   6.035   6.627   4.448  0.6086  0.6769 -2.7338
17913TIP3   OH275153   0.189   3.789  15.678 -0.4249  0.2944 -0.1328
17913TIP3    H175154   0.254   3.720  15.685 -0.6877  0.0230 -0.3793
17913TIP3    H275155   0.120   3.753  15.622 -0.3475  0.9219 -0.6434
17914TIP3   OH275156   0.711   0.151   4.441 -0.2216  0.2636 -0.7327
17914TIP3    H175157   0.789   0.116   4.485 -1.4019  0.1919  1.3796
17914TIP3    H275158   0.735   0.240   4.417  0.3134  0.4439  0.4381
17915TIP3   OH275159   2.043   2.159   5.216 -0.0353 -0.6187  0.2979
17915TIP3    H175160   2.091   2.211   5.281 -1.4587 -0.1446  0.9766
17915TIP3    H275161   2.006   2.086   5.266  0.7820 -1.5460 -0.4072
17916TIP3   OH275162   5.522   6.458   4.273 -0.2228  0.2173  0.3504
17916TIP3    H175163   5.484   6.538   4.236  1.1853  0.1534 -1.2808
17916TIP3    H275164   5.577   6.490   4.345  0.4399  0.7494 -0.3764
17917TIP3   OH275165   4.435   2.014  13.732 -0.2473 -0.5910  0.7282
17917TIP3    H175166   4.424   2.046  13.643 -1.9662  0.9248  1.4361
17917TIP3    H275167   4.515   1.962  13.730  0.6668  0.8258 -1.3249
17918TIP3   OH275168   0.178   4.663   5.212  0.3465 -0.2798 -0.8550
17918TIP3    H175169   0.148   4.694   5.297 -0.8126 -0.8220 -1.0607
17918TIP3    H275170   0.098   4.649   5.162  0.9935 -0.6477 -1.7972
17919TIP3   OH275171   0.624   5.368  11.105  0.1972  0.6825 -0.2009
17919TIP3    H175172   0.651   5.289  11.058  0.3995  1.3628 -1.2519
17919TIP3    H275173   0.636   5.439  11.042  0.1636  1.5784  0.7749
17920TIP3   OH275174   5.738   2.197   0.876  0.1181  0.1033  0.3922
17920TIP3    H175175   5.829   2.197   0.844 -0.0953 -0.7174 -0.2233
17920TIP3    H275176   5.739   2.257   0.950  1.3337 -0.4827  0.8649
17921TIP3   OH275177   5.461   3.303   4.999  0.0516 -0.5535  0.8090
17921TIP3    H175178   5.381   3.267   5.039 -0.0038 -1.2597  0.0775
17921TIP3    H275179   5.526   3.297   5.069  0.0333 -2.0736  0.7223
17922TIP3   OH275180   4.627   4.098  10.837  0.1939 -0.0959  0.0018
17922TIP3    H175181   4.718   4.128  10.835 -0.2181  1.3041  1.2362
17922TIP3    H275182   4.575   4.178  10.830 -0.9466 -0.9044 -0.8478
17923TIP3   OH275183   3.775   5.840  13.450 -0.5953  0.7743  0.1665
17923TIP3    H175184   3.812   5.921  13.416 -0.0717  1.8266  3.1857
17923TIP3    H275185   3.745   5.861  13.538 -1.8345 -1.9166  0.4408
17924TIP3   OH275186   5.646   4.694  14.021 -0.5792  0.1374  0.0635
17924TIP3    H175187   5.581   4.639  14.064 -0.0179  0.4572  1.3561
17924TIP3    H275188   5.697   4.633  13.967 -1.1558 -0.3044  0.0124
17925TIP3   OH275189   3.952   5.033   4.742  0.3166 -0.9072  0.1844
17925TIP3    H175190   3.989   5.096   4.803 -0.2373 -0.5983  0.2097
17925TIP3    H275191   3.959   4.949   4.786 -0.6873 -0.5964  0.9568
17926TIP3   OH275192   5.373   2.130   2.604 -0.3972  0.3807 -0.4755
17926TIP3    H175193   5.344   2.218   2.628 -1.4775 -0.0194 -0.2915
17926TIP3    H275194   5.292   2.079   2.594  0.2196 -0.6331 -0.4267
17927TIP3   OH275195   1.097   5.462   4.535 -0.3560 -0.5791 -0.8646
17927TIP3    H175196   1.030   5.423   4.591  0.4014  0.5950  0.9208
17927TIP3    H275197   1.171   5.402   4.541 -0.8444 -1.2960 -1.9328
17928TIP3   OH275198   6.653   4.808   4.095 -0.0574  1.0074  0.7900
17928TIP3    H175199   6.722   4.742   4.095 -0.5775  0.4300 -1.4696
17928TIP3    H275200   6.678   4.869   4.165  2.2454  0.3235  0.6020
17929TIP3   OH275201   1.675   5.720  11.597 -0.0987  0.6699  0.1510
17929TIP3    H175202   1.660   5.787  11.664 -1.8834  0.6597 -0.2173
17929TIP3    H275203   1.657   5.765  11.514  0.2002  0.1558 -0.1946
17930TIP3   OH275204   3.925   5.613   5.260  0.3067 -0.7205  0.4002
17930TIP3    H175205   3.927   5.704   5.291 -1.8004 -0.1033 -1.1470
17930TIP3    H275206   3.888   5.619   5.172  1.1365 -2.9864 -0.1307
17931TIP3   OH275207   5.693   1.059   4.284 -0.3459 -0.5714  0.1459
17931TIP3    H175208   5.773   1.111   4.276 -0.6540 -0.3818 -1.8562
17931TIP3    H275209   5.650   1.067   4.199 -2.6838 -0.3755  1.2930
17932TIP3   OH275210   5.498   2.452  14.015 -0.1741  0.0959  0.7807
17932TIP3    H175211   5.572   2.472  13.957 -1.6495 -2.8487 -2.2578
17932TIP3    H275212   5.521   2.369  14.056 -0.9828  0.1159  1.2802
17933TIP3   OH275213   2.953   3.652   5.865 -0.5943  0.1518  0.5052
17933TIP3    H175214   2.928   3.686   5.951  0.6658 -0.3768  1.0955
17933TIP3    H275215   2.912   3.712   5.803  0.3669  1.9063  1.5134
17934TIP3   OH275216   2.979   4.303  16.150 -0.3736  0.6372 -0.0605
17934TIP3    H175217   2.883   4.301  16.140 -0.3173  0.6843 -0.6562
17934TIP3    H275218   3.003   4.391  16.124  0.0978 -0.1809 -2.5820
17935TIP3   OH275219   5.554   2.733  13.535  0.6933 -0.3148  0.0545
17935TIP3    H175220   5.524   2.822  13.554  0.4541 -0.8334  2.2701
17935TIP3    H275221   5.595   2.704  13.616 -1.4053 -3.0944  0.2141
17936TIP3   OH275222   1.091   3.241  12.601  0.3262  0.4092 -0.0909
17936TIP3    H175223   1.118   3.159  12.560  2.6457  1.4134 -0.6611
17936TIP3    H275224   1.094   3.305  12.530  0.7624  1.4397  0.8399
17937TIP3   OH275225   2.022   2.666  11.921  0.1053  0.5331  0.2490
17937TIP3    H175226   2.082   2.701  11.987  1.1414 -1.5343  0.4398
17937TIP3    H275227   2.072   2.668  11.839 -0.4092  1.0501 -0.0542
17938TIP3   OH275228   0.419   4.533   5.161  0.8438 -0.4252  0.5968
17938TIP3    H175229   0.380   4.468   5.102  2.0945  1.2144 -2.1479
17938TIP3    H275230   0.345   4.588   5.187  0.6645  0.4692 -1.6575
17939TIP3   OH275231   1.809   0.295   4.127  0.2992  0.0792 -0.3554
17939TIP3    H175232   1.826   0.268   4.036 -3.1982 -2.9367 -0.2153
17939TIP3    H275233   1.725   0.255   4.149  0.3968  1.8960  3.8052
17940TIP3   OH275234   4.026   4.140  16.613 -0.3612  0.6347 -0.3371
17940TIP3    H175235   3.939   4.139  16.653 -0.8082 -0.5731 -1.2971
17940TIP3    H275236   4.012   4.179  16.527  0.0873  0.5756 -0.4367
17941TIP3   OH275237   2.138   0.882  17.114  0.1704 -0.1480 -0.5594
17941TIP3    H175238   2.045   0.880  17.091  0.3888 -1.5482 -1.3375
17941TIP3    H275239   2.152   0.970  17.148 -1.0358  0.6455 -2.0905
17942TIP3   OH275240   1.295   3.455  15.674  0.3965  0.2975  0.2020
17942TIP3    H175241   1.333   3.539  15.702  1.2784 -0.8558  2.6272
17942TIP3    H275242   1.364   3.391  15.690 -1.3495 -1.3442  1.4371
17943TIP3   OH275243   0.377   2.136   5.133  0.1430 -0.0780  0.2541
17943TIP3    H175244   0.458   2.163   5.089 -0.5388  1.9714  0.1657
17943TIP3    H275245   0.395   2.048   5.166  1.4626 -0.7656 -2.1480
17944TIP3   OH275246   5.619   3.534   4.417 -0.1263  0.6653 -0.2249
17944TIP3    H175247   5.632   3.580   4.334  2.4713 -0.8090 -0.7343
17944TIP3    H275248   5.676   3.579   4.479 -0.1451  0.2244  0.1182
17945TIP3   OH275249   2.968   2.587   1.376 -0.1758 -0.1574 -0.2031
17945TIP3    H175250   2.999   2.511   1.424 -0.2782  0.4253  0.7987
17945TIP3    H275251   3.025   2.659   1.404  0.5440 -0.0449 -1.8608
17946TIP3   OH275252   4.388   0.312  11.115  0.4684  0.5939 -0.0382
17946TIP3    H175253   4.479   0.304  11.145 -0.1685 -2.1682  1.3120
17946TIP3    H275254   4.377   0.239  11.055 -0.7533  1.2064 -0.5716
17947TIP3   OH275255   4.593   0.555   3.039  0.2869  0.3456  0.2893
17947TIP3    H175256   4.605   0.606   3.119  1.0914  1.5873 -0.6119
17947TIP3    H275257   4.649   0.478   3.051 -1.1370 -0.4884  1.7604
17948TIP3   OH275258   0.454   0.368   3.317 -0.1702 -0.2256 -0.0599
17948TIP3    H175259   0.464   0.408   3.230  0.2863  0.4142  0.2858
17948TIP3    H275260   0.537   0.386   3.361  0.2433 -2.0166 -0.0907
17949TIP3   OH275261   1.602   3.194   3.333 -0.2508  0.4308  0.2421
17949TIP3    H175262   1.609   3.106   3.299  0.5680  0.8723 -0.7515
17949TIP3    H275263   1.676   3.203   3.394 -0.7107  0.2223  0.8402
17950TIP3   OH275264   3.113   4.085  16.053  0.3585  0.3612 -0.1340
17950TIP3    H175265   3.057   4.159  16.077  1.1830  1.2384 -0.8421
17950TIP3    H275266   3.184   4.087  16.117 -0.0036 -0.2672  0.2894
17951TIP3   OH275267   4.282   6.386   0.588 -0.1541  0.3201  0.4429
17951TIP3    H175268   4.228   6.307   0.579  0.5532 -0.0706 -0.4493
17951TIP3    H275269   4.358   6.369   0.533  0.9474  0.8141  1.8064
17952TIP3   OH275270   2.412   6.519  13.119 -0.1299  0.0350 -0.1691
17952TIP3    H175271   2.405   6.461  13.194  1.9753 -0.9046 -0.6769
17952TIP3    H275272   2.492   6.492  13.074  0.1251  2.3692 -1.2254
17953TIP3   OH275273   2.345   0.558  15.888 -0.5352 -0.1040  0.2240
17953TIP3    H175274   2.374   0.507  15.964  1.2150 -1.2635 -1.1647
17953TIP3    H275275   2.399   0.637  15.890  0.6203 -0.8544 -0.6569
17954TIP3   OH275276   6.524   0.619  12.417 -0.8516  0.1397  0.2030
17954TIP3    H175277   6.573   0.680  12.363 -2.9115  0.3546 -1.5095
17954TIP3    H275278   6.521   0.659  12.503 -0.1697  1.3088 -0.3107
17955TIP3   OH275279   3.089   1.278   2.869 -0.0118 -0.3681 -0.2684
17955TIP3    H175280   3.124   1.275   2.780 -0.4930  0.4404 -0.4828
17955TIP3    H275281   3.166   1.273   2.925  0.3005 -0.7794 -0.7289
17956TIP3   OH275282   2.911   0.016  12.935  0.0993  0.2621 -0.0564
17956TIP3    H175283   2.976   0.070  12.981  1.0871  0.0625 -1.1707
17956TIP3    H275284   2.883   0.071  12.861 -1.7530  0.7347  0.9853
17957TIP3   OH275285   0.657   1.583  12.307  0.3099  0.1084  0.3723
17957TIP3    H175286   0.654   1.518  12.237 -0.9278  0.1063  0.4308
17957TIP3    H275287   0.650   1.532  12.388  1.5102  0.1326  0.5079
17958TIP3   OH275288   0.757   0.244   3.675 -0.1671 -0.0962 -0.1544
17958TIP3    H175289   0.786   0.153   3.683 -0.4281 -0.3861 -2.4035
17958TIP3    H275290   0.838   0.295   3.675  0.1603 -0.5937 -2.2767
17959TIP3   OH275291   5.082   3.307  15.217 -0.1397 -0.2897 -0.3697
17959TIP3    H175292   5.011   3.244  15.204  0.5419 -1.2229  0.2899
17959TIP3    H275293   5.054   3.359  15.293 -0.3603 -0.3190 -0.4321
17960TIP3   OH275294   3.877   3.270   1.778  0.0739  0.5627 -0.3839
17960TIP3    H175295   3.923   3.298   1.858 -4.0453  0.0455  2.3280
17960TIP3    H275296   3.843   3.183   1.800  0.1622 -0.2535 -3.3362
17961TIP3   OH275297   4.331   4.483  16.955  0.3688  0.1920  0.1799
17961TIP3    H175298   4.274   4.478  16.878  1.4966 -0.6643 -0.6152
17961TIP3    H275299   4.374   4.568  16.948  1.4241 -0.4080 -0.8436
17962TIP3   OH275300   3.470   4.864   3.136  0.2777  0.2380 -0.5403
17962TIP3    H175301   3.506   4.937   3.185 -1.4442  0.0884  1.0353
17962TIP3    H275302   3.406   4.904   3.077  0.6271  0.1719 -0.9687
17963TIP3   OH275303   0.822   4.481   5.792  0.0356  0.2443 -0.2140
17963TIP3    H175304   0.868   4.563   5.812  1.8995 -0.9371  0.5177
17963TIP3    H275305   0.870   4.444   5.717  0.8162 -1.3911  1.0482
17964TIP3   OH275306   2.704   2.487   0.521 -0.1476 -0.6813 -0.6780
17964TIP3    H175307   2.730   2.471   0.430 -1.2148  0.9433 -1.2923
17964TIP3    H275308   2.650   2.411   0.544  1.3834 -1.8552 -0.8741
17965TIP3   OH275309   6.382   0.666  14.120  0.1510  0.6361 -0.5199
17965TIP3    H175310   6.462   0.698  14.079 -0.6406  0.0948 -2.5618
17965TIP3    H275311   6.348   0.742  14.169  0.6092  1.5973 -1.6659
17966TIP3   OH275312   4.358   4.640   4.072 -0.5009  0.7124 -0.1086
17966TIP3    H175313   4.403   4.724   4.078 -2.3260  1.8681 -2.0411
17966TIP3    H275314   4.368   4.614   3.981  1.6461 -2.1528  0.8349
17967TIP3   OH275315   5.735   5.919  13.670 -0.1035 -0.1510  0.0867
17967TIP3    H175316   5.809   5.892  13.615  0.0660 -1.1801  0.8112
17967TIP3    H275317   5.757   6.008  13.698  0.5790 -0.2313 -0.1889
17968TIP3   OH275318   0.508   2.032   0.517 -0.0707  0.0927 -0.0907
17968TIP3    H175319   0.592   2.023   0.561 -0.7960 -0.8451  1.1292
17968TIP3    H275320   0.478   2.120   0.538  0.7424  0.5359 -0.7810
17969TIP3   OH275321   2.641   3.847  17.202 -0.6448  0.7325 -0.7233
17969TIP3    H175322   2.657   3.936  17.170  0.7330  1.2117  1.1855
17969TIP3    H275323   2.553   3.849  17.238 -0.0813  1.7574  0.6443
17970TIP3   OH275324   4.905   0.836   5.250 -0.1197  0.1457 -0.5067
17970TIP3    H175325   4.919   0.924   5.286 -1.0770 -0.2222  0.8185
17970TIP3    H275326   4.846   0.850   5.176 -0.1721  0.6344 -0.3769
17971TIP3   OH275327   5.115   0.636  14.188 -0.4497  1.2786 -0.3359
17971TIP3    H175328   5.066   0.701  14.239  0.3275  2.1618 -0.7089
17971TIP3    H275329   5.066   0.629  14.106  0.0018  2.1308 -0.6921
17972TIP3   OH275330   1.811   4.830   0.693  0.5504  0.2555  0.0370
17972TIP3    H175331   1.811   4.867   0.605 -0.3652 -0.0245 -0.0825
17972TIP3    H275332   1.856   4.746   0.683  0.0741  0.0324 -0.2439
17973TIP3   OH275333   6.026   0.258  12.498  0.0791 -0.0175  0.1955
17973TIP3    H175334   6.117   0.239  12.520  0.8447  2.7435 -0.3897
17973TIP3    H275335   6.017   0.230  12.407  0.2508 -0.5920  0.3538
17974TIP3   OH275336   5.387   6.698   2.065 -0.0990  0.0380 -0.3959
17974TIP3    H175337   5.322   6.711   2.134  1.1460  2.7039  0.3633
17974TIP3    H275338   5.362   6.760   1.997  1.5125  0.9537 -0.1750
17975TIP3   OH275339   4.286   2.758  13.352 -0.8989  0.0410 -0.5486
17975TIP3    H175340   4.354   2.819  13.324 -2.2682  0.5750 -2.8385
17975TIP3    H275341   4.334   2.684  13.391  0.8672  1.3110 -0.2639
17976TIP3   OH275342   0.440   4.483   0.192  0.2590 -0.0619  0.1858
17976TIP3    H175343   0.493   4.453   0.265  1.2599 -0.1413 -0.5689
17976TIP3    H275344   0.482   4.564   0.162 -0.0563 -0.1058 -0.4016
17977TIP3   OH275345   0.798   6.410   1.346 -0.1724  0.2318 -0.5789
17977TIP3    H175346   0.801   6.370   1.433  1.3196 -0.4591 -0.9322
17977TIP3    H275347   0.773   6.339   1.288  0.2281  0.3504 -0.9001
17978TIP3   OH275348   0.021   5.509   4.706  0.2490 -0.1093 -0.1941
17978TIP3    H175349   0.097   5.464   4.744 -0.0509 -0.3654  0.1020
17978TIP3    H275350  -0.045   5.508   4.775  0.2660  0.8653 -0.1619
17979TIP3   OH275351   6.623   6.172  14.784 -0.2320  0.0488 -0.0544
17979TIP3    H175352   6.572   6.242  14.824 -0.5980 -0.6693  0.7492
17979TIP3    H275353   6.573   6.092  14.804  0.9893 -0.6131  0.3820
17980TIP3   OH275354   6.530   2.019  15.732  0.3059  0.5240  0.3850
17980TIP3    H175355   6.485   2.098  15.703  0.1271 -0.4556 -2.1173
17980TIP3    H275356   6.460   1.964  15.769 -0.4927 -0.5674 -2.5740
17981TIP3   OH275357   0.873   0.058  11.269 -0.1649 -1.0339 -0.1345
17981TIP3    H175358   0.810  -0.007  11.236 -1.1499 -0.9241  1.5041
17981TIP3    H275359   0.912   0.095  11.189 -0.2711 -2.9468 -1.1128
17982TIP3   OH275360   5.537   2.534  12.220 -0.5688  0.3063 -0.1347
17982TIP3    H175361   5.497   2.450  12.200  0.6776 -0.2177 -0.4840
17982TIP3    H275362   5.631   2.516  12.225 -0.2677  1.6968 -0.3599
17983TIP3   OH275363   6.292   6.246   5.198  0.3682  0.0802 -0.9640
17983TIP3    H175364   6.376   6.274   5.161  1.6411 -2.0220  0.2069
17983TIP3    H275365   6.255   6.187   5.132  0.6102 -0.3012 -0.7609
17984TIP3   OH275366   3.072   5.254  11.626  0.0253  0.1434 -0.2041
17984TIP3    H175367   3.038   5.285  11.711 -0.6471  0.0279 -0.4300
17984TIP3    H275368   3.144   5.196  11.650 -0.1840  0.0790  0.2961
17985TIP3   OH275369   5.205   0.147  12.993  0.3016 -0.1897 -0.1512
17985TIP3    H175370   5.162   0.170  12.911  1.0644  1.7435 -0.0340
17985TIP3    H275371   5.133   0.125  13.052 -0.4246  0.8776 -0.6086
17986TIP3   OH275372   5.811   3.992  11.585 -0.7589  0.2475 -0.6346
17986TIP3    H175373   5.753   3.993  11.509 -0.2083  1.1350 -1.0580
17986TIP3    H275374   5.831   3.899  11.599 -2.6542 -0.0963 -0.1811
17987TIP3   OH275375   0.012   1.364  10.545  0.3210  0.4827 -0.7854
17987TIP3    H175376   0.050   1.281  10.518 -0.5507 -0.7367  1.6364
17987TIP3    H275377   0.085   1.411  10.585  0.5262  0.4099 -1.0647
17988TIP3   OH275378   6.120   3.811   0.803  0.2516 -0.0664 -0.6704
17988TIP3    H175379   6.061   3.821   0.728  0.1854 -0.8957 -0.7341
17988TIP3    H275380   6.138   3.901   0.831 -0.2952  0.2262 -1.2322
17989TIP3   OH275381   2.359   6.121  14.201  0.4471 -0.3028  0.9621
17989TIP3    H175382   2.388   6.206  14.233 -0.8327  1.1546 -1.5388
17989TIP3    H275383   2.309   6.141  14.121  0.1990 -3.3996  0.2541
17990TIP3   OH275384   0.963   5.268   5.814 -0.6480 -0.0064 -0.3552
17990TIP3    H175385   0.929   5.204   5.877 -0.6724 -0.3459 -0.7091
17990TIP3    H275386   1.005   5.215   5.746 -2.2476  0.2460 -1.5922
17991TIP3   OH275387   2.416   4.740  11.817  0.2500  0.4719  0.1223
17991TIP3    H175388   2.444   4.649  11.808 -1.0995  0.2130 -1.7593
17991TIP3    H275389   2.483   4.781  11.872  2.2455 -1.0193 -1.1688
17992TIP3   OH275390   1.693   5.743   4.911 -0.5952 -0.7298  0.2432
17992TIP3    H175391   1.663   5.744   4.820 -0.0586  2.5844  0.0442
17992TIP3    H275392   1.623   5.786   4.960  0.1425 -0.4378  1.0504
17993TIP3   OH275393   0.439   3.508   0.932 -0.1161 -0.0808  0.1151
17993TIP3    H175394   0.492   3.436   0.898 -0.2432 -0.1214  0.0026
17993TIP3    H275395   0.483   3.587   0.899  0.1489 -0.0999  0.4227
17994TIP3   OH275396   5.008   2.260   2.675 -0.2254 -0.3051  0.3282
17994TIP3    H175397   5.085   2.237   2.727  1.6324  0.1061 -2.1451
17994TIP3    H275398   5.022   2.352   2.651 -0.7287 -0.6662 -1.3926
17995TIP3   OH275399   1.742   1.304  13.361  0.2946  0.0211 -0.0915
17995TIP3    H175400   1.671   1.368  13.355  1.3146  1.4393  2.0101
17995TIP3    H275401   1.699   1.219  13.355 -1.2839  0.8820 -1.3672
17996TIP3   OH275402   6.654   4.493  11.319  0.1629  0.6902 -0.2559
17996TIP3    H175403   6.590   4.490  11.249  1.6329  1.6314 -1.6821
17996TIP3    H275404   6.723   4.433  11.291 -0.8975 -1.7344  2.1245
17997TIP3   OH275405   5.551   5.652  14.277  0.1671 -0.0679 -0.7466
17997TIP3    H175406   5.629   5.686  14.321  0.5172  0.1953 -1.5682
17997TIP3    H275407   5.504   5.730  14.249 -1.9360 -0.0975  2.3450
17998TIP3   OH275408   0.432   5.061   0.975  0.0876  0.2765 -0.2287
17998TIP3    H175409   0.346   5.031   1.003  0.8929 -1.3970  0.5081
17998TIP3    H275410   0.466   5.109   1.051 -0.1685  0.8977 -0.5034
17999TIP3   OH275411   1.241   0.428   0.997  0.1964 -0.1721  0.7836
17999TIP3    H175412   1.211   0.442   0.907 -3.0874  0.8436  1.9857
17999TIP3    H275413   1.221   0.510   1.042  1.7736 -0.6873  2.4898
18000TIP3   OH275414   4.822   5.661  12.821 -0.2930 -0.3640 -0.0100
18000TIP3    H175415   4.776   5.585  12.786 -0.0086 -0.6164  0.1668
18000TIP3    H275416   4.844   5.637  12.911  0.4866 -0.3777 -0.2026
18001TIP3   OH275417   2.691   0.643   0.733 -0.4176  0.2029 -0.5511
18001TIP3    H175418   2.771   0.600   0.703 -1.7095 -2.2607 -0.5581
18001TIP3    H275419   2.688   0.725   0.683  0.3914 -1.2112 -2.9932
18002TIP3   OH275420   1.193   0.924   0.257  0.0889 -0.0448 -0.3788
18002TIP3    H175421   1.196   0.828   0.253  0.5901  0.0358 -2.7863
18002TIP3    H275422   1.272   0.952   0.213 -1.8972  1.5063 -3.1085
18003TIP3   OH275423   1.300   2.953   6.254  0.1024  0.0449  0.2663
18003TIP3    H175424   1.287   2.916   6.341 -1.7811  0.0562  0.0107
18003TIP3    H275425   1.299   3.048   6.268  1.7887  0.0590  0.4795
18004TIP3   OH275426   3.500   6.312  16.409 -0.1139 -0.7781  0.9922
18004TIP3    H175427   3.595   6.320  16.400 -0.4573  2.0693 -0.6795
18004TIP3    H275428   3.469   6.402  16.424 -2.7713 -1.3353 -0.8051
18005TIP3   OH275429   2.931   2.247   4.414  0.3345 -0.6754  0.0851
18005TIP3    H175430   2.890   2.330   4.391 -0.8836 -0.9984  1.0684
18005TIP3    H275431   2.965   2.214   4.331  0.5651  0.6447 -0.3680
18006TIP3   OH275432   4.495   3.690  15.787 -0.2759 -0.4053 -0.0130
18006TIP3    H175433   4.440   3.624  15.829 -1.3200  0.4405 -0.0523
18006TIP3    H275434   4.584   3.669  15.817 -0.6097 -1.7521  0.0663
18007TIP3   OH275435   2.984   1.028  16.044  0.5045 -0.0052 -0.4735
18007TIP3    H175436   3.051   1.027  16.113  1.1221  0.3370 -1.0671
18007TIP3    H275437   3.018   1.087  15.977  0.0260 -0.5358 -1.1998
18008TIP3   OH275438   3.780   4.635  12.555 -0.0610  1.2187  0.7005
18008TIP3    H175439   3.777   4.723  12.518 -0.3015  1.0763  0.3830
18008TIP3    H275440   3.703   4.631  12.613  1.0078  1.8776  2.2007
18009TIP3   OH275441   0.504   5.180  15.030 -0.1057  0.0051 -0.0191
18009TIP3    H175442   0.419   5.216  15.057 -0.0120 -0.9820  1.7023
18009TIP3    H275443   0.498   5.087  15.052  1.7527  0.0977  0.9395
18010TIP3   OH275444   4.220   2.214   2.613 -0.0699 -0.0010  0.0245
18010TIP3    H175445   4.305   2.176   2.635  0.1339  0.7634  0.5619
18010TIP3    H275446   4.192   2.166   2.535  1.2256  0.2736 -0.6293
18011TIP3   OH275447   6.381   5.443  13.982 -0.0904  0.2821 -0.3060
18011TIP3    H175448   6.318   5.475  14.047  0.7357 -0.6972  1.0103
18011TIP3    H275449   6.416   5.522  13.942 -0.3921  0.9117  0.6522
18012TIP3   OH275450   3.990   4.149   0.928 -0.9207 -0.3178  0.5103
18012TIP3    H175451   3.955   4.063   0.952  0.4644 -0.6163  1.5808
18012TIP3    H275452   4.059   4.130   0.865 -1.0586  0.0558  0.2486
18013TIP3   OH275453   4.200   0.632   2.101 -0.0292  0.2667 -0.0539
18013TIP3    H175454   4.176   0.634   2.008 -1.6278 -2.0476  0.2784
18013TIP3    H275455   4.227   0.722   2.120 -0.6081  1.0073 -2.5039
18014TIP3   OH275456   6.319   5.284  15.019 -0.8381 -0.0192  0.2490
18014TIP3    H175457   6.377   5.357  14.996 -0.5182 -0.4468 -0.3343
18014TIP3    H275458   6.295   5.299  15.110 -0.9736  0.9471  0.0529
18015TIP3   OH275459   3.217   4.001  13.547 -0.2745  0.2293  0.4935
18015TIP3    H175460   3.233   3.913  13.511 -0.5814  0.2892  0.2020
18015TIP3    H275461   3.163   3.986  13.625 -0.6253  0.1830  0.2440
18016TIP3   OH275462   6.665   5.188   1.439 -0.2653 -0.1927  1.0287
18016TIP3    H175463   6.582   5.141   1.433 -0.0095 -0.6952  1.4299
18016TIP3    H275464   6.659   5.237   1.521 -1.5254  2.4000 -0.5387
18017TIP3   OH275465   1.316   3.947  12.278  0.0613  0.1146 -0.4118
18017TIP3    H175466   1.368   4.012  12.230  1.0580 -0.7910 -0.5797
18017TIP3    H275467   1.380   3.897  12.328 -0.5608 -1.5253 -1.2271
18018TIP3   OH275468   6.555   0.923   3.342  0.1984 -0.0822 -0.0972
18018TIP3    H175469   6.494   0.997   3.345 -1.2485 -1.1772 -1.4560
18018TIP3    H275470   6.532   0.870   3.418  1.1702  0.7989  0.8226
18019TIP3   OH275471   6.754   3.118   2.982 -0.3957  0.5731  0.1764
18019TIP3    H175472   6.715   3.204   2.969  0.6256  1.1974  1.1980
18019TIP3    H275473   6.831   3.118   2.925 -1.0444 -0.1087 -0.7167
18020TIP3   OH275474   3.221   0.792   4.676 -0.5491 -0.4498  0.3918
18020TIP3    H175475   3.153   0.727   4.696 -0.8566  0.0531  0.9848
18020TIP3    H275476   3.185   0.874   4.709 -0.4764  0.1565 -1.0213
18021TIP3   OH275477   4.342   3.863   1.676  0.3080 -0.0380 -0.0337
18021TIP3    H175478   4.376   3.951   1.666  1.0704 -0.3086  0.1225
18021TIP3    H275479   4.306   3.841   1.590  1.2394 -0.0414 -0.4280
18022TIP3   OH275480   0.733   5.298  12.633 -0.3878  0.6299  0.4648
18022TIP3    H175481   0.787   5.233  12.590 -0.4750  1.3715 -0.7717
18022TIP3    H275482   0.756   5.291  12.726 -1.6832 -2.3695  0.6063
18023TIP3   OH275483   5.316   4.808  12.811 -0.6920  0.4440  0.1842
18023TIP3    H175484   5.269   4.885  12.841  1.9568  2.0230  0.4440
18023TIP3    H275485   5.338   4.761  12.891 -0.6992  0.3866  0.1524
18024TIP3   OH275486   6.339   2.934   2.690  0.1151 -0.1312 -0.2828
18024TIP3    H175487   6.254   2.974   2.673  0.6711  0.7894 -0.9464
18024TIP3    H275488   6.392   3.005   2.727  0.2792 -0.9678  1.1234
18025TIP3   OH275489   3.191   3.026   0.712  0.1856 -0.2898  0.2192
18025TIP3    H175490   3.161   2.944   0.751  0.0733 -0.6112 -0.5494
18025TIP3    H275491   3.175   3.092   0.780 -0.2397 -0.8103  0.6232
18026TIP3   OH275492   4.726   0.282   4.709 -0.3432  0.2062 -0.1670
18026TIP3    H175493   4.678   0.244   4.635 -0.0926 -0.0658 -0.1866
18026TIP3    H275494   4.772   0.357   4.671 -0.0592 -0.0489 -0.3284
18027TIP3   OH275495   0.421   6.500  15.158  0.7015 -0.1806 -0.2646
18027TIP3    H175496   0.390   6.423  15.207 -0.9090  0.0548 -0.8637
18027TIP3    H275497   0.487   6.466  15.098 -0.2185 -1.1734 -0.7346
18028TIP3   OH275498   0.611   5.617  12.764 -0.3856 -0.2101  0.1885
18028TIP3    H175499   0.540   5.588  12.706 -0.9179  2.6013 -0.6016
18028TIP3    H275500   0.688   5.622  12.707 -1.0599  3.2250 -0.4958
18029TIP3   OH275501   6.480   0.251  15.048  0.5010 -0.1347 -0.4864
18029TIP3    H175502   6.526   0.262  14.965 -2.6257 -1.0906 -2.4105
18029TIP3    H275503   6.487   0.157  15.067 -1.0471 -0.3637 -1.0315
18030TIP3   OH275504   1.391   4.559   0.727  0.2111 -0.2059 -0.2015
18030TIP3    H175505   1.477   4.522   0.749  0.5569  0.0442 -1.1287
18030TIP3    H275506   1.329   4.492   0.755  0.6851 -0.2608  0.7569
18031TIP3   OH275507   6.731   3.116   0.261 -0.8551  0.2356 -0.4938
18031TIP3    H175508   6.771   3.079   0.182 -1.3566  1.2606 -1.2319
18031TIP3    H275509   6.646   3.072   0.268 -0.4414 -0.5125 -0.0077
18032TIP3   OH275510   2.800   0.453   1.891  0.1320  0.8460  0.2248
18032TIP3    H175511   2.758   0.408   1.819 -1.9874 -0.2054  2.0547
18032TIP3    H275512   2.881   0.404   1.907  0.1614  0.5594 -0.8221
18033TIP3   OH275513   0.931   2.036  12.096 -0.3555 -0.1367  0.1690
18033TIP3    H175514   0.850   2.086  12.102 -1.4102 -1.9027  0.9795
18033TIP3    H275515   0.981   2.079  12.027 -1.6680  1.4082  0.1632
18034TIP3   OH275516   2.400   0.239   0.756  0.4925  0.5334 -0.0425
18034TIP3    H175517   2.346   0.170   0.795  2.0300 -0.1672  0.9395
18034TIP3    H275518   2.406   0.306   0.824 -0.6553  1.4572 -0.8400
18035TIP3   OH275519   0.895   5.240   5.416 -0.0533 -0.3027 -0.0454
18035TIP3    H175520   0.857   5.154   5.434 -1.0876 -0.2190 -1.7057
18035TIP3    H275521   0.987   5.231   5.438  0.2079 -2.3732 -1.8362
18036TIP3   OH275522   1.780   3.695   2.986 -0.0978  0.3674  0.1005
18036TIP3    H175523   1.786   3.642   2.906  0.8616 -1.5090  1.3698
18036TIP3    H275524   1.871   3.715   3.008 -0.3211  0.3315  1.0587
18037TIP3   OH275525   0.082   3.329   4.711 -0.4985  0.0384  0.6043
18037TIP3    H175526   0.064   3.324   4.617  0.0249 -2.0699  0.5766
18037TIP3    H275527   0.127   3.412   4.722  1.1396 -0.5190 -1.3486
18038TIP3   OH275528   3.374   3.445   0.189  0.1776 -0.1032  0.3450
18038TIP3    H175529   3.380   3.364   0.240 -2.7240  0.7078  2.1006
18038TIP3    H275530   3.289   3.440   0.146  1.9845 -0.1183 -3.4044
18039TIP3   OH275531   4.397   3.197  17.068  0.7978 -0.3489  0.0243
18039TIP3    H175532   4.472   3.172  17.014  2.2359  3.4005  0.0901
18039TIP3    H275533   4.431   3.197  17.158  0.1655 -0.5914  0.2638
18040TIP3   OH275534   2.230   3.723   2.616 -0.3672 -0.2360 -0.3151
18040TIP3    H175535   2.194   3.778   2.546 -0.3882 -1.3963 -1.2305
18040TIP3    H275536   2.319   3.755   2.629  0.5037 -1.6009 -2.6199
18041TIP3   OH275537   0.767   2.976   5.387  0.0373  0.0494 -0.0938
18041TIP3    H175538   0.684   2.972   5.339  0.0409 -1.9766  0.0164
18041TIP3    H275539   0.808   2.891   5.370  1.5381  0.5744  0.8405
18042TIP3   OH275540   4.663   6.775   1.014 -0.3262 -0.3081 -0.1239
18042TIP3    H175541   4.699   6.849   1.063  0.6449 -1.4019  0.8426
18042TIP3    H275542   4.579   6.807   0.982  0.3745  1.4394 -0.2854
18043TIP3   OH275543   1.871   2.909  11.204 -0.5785  0.0567 -0.1295
18043TIP3    H175544   1.829   2.833  11.165 -0.7709  1.4450 -2.7618
18043TIP3    H275545   1.929   2.943  11.135  2.8126 -0.1989  2.4656
18044TIP3   OH275546   5.540   6.632  10.817  0.5428  0.0929  0.4727
18044TIP3    H175547   5.617   6.648  10.873  0.0376  1.1687  0.8742
18044TIP3    H275548   5.559   6.681  10.737 -0.0559  1.0053  0.8755
18045TIP3   OH275549   1.021   3.745  12.122 -0.0646 -0.0245  0.0173
18045TIP3    H175550   1.023   3.840  12.129 -0.6144 -0.1261  1.8013
18045TIP3    H275551   1.110   3.717  12.142 -0.2607  0.0288  0.9611
18046TIP3   OH275552   5.984   3.037   1.041  0.0525 -0.3654 -0.3637
18046TIP3    H175553   6.011   2.977   0.971  0.4767  2.6758 -2.9338
18046TIP3    H275554   6.062   3.089   1.059 -0.7419  0.4540  0.7451
18047TIP3   OH275555   2.587   6.273   2.283 -0.0211  0.0435 -0.0435
18047TIP3    H175556   2.622   6.201   2.231  0.3986 -0.2547  0.6419
18047TIP3    H275557   2.559   6.232   2.365  2.3337  1.0057  1.2824
18048TIP3   OH275558   1.088   5.932  13.078  0.3404  0.2352  0.2206
18048TIP3    H175559   1.071   5.847  13.037  0.9832 -0.5323  1.4996
18048TIP3    H275560   1.169   5.963  13.036  1.6770 -1.1187  1.7624
18049TIP3   OH275561   2.821   3.432  14.220 -0.6324  0.0178 -0.3761
18049TIP3    H175562   2.824   3.523  14.190  0.8487  1.1897  3.0551
18049TIP3    H275563   2.897   3.391  14.179 -0.6299  0.6162 -0.9890
18050TIP3   OH275564   0.379   5.230   5.558 -0.1535  0.1632  0.4669
18050TIP3    H175565   0.327   5.308   5.576  0.2698  1.3060 -2.9421
18050TIP3    H275566   0.466   5.250   5.594 -0.1715  1.0616  0.0055
18051TIP3   OH275567   1.086   1.279  12.139  0.4152  0.3173  0.4136
18051TIP3    H175568   1.009   1.305  12.088 -0.3871  0.3990  1.6454
18051TIP3    H275569   1.139   1.359  12.145  1.3500 -0.0948 -1.6873
18052TIP3   OH275570   4.105   3.933  11.687  0.2694  0.4136 -0.2581
18052TIP3    H175571   4.194   3.966  11.677  0.5571 -0.8192 -1.9160
18052TIP3    H275572   4.070   3.931  11.597 -0.6130 -1.3754  0.1146
18053TIP3   OH275573   0.487   2.186   6.723 -0.6216 -0.1905 -0.3803
18053TIP3    H175574   0.490   2.091   6.734 -1.4413  0.0608  2.5004
18053TIP3    H275575   0.542   2.204   6.647 -1.4399 -3.0652 -1.6932
18054TIP3   OH275576   5.509   0.320  14.569  0.7376  0.1215  0.4152
18054TIP3    H175577   5.538   0.281  14.486 -0.3369  1.7654 -0.7771
18054TIP3    H275578   5.480   0.408  14.545 -0.7391  0.2027  2.3451
18055TIP3   OH275579   1.923   3.632  12.342 -0.5806  0.0491  0.1240
18055TIP3    H175580   1.881   3.592  12.418  0.5317 -2.5237 -0.5758
18055TIP3    H275581   1.854   3.687  12.303 -1.5652  0.3094  2.1731
18056TIP3   OH275582   3.734   1.778   5.182 -0.5280  0.0858  0.0772
18056TIP3    H175583   3.712   1.856   5.232 -1.3419  0.1911 -0.4322
18056TIP3    H275584   3.806   1.805   5.125 -0.2633  0.2371  0.4819
18057TIP3   OH275585   4.369   4.537  12.242  0.1824  0.1588  0.1321
18057TIP3    H175586   4.377   4.456  12.192  0.6352 -0.2986  0.9336
18057TIP3    H275587   4.459   4.571  12.248  0.1521  0.1323  0.7614
18058TIP3   OH275588   4.886   1.983   5.958  0.2195  0.0518  0.8439
18058TIP3    H175589   4.821   2.044   5.994  0.8605  1.3424 -0.1306
18058TIP3    H275590   4.837   1.903   5.939 -1.0986  1.0329  0.0453
18059TIP3   OH275591   4.510   4.344  10.884  0.0821 -0.4446 -0.2728
18059TIP3    H175592   4.495   4.356  10.978 -0.8868 -0.4936 -0.4191
18059TIP3    H275593   4.571   4.414  10.860  0.0443 -0.2078  0.3172
18060TIP3   OH275594   5.893   1.988  12.156  0.4557  0.0082  0.4120
18060TIP3    H175595   5.958   2.046  12.195  1.3890 -1.8471  1.6556
18060TIP3    H275596   5.879   2.023  12.068  3.8934 -0.1398 -0.2509
18061TIP3   OH275597   5.587   5.650  15.401 -0.0621 -0.7006  0.5068
18061TIP3    H175598   5.623   5.617  15.483 -0.6980 -1.5052  0.4703
18061TIP3    H275599   5.535   5.726  15.426  1.5375  0.3968  0.5751
18062TIP3   OH275600   0.985   6.085   0.905 -0.5827  0.0709 -0.0279
18062TIP3    H175601   0.972   6.163   0.960  0.0542 -0.5568  1.0224
18062TIP3    H275602   0.949   6.013   0.957 -0.4647 -0.4554 -0.6732
18063TIP3   OH275603   3.183   0.091   0.103  0.1066 -0.3960  0.1314
18063TIP3    H175604   3.272   0.070   0.078 -0.3621 -0.5719 -1.4327
18063TIP3    H275605   3.132   0.083   0.022 -0.8551  2.3589  0.4016
18064TIP3   OH275606   2.496   6.081   1.410 -0.0511  0.0953  0.7575
18064TIP3    H175607   2.585   6.115   1.418  0.0429 -0.3189  1.6252
18064TIP3    H275608   2.440   6.153   1.439 -0.1123  0.9759 -1.5036
18065TIP3   OH275609   0.497   4.960   5.886 -0.2272 -0.0996 -0.2820
18065TIP3    H175610   0.582   4.957   5.842 -0.6042 -1.4795 -0.9365
18065TIP3    H275611   0.436   4.991   5.819 -0.2938  0.6994  0.1334
18066TIP3   OH275612   1.760   4.526   5.886 -0.3139  0.1652  0.8285
18066TIP3    H175613   1.727   4.530   5.976 -0.2868 -3.1692  1.0365
18066TIP3    H275614   1.729   4.442   5.853  3.0137 -0.4354 -0.9608
18067TIP3   OH275615   1.671   6.155  13.191  0.7597  0.1508  0.2866
18067TIP3    H175616   1.673   6.175  13.097 -0.3577 -1.1814 -0.0372
18067TIP3    H275617   1.614   6.223  13.228  0.1143 -0.1012 -0.2214
18068TIP3   OH275618   2.424   5.647   2.231  0.5722 -0.1436  0.4824
18068TIP3    H175619   2.371   5.569   2.214 -0.1412  0.6471 -1.0302
18068TIP3    H275620   2.514   5.618   2.218  0.3268 -0.7838  0.1818
18069TIP3   OH275621   3.051   6.524   4.904 -0.4584 -0.2137  0.5481
18069TIP3    H175622   3.014   6.529   4.816 -1.3477 -0.6635  0.8946
18069TIP3    H275623   3.119   6.457   4.897 -0.0616  0.2388  0.0407
18070TIP3   OH275624   0.938   6.654  14.468 -0.2034 -0.1130 -0.0293
18070TIP3    H175625   0.906   6.573  14.507 -0.7811  0.1391  0.0245
18070TIP3    H275626   0.859   6.704  14.448  0.0022 -0.8983 -2.9695
18071TIP3   OH275627   6.650   1.600  11.945  0.2494 -0.5797  0.1908
18071TIP3    H175628   6.732   1.649  11.958  1.3287 -1.9684 -1.1569
18071TIP3    H275629   6.653   1.573  11.853 -0.1928 -3.3936  0.9695
18072TIP3   OH275630   4.491   5.250  12.212  0.2971  0.4216 -0.2696
18072TIP3    H175631   4.419   5.236  12.273 -1.7828 -0.4026 -2.8045
18072TIP3    H275632   4.506   5.345  12.215 -1.0481  0.6428  0.1636
18073TIP3   OH275633   2.626   3.723   4.807  0.5710 -0.5399 -0.1214
18073TIP3    H175634   2.653   3.768   4.887  1.2836 -0.6279 -0.3099
18073TIP3    H275635   2.629   3.630   4.830  3.1456 -0.7047 -0.9491
18074TIP3   OH275636   1.709   6.325  12.983  0.8835  0.4498  0.2553
18074TIP3    H175637   1.793   6.289  13.012  0.6019 -0.1197  0.3863
18074TIP3    H275638   1.732   6.386  12.913  1.4126  0.3453  0.3303
18075TIP3   OH275639   1.172   1.375  12.621  0.2019 -0.0322  0.3871
18075TIP3    H175640   1.258   1.392  12.661 -0.1707  0.8558  0.8217
18075TIP3    H275641   1.109   1.411  12.684 -0.4467  0.2104 -0.3939
18076TIP3   OH275642   2.230   0.485  12.290  0.2157 -0.1350 -0.4552
18076TIP3    H175643   2.287   0.543  12.241 -0.7070  1.7479  0.6369
18076TIP3    H275644   2.286   0.414  12.320  1.8811  1.4109  0.1535
18077TIP3   OH275645   1.621   3.787   4.786 -0.4240 -0.3159 -0.4515
18077TIP3    H175646   1.588   3.704   4.821  1.6953 -0.7114  0.6879
18077TIP3    H275647   1.661   3.763   4.702 -0.6045 -0.2871 -0.5465
18078TIP3   OH275648   1.906   4.771   4.502  0.3597  0.0666  0.4897
18078TIP3    H175649   1.992   4.787   4.541  1.0695 -2.8022  0.2524
18078TIP3    H275650   1.885   4.852   4.456  1.4984  1.9245  3.1060
18079TIP3   OH275651   2.971   4.395  14.690 -0.0859 -0.1894  0.2354
18079TIP3    H175652   2.914   4.370  14.763 -2.1302  1.8590 -0.6141
18079TIP3    H275653   2.940   4.343  14.616 -0.3311  0.3259 -0.0267
18080TIP3   OH275654   6.243   5.486   3.984 -0.5108 -0.0966 -0.6225
18080TIP3    H175655   6.261   5.392   3.982 -1.4374 -0.2745 -0.9559
18080TIP3    H275656   6.328   5.527   3.996 -0.1921 -1.0208  0.3337
18081TIP3   OH275657   0.724   5.067  16.083  0.1359 -0.2901 -0.0009
18081TIP3    H175658   0.730   5.132  16.013 -0.3722 -0.6480 -0.3725
18081TIP3    H275659   0.649   5.095  16.135 -0.8530 -1.2894 -0.8808
18082TIP3   OH275660   0.328   0.541  11.493 -0.5654 -0.0716  0.0021
18082TIP3    H175661   0.401   0.482  11.478 -1.1829 -0.2736 -2.5519
18082TIP3    H275662   0.250   0.485  11.487 -1.0938  0.7532 -1.1975
18083TIP3   OH275663   1.902   0.157  10.518 -0.1465  0.0433  0.0479
18083TIP3    H175664   1.895   0.253  10.522  0.2114  0.0996 -0.7094
18083TIP3    H275665   1.977   0.137  10.574  0.3098  0.2747 -0.4754
18084TIP3   OH275666   0.672   5.928  14.335 -0.2193 -0.2292  0.1014
18084TIP3    H175667   0.584   5.963  14.318  0.2643  1.2667  0.6609
18084TIP3    H275668   0.719   5.941  14.253 -0.1265  0.1692  0.2175
18085TIP3   OH275669   6.312   3.455   4.898 -0.3334 -0.6422 -0.1921
18085TIP3    H175670   6.283   3.530   4.949 -1.9018 -0.4571 -1.3002
18085TIP3    H275671   6.397   3.431   4.935  0.8846  2.5751 -0.7447
18086TIP3   OH275672   6.532   1.776  14.902 -0.1352  0.5212  0.0531
18086TIP3    H175673   6.621   1.758  14.870  0.1051  0.0954  0.9276
18086TIP3    H275674   6.545   1.825  14.983 -0.6750 -0.1814  0.5746
18087TIP3   OH275675   1.504   1.976  16.479 -0.0527 -0.2514 -0.0244
18087TIP3    H175676   1.497   2.026  16.560  0.0114  1.8064 -1.2545
18087TIP3    H275677   1.438   2.014  16.421  1.4582 -0.1050 -1.7140
18088TIP3   OH275678   3.983   4.216   5.534 -0.2219  0.6540  0.3980
18088TIP3    H175679   4.049   4.235   5.601  0.0885 -3.7589  1.5112
18088TIP3    H275680   3.899   4.233   5.577  0.0388  0.0288  1.1618
18089TIP3   OH275681   3.670   3.812  14.167 -0.2366 -0.7923 -0.4756
18089TIP3    H175682   3.682   3.737  14.225 -0.7969  0.2493  1.0000
18089TIP3    H275683   3.713   3.786  14.085  1.5778 -1.8119  0.7688
18090TIP3   OH275684   2.851   1.453   4.888 -0.1852  0.4853  0.6278
18090TIP3    H175685   2.894   1.526   4.844 -1.2744  0.2460 -0.9139
18090TIP3    H275686   2.855   1.474   4.981  0.2034  2.1303  0.2533
18091TIP3   OH275687   4.552   2.690  11.013  0.3375 -0.4790  0.6284
18091TIP3    H175688   4.526   2.648  10.930 -1.0547  0.2539  0.6851
18091TIP3    H275689   4.622   2.750  10.988  0.5034 -0.8813  0.1135
18092TIP3   OH275690   5.073   3.828  12.647  0.2745 -0.4294  0.0340
18092TIP3    H175691   5.162   3.852  12.621 -0.0968 -0.0286 -0.8807
18092TIP3    H275692   5.028   3.912  12.659  0.0967 -0.6263  0.7807
18093TIP3   OH275693   3.340   1.995  15.157  0.3944 -0.2403  0.8874
18093TIP3    H175694   3.418   2.049  15.144 -0.6505  1.0275 -0.3024
18093TIP3    H275695   3.283   2.049  15.212 -0.1487 -0.6447  0.7253
18094TIP3   OH275696   4.577   0.886   4.741 -0.3578 -0.3139  0.1518
18094TIP3    H175697   4.519   0.958   4.717  0.7192  0.7903  0.8441
18094TIP3    H275698   4.665   0.921   4.733  0.1631 -1.3549  1.1216
18095TIP3   OH275699   2.213   4.049  16.929 -0.5931 -0.5761 -1.0581
18095TIP3    H175700   2.288   4.103  16.904 -0.8220 -0.3303 -1.2170
18095TIP3    H275701   2.156   4.109  16.977 -0.6556 -0.7835 -0.8735
18096TIP3   OH275702   1.942   0.225  15.880 -0.4276 -0.7330 -0.0032
18096TIP3    H175703   2.000   0.300  15.886 -0.6029 -0.6936  1.1643
18096TIP3    H275704   1.962   0.187  15.794  0.5355 -0.0851 -0.0755
18097TIP3   OH275705   4.870   3.082   4.086 -0.2657 -0.3186 -0.2989
18097TIP3    H175706   4.836   3.163   4.124  0.8619  0.3461 -0.7227
18097TIP3    H275707   4.924   3.109   4.013  1.4800 -1.3595  0.5700
18098TIP3   OH275708   2.310   2.201  11.396  0.3961 -0.0771  0.0399
18098TIP3    H175709   2.367   2.154  11.335 -1.2289 -2.2088  0.1038
18098TIP3    H275710   2.371   2.247  11.454  2.0007 -0.1943 -1.4974
18099TIP3   OH275711   0.045   0.623   5.961 -0.1890  0.2950 -0.4158
18099TIP3    H175712   0.034   0.625   5.866 -0.4667  0.5854 -0.3800
18099TIP3    H275713   0.017   0.535   5.987  1.6642 -0.4349 -0.8043
18100TIP3   OH275714   2.143   2.612   7.065  0.5929  0.7197 -0.2141
18100TIP3    H175715   2.180   2.603   6.977  0.9270 -0.0462 -0.0031
18100TIP3    H275716   2.049   2.600   7.053  0.8048 -1.0216 -0.2510
18101TIP3   OH275717   2.992   0.691  16.897  0.4937  0.3366 -0.8712
18101TIP3    H175718   2.952   0.744  16.828 -1.9180 -1.4601 -0.9323
18101TIP3    H275719   2.966   0.735  16.979  0.0850  0.3237 -0.9897
18102TIP3   OH275720   0.730   5.200   2.043  0.0825 -0.1360  0.4247
18102TIP3    H175721   0.728   5.114   2.085  0.0369 -0.5359 -0.3902
18102TIP3    H275722   0.822   5.227   2.049  0.0656 -0.1715  0.8289
18103TIP3   OH275723   4.596   5.570   5.620 -0.0090  0.0169  0.2173
18103TIP3    H175724   4.618   5.534   5.706  2.4823  2.2993  0.5788
18103TIP3    H275725   4.645   5.517   5.558  0.7890  0.4643  0.4648
18104TIP3   OH275726   5.391   6.743   3.288 -0.7433 -0.8912 -0.0602
18104TIP3    H175727   5.442   6.675   3.244  0.3155 -0.4183  0.4144
18104TIP3    H275728   5.349   6.791   3.216  0.6587 -0.3693 -0.5491
18105TIP3   OH275729   5.727   4.296   1.053 -0.0997 -0.0950  0.9064
18105TIP3    H175730   5.746   4.236   0.981 -1.3838  0.6607 -0.0805
18105TIP3    H275731   5.782   4.373   1.036  0.3554 -0.3291  1.2994
18106TIP3   OH275732   5.924   1.433  11.305 -0.1039  0.0605  0.0477
18106TIP3    H175733   5.858   1.487  11.260 -0.5245  0.1064  0.7113
18106TIP3    H275734   5.956   1.490  11.375  0.5758  0.0016 -0.2147
18107TIP3   OH275735   1.678   5.333  13.903  0.0736  0.2461 -0.0138
18107TIP3    H175736   1.734   5.410  13.918  1.2807 -0.7290  0.6258
18107TIP3    H275737   1.728   5.280  13.840  1.0425 -1.8094  2.4266
18108TIP3   OH275738   0.620   4.516   2.987  0.0557 -0.1008  0.2009
18108TIP3    H175739   0.633   4.482   3.075 -2.2452 -0.6347  0.3643
18108TIP3    H275740   0.635   4.441   2.930 -1.1787 -0.4543  0.3247
18109TIP3   OH275741   0.192   0.292  14.780 -0.2482 -0.3579 -0.0820
18109TIP3    H175742   0.213   0.199  14.784 -0.2994 -0.3363  0.7392
18109TIP3    H275743   0.240   0.331  14.854  1.5822  0.6256 -1.7097
18110TIP3   OH275744   4.541   3.490   2.517  0.0024 -0.0335  0.2146
18110TIP3    H175745   4.635   3.495   2.533  0.0745 -1.3967  0.2858
18110TIP3    H275746   4.529   3.406   2.472 -1.0754  0.5140 -0.5482
18111TIP3   OH275747   5.624   3.716   1.780  0.0941 -0.4778 -0.1936
18111TIP3    H175748   5.698   3.658   1.763  0.5594 -0.6787  2.2544
18111TIP3    H275749   5.614   3.714   1.875 -2.7146 -0.0076 -0.4327
18112TIP3   OH275750   3.598   4.051  11.602  0.1669 -0.2538 -0.1853
18112TIP3    H175751   3.670   4.100  11.642  0.5740  0.0631 -1.2999
18112TIP3    H275752   3.614   4.057  11.508 -1.6247  0.2953 -0.4675
18113TIP3   OH275753   4.643   5.438   0.685  0.4728  0.5514 -0.0241
18113TIP3    H175754   4.668   5.370   0.748  0.1513  0.2125 -0.2574
18113TIP3    H275755   4.719   5.446   0.627  0.3680  0.1282 -0.2191
18114TIP3   OH275756   5.219   0.692  11.818  0.1246 -0.2628 -0.1763
18114TIP3    H175757   5.242   0.781  11.792 -2.0868  0.1268 -0.9473
18114TIP3    H275758   5.253   0.684  11.907  0.4689  1.3091 -0.1427
18115TIP3   OH275759   0.198   0.914  14.515 -0.1471 -0.2184  0.2378
18115TIP3    H175760   0.244   0.939  14.595  0.3790  0.3576 -0.2441
18115TIP3    H275761   0.120   0.867  14.546  1.2775 -2.1113  1.0306
18116TIP3   OH275762   2.526   6.014  11.272  0.1899  0.2970 -0.3032
18116TIP3    H175763   2.528   5.926  11.309 -3.2306  0.5773  0.6808
18116TIP3    H275764   2.551   6.002  11.180 -0.6940 -1.7378 -0.3026
18117TIP3   OH275765   1.247   5.441  10.457 -0.3149 -0.0441 -0.3772
18117TIP3    H175766   1.282   5.518  10.502 -0.1560 -0.4904  0.2629
18117TIP3    H275767   1.152   5.448  10.468 -0.3017  0.0503 -0.3189
18118TIP3   OH275768   6.597   5.557  11.463  0.6197  0.5389  0.2336
18118TIP3    H175769   6.669   5.574  11.523 -0.6675  1.2324  1.6034
18118TIP3    H275770   6.623   5.477  11.416  0.7589 -1.1191  3.0543
18119TIP3   OH275771   5.676   2.399   6.281 -0.2298 -0.6365  0.4244
18119TIP3    H175772   5.742   2.331   6.295 -0.8434 -1.5472 -0.9815
18119TIP3    H275773   5.602   2.371   6.334  0.4221  0.2790  1.8428
18120TIP3   OH275774   3.602   3.970   3.844 -0.0953 -0.8180 -0.2012
18120TIP3    H175775   3.630   3.991   3.755 -0.6853 -0.5837 -0.3301
18120TIP3    H275776   3.585   3.875   3.842 -3.1087 -0.2912 -1.1594
18121TIP3   OH275777   3.351   2.642   4.632 -0.3260  0.3997  0.2175
18121TIP3    H175778   3.321   2.704   4.566 -0.3099 -0.9726 -1.1104
18121TIP3    H275779   3.439   2.618   4.604 -0.6940 -0.9442  0.1713
18122TIP3   OH275780   3.837   5.330   4.005  0.3460 -0.0167 -0.2209
18122TIP3    H175781   3.874   5.398   4.061 -2.3513  2.1920 -1.0251
18122TIP3    H275782   3.770   5.287   4.059 -0.7697  0.6889 -1.0207
18123TIP3   OH275783   0.355   2.614   4.136 -0.0064  0.3541  0.1882
18123TIP3    H175784   0.281   2.598   4.195  1.4253  1.3240  2.2708
18123TIP3    H275785   0.432   2.593   4.188  1.3272  2.0997 -1.0469
18124TIP3   OH275786   0.897   2.565  14.338 -0.2071 -0.4715 -0.3357
18124TIP3    H175787   0.913   2.637  14.398 -0.2677 -0.1996 -0.6466
18124TIP3    H275788   0.982   2.547  14.297 -0.5025  0.3937 -1.3406
18125TIP3   OH275789   5.156   4.128  17.233 -0.0458 -0.1014 -1.0947
18125TIP3    H175790   5.124   4.196  17.173 -2.2232 -0.9696 -0.9899
18125TIP3    H275791   5.081   4.111  17.291  1.3792 -0.6421  0.6505
18126TIP3   OH275792   5.672   6.188   2.807 -0.3392  0.0567  0.1056
18126TIP3    H175793   5.658   6.095   2.790  1.8414 -0.2143 -0.3289
18126TIP3    H275794   5.751   6.192   2.861 -1.8469  1.5200  2.3087
18127TIP3   OH275795   4.272   1.450   3.230  0.0684 -0.3964 -0.4160
18127TIP3    H175796   4.344   1.474   3.171 -0.0764  0.4139 -0.2791
18127TIP3    H275797   4.194   1.481   3.184 -0.1945 -1.3501 -0.6015
18128TIP3   OH275798   3.393   5.980  15.534  0.4579  0.2319  0.2145
18128TIP3    H175799   3.316   6.005  15.585  0.8678 -0.3385  1.1278
18128TIP3    H275800   3.406   5.887  15.554  0.5061 -0.0588 -1.0924
18129TIP3   OH275801   3.240   0.044  16.458 -0.5965  0.1711  0.0425
18129TIP3    H175802   3.150   0.014  16.450 -0.7883  0.9832 -0.9197
18129TIP3    H275803   3.258   0.040  16.552 -2.2705  1.7870  0.4694
18130TIP3   OH275804   0.693   2.939   5.903 -0.7698 -0.5657 -0.2350
18130TIP3    H175805   0.711   3.010   5.842  0.6145  0.5741  1.4465
18130TIP3    H275806   0.664   2.984   5.983  0.8219 -1.8295  1.0796
18131TIP3   OH275807   1.439   1.595  14.757  0.3308 -0.0589 -0.1656
18131TIP3    H175808   1.494   1.664  14.721 -0.8479  0.1765 -1.5272
18131TIP3    H275809   1.477   1.514  14.723  2.2043 -0.1837  2.0774
18132TIP3   OH275810   0.461   3.376  16.580  0.1194 -0.1464  0.0495
18132TIP3    H175811   0.396   3.411  16.641 -0.6996 -0.5886 -0.5623
18132TIP3    H275812   0.425   3.395  16.493 -0.7158 -3.1743 -0.3230
18133TIP3   OH275813   4.070   6.327   5.623  0.1916 -0.1062  0.1242
18133TIP3    H175814   4.121   6.403   5.651 -0.0580 -0.1072  0.5787
18133TIP3    H275815   3.982   6.343   5.657 -0.6052  0.8131 -2.2997
18134TIP3   OH275816   3.316   2.535   5.773 -0.1172  1.0041  0.0014
18134TIP3    H175817   3.381   2.602   5.752 -1.2961  1.9389 -0.6656
18134TIP3    H275818   3.365   2.471   5.826  0.7188  3.0032  1.7289
18135TIP3   OH275819   5.199   4.674   0.429 -0.2706  0.3377 -0.3007
18135TIP3    H175820   5.156   4.589   0.416  0.4844 -0.1781  0.5003
18135TIP3    H275821   5.129   4.738   0.417 -1.1449 -0.4688  0.4098
18136TIP3   OH275822   3.160   3.753   2.110 -0.1701 -0.2017 -0.0796
18136TIP3    H175823   3.078   3.781   2.151 -0.6078  0.6599 -1.5212
18136TIP3    H275824   3.182   3.824   2.049  0.0309 -1.8174 -1.9276
18137TIP3   OH275825   6.465   2.091   0.671 -0.2086  0.2924  0.2326
18137TIP3    H175826   6.460   2.015   0.729  0.3015  0.5163  0.5775
18137TIP3    H275827   6.556   2.122   0.680 -0.1713  0.4252 -0.5622
18138TIP3   OH275828   3.992   4.356   1.139 -0.3365  0.4582 -0.0824
18138TIP3    H175829   3.964   4.293   1.073  0.2395 -2.4526  2.3408
18138TIP3    H275830   4.080   4.382   1.111 -0.4975  0.0484 -0.9917
18139TIP3   OH275831   3.215   6.137  13.350  0.3835 -0.1758  0.3207
18139TIP3    H175832   3.193   6.205  13.287  1.5593  0.7997  0.9525
18139TIP3    H275833   3.267   6.074  13.299  0.5664  0.1490  0.1042
18140TIP3   OH275834   0.550   3.692  15.431 -0.1509 -0.3262  1.0051
18140TIP3    H175835   0.565   3.743  15.511  0.9774  1.8743 -0.5672
18140TIP3    H275836   0.505   3.753  15.373 -0.3015 -1.6829 -0.3146
18141TIP3   OH275837   5.362   6.101  11.604 -0.4983  0.0742 -0.2988
18141TIP3    H175838   5.298   6.105  11.675 -2.7149  1.8696 -2.2793
18141TIP3    H275839   5.433   6.158  11.631 -0.6801 -0.3234  1.0445
18142TIP3   OH275840   0.331   2.926   4.385 -0.5938 -0.7628  0.1861
18142TIP3    H175841   0.259   2.866   4.366 -1.0274  0.0571 -0.8339
18142TIP3    H275842   0.392   2.914   4.312  0.2480 -1.3693  0.9855
18143TIP3   OH275843   2.212   5.979   0.854 -0.1917  0.0253 -0.1809
18143TIP3    H175844   2.125   5.974   0.894 -0.5740 -2.5956 -1.2071
18143TIP3    H275845   2.271   5.996   0.927 -1.4955  1.2799  0.6092
18144TIP3   OH275846   5.442   2.930   1.322 -0.4094  0.1737 -0.2750
18144TIP3    H175847   5.347   2.946   1.320 -0.4713 -0.2051 -0.3617
18144TIP3    H275848   5.450   2.836   1.308 -0.1030 -0.0751  1.4551
18145TIP3   OH275849   5.771   3.148  16.461  0.3084  0.1577  0.0209
18145TIP3    H175850   5.808   3.203  16.530 -1.7570 -1.0556  2.2184
18145TIP3    H275851   5.740   3.210  16.395 -0.8555  1.6298  1.8652
18146TIP3   OH275852   2.534   5.122  14.541  0.2864 -0.2136  0.1761
18146TIP3    H175853   2.536   5.170  14.458 -2.4210 -0.0179  0.1718
18146TIP3    H275854   2.601   5.163  14.595  0.8125  0.8654 -1.2827
18147TIP3   OH275855   2.296   4.626   4.182  0.2355 -0.2621 -0.1464
18147TIP3    H175856   2.278   4.707   4.229 -0.3929  1.0440 -2.5389
18147TIP3    H275857   2.303   4.653   4.090 -0.1371 -2.9504 -1.0027
18148TIP3   OH275858   0.679   6.425   2.231  0.5238  0.2497 -0.7334
18148TIP3    H175859   0.599   6.434   2.282 -0.0677 -0.3123 -1.5584
18148TIP3    H275860   0.750   6.439   2.294 -0.1712 -1.4867  0.4744
18149TIP3   OH275861   1.813   3.806   5.854 -0.8898  0.1845  0.2095
18149TIP3    H175862   1.805   3.763   5.939 -2.6163  1.0521  0.5100
18149TIP3    H275863   1.760   3.885   5.862  0.9379  1.5623 -0.8713
18150TIP3   OH275864   3.931   0.590   1.321 -0.0623 -0.0071 -0.0609
18150TIP3    H175865   3.995   0.620   1.386 -3.0820 -0.0594  3.1402
18150TIP3    H275866   3.861   0.656   1.325 -1.6528 -1.5873 -1.0770
18151TIP3   OH275867   1.415   2.369  14.706 -0.8076  0.5452  0.2380
18151TIP3    H175868   1.396   2.447  14.654 -0.9171 -0.1853 -0.8376
18151TIP3    H275869   1.388   2.392  14.795 -0.0377  2.0262  0.0891
18152TIP3   OH275870   0.843   2.457  16.589 -0.2560 -0.3924  0.6460
18152TIP3    H175871   0.787   2.509  16.646  0.1389 -0.7288  1.3466
18152TIP3    H275872   0.900   2.408  16.649  0.8065 -0.0356 -0.0562
18153TIP3   OH275873   6.707   4.421   4.576  0.5324 -0.2873 -0.0537
18153TIP3    H175874   6.695   4.515   4.589  1.3052  0.1878 -2.4888
18153TIP3    H275875   6.647   4.380   4.637  0.6650  1.7829  1.5139
18154TIP3   OH275876   3.279   6.314  16.927 -0.0575  0.4137 -0.3117
18154TIP3    H175877   3.185   6.325  16.942 -0.2421  1.9050 -2.2727
18154TIP3    H275878   3.310   6.403  16.908  1.4286 -0.3083 -1.3512
18155TIP3   OH275879   0.262   6.522  11.345 -0.3255  0.2065  0.9015
18155TIP3    H175880   0.207   6.532  11.268  0.0777 -0.2393  0.5521
18155TIP3    H275881   0.349   6.553  11.317 -0.0850 -0.3180  1.0590
18156TIP3   OH275882   2.681   3.384  10.547 -0.1187  0.5794  0.1054
18156TIP3    H175883   2.589   3.409  10.540  0.3453  2.5822  0.6884
18156TIP3    H275884   2.727   3.467  10.563  1.9255 -0.2217 -1.3714
18157TIP3   OH275885   4.556   2.838   6.237  0.0104 -0.1201  0.6247
18157TIP3    H175886   4.556   2.773   6.308  0.3672  0.1853  0.9117
18157TIP3    H275887   4.648   2.842   6.209 -0.1240 -0.2070  0.1762
18158TIP3   OH275888   2.432   0.949   1.447 -0.6849 -0.2945  0.0127
18158TIP3    H175889   2.423   0.953   1.352 -0.4279 -0.7221 -0.0303
18158TIP3    H275890   2.519   0.911   1.461  0.3608  2.1337  0.4100
18159TIP3   OH275891   0.812   1.159  16.977 -0.0413 -0.2490 -0.3160
18159TIP3    H175892   0.788   1.209  17.055 -0.4205 -2.0790  0.7677
18159TIP3    H275893   0.892   1.112  17.002 -0.7249 -1.6257 -0.6765
18160TIP3   OH275894   0.145   4.212   2.988 -0.1766 -0.4838  0.4268
18160TIP3    H175895   0.222   4.169   2.952  0.6316  1.1771  0.1285
18160TIP3    H275896   0.150   4.196   3.082  1.2303  0.6991  0.5646
18161TIP3   OH275897   3.202   4.854   4.021 -0.0787  0.1718 -0.0923
18161TIP3    H175898   3.175   4.942   4.047  0.7788 -0.0300  1.5098
18161TIP3    H275899   3.231   4.864   3.930 -0.8902  1.3545 -0.2265
18162TIP3   OH275900   5.810   3.650   1.508  0.2835 -0.0836  0.1696
18162TIP3    H175901   5.750   3.724   1.501  1.5860  0.9049 -0.7907
18162TIP3    H275902   5.753   3.574   1.521 -1.0876  1.0374  0.8341
18163TIP3   OH275903   4.464   4.940  17.133 -0.4307  0.0935 -0.0700
18163TIP3    H175904   4.522   4.877  17.174  0.9025 -0.4230 -2.6488
18163TIP3    H275905   4.468   5.017  17.189  0.6774 -0.8802  1.2057
18164TIP3   OH275906   2.645   2.520  16.552 -0.0768  0.0095  0.5478
18164TIP3    H175907   2.571   2.461  16.540 -0.0056  0.0977 -0.2987
18164TIP3    H275908   2.717   2.478  16.505  0.6330 -0.4845  2.0297
18165TIP3   OH275909   6.156   5.055   0.555  0.1806  0.3641 -0.2844
18165TIP3    H175910   6.139   5.013   0.471  0.7372 -0.5101  0.0355
18165TIP3    H275911   6.087   5.121   0.563  0.4391  0.8143 -1.6584
18166TIP3   OH275912   4.033   4.699   0.924  0.0196  0.0532 -0.1019
18166TIP3    H175913   4.115   4.661   0.891  0.4791  1.1461 -0.2259
18166TIP3    H275914   3.983   4.720   0.846  0.6498  1.6324 -0.0915
18167TIP3   OH275915   2.508   2.583  13.402 -0.0208 -0.6724  0.0487
18167TIP3    H175916   2.467   2.667  13.424  0.2248 -0.0331 -1.7989
18167TIP3    H275917   2.583   2.607  13.348 -0.6405 -2.1219 -1.5195
18168TIP3   OH275918   6.163   4.909   5.264 -0.2731 -0.4166  0.1455
18168TIP3    H175919   6.256   4.908   5.289 -0.2690  0.0115  0.1586
18168TIP3    H275920   6.133   4.996   5.291 -1.0761 -1.1249  1.6122
18169TIP3   OH275921   5.948   4.354  13.675 -0.0380  0.0287  0.1600
18169TIP3    H175922   5.999   4.276  13.656  2.6438  1.4114  1.4311
18169TIP3    H275923   6.013   4.423  13.688 -2.1669  1.6833  2.6087
18170TIP3   OH275924   4.038   1.795  13.314  0.6074 -0.0563  0.0544
18170TIP3    H175925   3.978   1.720  13.317 -0.0156  0.4690  0.9724
18170TIP3    H275926   3.980   1.871  13.305  1.1371  0.4323  0.7044
18171TIP3   OH275927   5.204   0.554  11.291 -0.1878  0.1620  0.3581
18171TIP3    H175928   5.165   0.641  11.306  0.5704  0.5026  0.3831
18171TIP3    H275929   5.240   0.560  11.202 -1.1149 -0.5006 -0.0709
18172TIP3   OH275930   1.657   3.463   2.840 -0.3238  0.2614  0.1272
18172TIP3    H175931   1.578   3.464   2.894  1.4214  1.1534  2.7511
18172TIP3    H275932   1.706   3.386   2.869  0.0066 -0.0496 -1.1882
18173TIP3   OH275933   5.171   1.098   1.558  0.3322 -0.3576 -0.0720
18173TIP3    H175934   5.102   1.151   1.519  0.5411  0.0428  0.1046
18173TIP3    H275935   5.194   1.034   1.490  2.8742  2.2680 -1.7808
18174TIP3   OH275936   2.459   2.124   3.313  0.4160  0.1636  0.2115
18174TIP3    H175937   2.473   2.084   3.227  1.9154  0.1366  0.4484
18174TIP3    H275938   2.537   2.100   3.363 -0.6935 -0.2746  1.7517
18175TIP3   OH275939   1.028   2.769  15.727  0.0860  0.6401  0.6948
18175TIP3    H175940   0.959   2.834  15.714 -0.5239 -0.1262  0.0345
18175TIP3    H275941   1.018   2.708  15.654  1.8364  0.8303  0.2664
18176TIP3   OH275942   2.813   6.056  11.624 -0.2454  0.3878 -0.7820
18176TIP3    H175943   2.868   6.008  11.562 -0.6016 -0.6721 -0.2877
18176TIP3    H275944   2.746   5.993  11.650 -0.2160  0.8905  0.5226
18177TIP3   OH275945   5.100   1.845   0.724 -0.1887 -0.0492 -0.2947
18177TIP3    H175946   5.109   1.868   0.631  0.2064  0.9366 -0.0132
18177TIP3    H275947   5.177   1.882   0.765 -1.5245  1.5601  0.8249
18178TIP3   OH275948   6.534   4.100  12.632 -0.2883 -0.5608 -0.4992
18178TIP3    H175949   6.483   4.101  12.551  0.1927  0.0377 -0.7981
18178TIP3    H275950   6.615   4.147  12.610 -0.2839 -0.1372  0.4098
18179TIP3   OH275951   6.233   3.673  15.854 -0.1560  0.1503  0.2595
18179TIP3    H175952   6.139   3.669  15.834 -0.0699 -1.4628  0.0892
18179TIP3    H275953   6.276   3.647  15.772  0.3849 -0.8638  0.8557
18180TIP3   OH275954   2.077   6.248  16.293 -0.5188  0.1966  0.1956
18180TIP3    H175955   2.158   6.217  16.252 -0.4336  0.4363  0.1776
18180TIP3    H275956   2.011   6.244  16.224 -0.4387  0.3434  0.1116
18181TIP3   OH275957   0.869   5.088   3.094 -0.4266  0.5027  0.3620
18181TIP3    H175958   0.957   5.092   3.130  0.0321 -2.0254 -0.4061
18181TIP3    H275959   0.881   5.108   3.001 -0.5885 -0.2466  0.1754
18182TIP3   OH275960   6.271   3.723  17.129 -0.8389  0.6206  0.1612
18182TIP3    H175961   6.215   3.799  17.144  2.1110  2.7048  1.1494
18182TIP3    H275962   6.317   3.711  17.212 -0.1452 -1.3176 -0.4889
18183TIP3   OH275963   2.223   3.281  14.304  0.4314  0.6611  0.5049
18183TIP3    H175964   2.235   3.358  14.249  1.8418  0.5355  0.6160
18183TIP3    H275965   2.302   3.278  14.358 -0.5033  0.2540  1.8923
18184TIP3   OH275966   1.358   5.022   5.735  0.3839  0.0091  0.1069
18184TIP3    H175967   1.417   4.958   5.774 -0.1656 -0.4872  0.1322
18184TIP3    H275968   1.355   4.999   5.642 -1.3383 -1.2396  0.4392
18185TIP3   OH275969   6.734   0.253   1.067  0.1735  0.2790 -0.3867
18185TIP3    H175970   6.774   0.185   1.121  1.0451  0.6348 -0.5749
18185TIP3    H275971   6.807   0.292   1.019 -0.5752  0.1045 -1.6761
18186TIP3   OH275972   3.239   4.769   1.358 -0.3876  0.0039 -0.3763
18186TIP3    H175973   3.218   4.789   1.267 -0.5405 -1.0515 -0.5736
18186TIP3    H275974   3.159   4.792   1.406 -0.6870 -0.4745 -0.6460
18187TIP3   OH275975   5.694   3.276   1.215  0.6936 -0.5600 -0.1152
18187TIP3    H175976   5.600   3.287   1.203  0.6976 -0.2978  0.0908
18187TIP3    H275977   5.712   3.188   1.182  0.2938 -0.8059  0.3151
18188TIP3   OH275978   1.868   6.647  14.304 -0.6840 -0.1509 -0.8215
18188TIP3    H175979   1.815   6.586  14.252 -0.2134  1.1687 -2.9210
18188TIP3    H275980   1.919   6.695  14.239 -0.3762  1.8454  0.8567
18189TIP3   OH275981   5.824   1.196  13.013  0.2325  0.4128 -0.2262
18189TIP3    H175982   5.886   1.130  13.043 -1.8975 -1.8784 -0.7824
18189TIP3    H275983   5.778   1.224  13.092  0.8443  0.9345 -0.0531
18190TIP3   OH275984   2.431   3.055  16.242  0.5506  0.2004  0.5725
18190TIP3    H175985   2.460   3.004  16.317  0.3640  0.3677  0.7604
18190TIP3    H275986   2.355   3.104  16.274  2.5427  2.9389  1.3224
18191TIP3   OH275987   2.676   3.849   5.029  0.1536 -0.1049  0.5476
18191TIP3    H175988   2.636   3.933   5.009  0.7555  0.2349  0.7488
18191TIP3    H275989   2.717   3.862   5.115  1.1997 -0.2562  0.0787
18192TIP3   OH275990   2.011   2.102  15.388 -0.1463  0.1955  0.2093
18192TIP3    H175991   2.001   2.167  15.458  1.7800 -0.2238  0.9021
18192TIP3    H275992   2.053   2.027  15.430 -0.7273 -0.8154 -0.9758
18193TIP3   OH275993   2.849   3.379   1.974 -0.0046 -0.0793  0.1330
18193TIP3    H175994   2.808   3.463   1.996  0.3699  0.3611 -0.8233
18193TIP3    H275995   2.943   3.395   1.986  0.1811  0.0777 -1.4631
18194TIP3   OH275996   1.063   4.514  16.118 -0.1373  0.1619 -0.1962
18194TIP3    H175997   1.119   4.572  16.066  0.1936  0.5230  0.5559
18194TIP3    H275998   0.981   4.509  16.069 -0.1321  1.1890 -0.3254
18195TIP3   OH275999   2.516   4.302  13.278  0.0126 -0.2911 -0.2420
18195TIP3    H176000   2.572   4.291  13.355  3.0143 -0.3989 -2.3412
18195TIP3    H276001   2.521   4.396  13.259  2.7860 -0.8730 -2.7391
18196TIP3   OH276002   2.835   5.446   1.848 -0.1447  0.0222 -0.3461
18196TIP3    H176003   2.916   5.397   1.863  0.4982  1.3441  0.5505
18196TIP3    H276004   2.826   5.450   1.753  0.1897 -1.1739 -0.4345
18197TIP3   OH276005   6.341   2.424  17.239 -0.0085 -0.1412 -0.2224
18197TIP3    H176006   6.286   2.349  17.258  2.2588 -1.8172 -0.0980
18197TIP3    H276007   6.406   2.426  17.310  3.2453 -1.3335 -3.0124
18198TIP3   OH276008   5.273   5.850   2.134  0.1961  0.2425  0.1706
18198TIP3    H176009   5.253   5.759   2.157  1.6169 -0.2303 -0.4064
18198TIP3    H276010   5.367   5.858   2.150 -0.0991  1.9126  1.1805
18199TIP3   OH276011   1.858   2.902   4.631  0.0648 -0.3309 -0.7711
18199TIP3    H176012   1.832   2.811   4.645  1.6769 -0.5112  1.2758
18199TIP3    H276013   1.867   2.938   4.719  1.2426  1.2802 -1.5310
18200TIP3   OH276014   2.846   3.474   3.875  0.5716 -0.3646 -0.1075
18200TIP3    H176015   2.815   3.559   3.908  0.6737 -0.1700 -0.5110
18200TIP3    H276016   2.773   3.440   3.823  0.0675 -1.0846  1.0440
18201TIP3   OH276017   3.809   0.265   2.431  0.0035  0.1513 -0.3867
18201TIP3    H176018   3.785   0.236   2.343 -1.5735 -0.1502  0.1218
18201TIP3    H276019   3.758   0.345   2.445  1.3444  1.0070 -0.2838
18202TIP3   OH276020   0.319   4.601   5.712 -0.3951 -0.0291 -0.3738
18202TIP3    H176021   0.237   4.647   5.731 -1.0903 -1.1320 -0.6627
18202TIP3    H276022   0.362   4.592   5.797 -1.8431 -1.8129  0.2120
18203TIP3   OH276023   0.517   5.391  16.832  0.4144 -0.5527 -0.1421
18203TIP3    H176024   0.511   5.441  16.914  3.3986  2.5441 -1.6615
18203TIP3    H276025   0.557   5.308  16.857  0.1895 -0.1335  1.6967
18204TIP3   OH276026   0.649   1.526  17.032 -0.2920  0.4284 -0.5472
18204TIP3    H176027   0.624   1.586  17.103  2.1564  0.6719  0.1432
18204TIP3    H276028   0.591   1.451  17.044  0.5659  0.1422  2.1901
18205TIP3   OH276029   2.163   5.648  12.252  0.1619  0.3576  0.2927
18205TIP3    H176030   2.203   5.659  12.166  0.3929 -0.6130  0.2662
18205TIP3    H276031   2.112   5.567  12.244  0.2446  0.2203  1.0839
18206TIP3   OH276032   0.163   6.481   2.789  0.2668 -0.3978 -0.3285
18206TIP3    H176033   0.214   6.441   2.860  1.3521  0.6518 -0.5103
18206TIP3    H276034   0.146   6.570   2.819 -0.0367 -0.2216 -1.0114
18207TIP3   OH276035   6.365   4.031  13.832  0.3098  0.8997  0.1099
18207TIP3    H176036   6.291   4.064  13.782 -1.1166 -1.8862  0.2714
18207TIP3    H276037   6.441   4.048  13.777 -0.7794  1.2314 -1.3230
18208TIP3   OH276038   2.380   4.982   2.874  0.0108  0.7996 -0.2366
18208TIP3    H176039   2.425   5.062   2.850  0.2185  0.1878 -1.9639
18208TIP3    H276040   2.446   4.913   2.867 -0.4390  0.3229  0.1355
18209TIP3   OH276041   3.170   5.577  13.263  0.2327 -0.3398 -0.3553
18209TIP3    H176042   3.175   5.589  13.358 -1.1161 -2.3039  0.0019
18209TIP3    H276043   3.240   5.632  13.228  1.8308 -0.8689  1.8806
18210TIP3   OH276044   4.702   5.464  14.646 -0.0767 -0.0245 -0.1918
18210TIP3    H176045   4.745   5.546  14.623 -1.1133  0.7639  0.5889
18210TIP3    H276046   4.773   5.401  14.656  0.6258  0.3782 -2.3428
18211TIP3   OH276047   0.204   0.078   5.647  0.2103  0.0134  0.6210
18211TIP3    H176048   0.216   0.103   5.556 -1.3316  3.5407  1.3159
18211TIP3    H276049   0.293   0.059   5.678  1.1330  1.8456 -0.7732
18212TIP3   OH276050   6.646   2.005  16.633  0.6948  0.2602 -0.3654
18212TIP3    H176051   6.639   2.019  16.727 -0.0775  2.1884 -0.6894
18212TIP3    H276052   6.732   1.966  16.621  1.4755  1.5236  0.9809
18213TIP3   OH276053   6.753   3.888   5.501  0.4866 -0.2562 -0.0159
18213TIP3    H176054   6.814   3.834   5.449 -0.0348 -2.2910  1.4232
18213TIP3    H276055   6.765   3.859   5.591 -1.8044  0.0967  0.4472
18214TIP3   OH276056   1.238   1.590   4.991  0.3856  0.1239 -0.4647
18214TIP3    H176057   1.257   1.659   5.055 -1.8206  1.8493 -1.6214
18214TIP3    H276058   1.148   1.606   4.964 -0.1191 -3.1524 -0.8861
18215TIP3   OH276059   5.151   0.949   0.836 -0.0631  0.1214  0.1209
18215TIP3    H176060   5.228   0.993   0.871  0.2312  0.1725 -0.5824
18215TIP3    H276061   5.137   0.988   0.750  0.2536 -1.1990 -0.5542
18216TIP3   OH276062   1.665   3.431  15.335  0.2583 -0.1898 -0.4470
18216TIP3    H176063   1.672   3.347  15.381  0.2435 -1.0045 -1.9051
18216TIP3    H276064   1.692   3.496  15.400 -1.4978 -1.1343  1.2908
18217TIP3   OH276065   2.590   3.870  13.559  0.0543  0.0655 -0.0363
18217TIP3    H176066   2.515   3.929  13.549 -1.1204 -1.5454 -1.0744
18217TIP3    H276067   2.557   3.798  13.612  0.2828 -1.5602 -2.0190
18218TIP3   OH276068   1.153   4.437  13.456  0.6350  0.7498  0.3772
18218TIP3    H176069   1.080   4.436  13.517  0.2932  1.3416 -0.0173
18218TIP3    H276070   1.112   4.436  13.369  1.1171 -0.4209  0.1543
18219TIP3   OH276071   2.434   2.153   6.101  0.1948  0.6499 -0.3846
18219TIP3    H176072   2.396   2.067   6.121 -0.5014  0.9784 -0.2860
18219TIP3    H276073   2.399   2.211   6.169  0.5898  1.0367 -0.5091
18220TIP3   OH276074   3.276   5.505   3.271  0.0672  0.2180  0.1130
18220TIP3    H176075   3.235   5.475   3.190  1.3511  0.4022 -0.6264
18220TIP3    H276076   3.293   5.598   3.257 -1.7833  0.7842  1.4945
18221TIP3   OH276077   4.640   2.672  16.875 -0.9993  0.5801  0.2413
18221TIP3    H176078   4.682   2.742  16.926 -0.0049  0.3177 -0.2089
18221TIP3    H276079   4.547   2.693  16.879 -0.6570  2.4070 -0.5659
18222TIP3   OH276080   2.738   5.769  13.955  0.0067  0.3630 -0.7653
18222TIP3    H176081   2.679   5.817  14.014 -0.0577 -1.1703  0.4501
18222TIP3    H276082   2.821   5.815  13.961 -0.4056  1.1040 -0.6359
18223TIP3   OH276083   5.781   3.234   4.546 -0.2971  0.3673  0.1854
18223TIP3    H176084   5.731   3.253   4.625 -0.0796  1.8326 -0.0164
18223TIP3    H276085   5.813   3.319   4.517  0.6246 -0.3104 -0.8152
18224TIP3   OH276086   3.978   0.192   3.415  0.4864  0.3171 -0.4526
18224TIP3    H176087   3.903   0.200   3.355  1.5563  0.2196 -1.8385
18224TIP3    H276088   4.021   0.112   3.387  0.3323 -0.3839  1.2592
18225TIP3   OH276089   6.760   4.165   4.825  0.0950 -0.1566  0.3606
18225TIP3    H176090   6.795   4.254   4.831 -0.6815  0.3933 -2.6363
18225TIP3    H276091   6.667   4.177   4.807 -0.0618 -1.5978  0.1394
18226TIP3   OH276092   4.203   0.347   3.624  0.1255 -0.3888  0.2792
18226TIP3    H176093   4.200   0.257   3.657 -3.6628 -0.4709 -0.0617
18226TIP3    H276094   4.245   0.341   3.538 -1.0956 -2.0055 -0.2132
18227TIP3   OH276095   4.285   1.278  16.877 -0.3507  0.2803 -0.2439
18227TIP3    H176096   4.300   1.362  16.833  0.4169 -0.3830 -1.2610
18227TIP3    H276097   4.364   1.227  16.860 -0.6384 -0.4987  0.7309
18228TIP3   OH276098   1.939   0.399   0.246 -0.2179  0.2876  0.5974
18228TIP3    H176099   1.948   0.310   0.279  0.6832  0.5570  1.0878
18228TIP3    H276100   2.020   0.443   0.272 -0.8955  1.4111  0.8503
18229TIP3   OH276101   3.730   6.726   4.778  0.3097  0.5443  0.5662
18229TIP3    H176102   3.712   6.817   4.802  0.9765  0.6468  0.6694
18229TIP3    H276103   3.801   6.731   4.714  0.2050  0.1082  0.4126
18230TIP3   OH276104   5.967   1.691  12.464  1.1106  0.1079 -0.0247
18230TIP3    H176105   6.017   1.769  12.439 -1.2580  1.5486 -0.4262
18230TIP3    H276106   5.918   1.668  12.386 -2.1510  1.3556  1.5391
18231TIP3   OH276107   5.092   5.873   1.351  0.1965 -0.2540  0.3973
18231TIP3    H176108   5.041   5.912   1.422  0.2316 -0.8274  0.7413
18231TIP3    H276109   5.159   5.821   1.395  1.0763  0.4749 -0.0554
18232TIP3   OH276110   2.520   6.239  16.672 -0.3873 -0.2397 -0.3801
18232TIP3    H176111   2.430   6.205  16.670 -0.9237  0.9965  1.3818
18232TIP3    H276112   2.522   6.304  16.602 -1.0923  0.2499  0.0475
18233TIP3   OH276113   6.474   6.066   4.782  0.3620  0.1959 -0.6284
18233TIP3    H176114   6.537   6.137   4.774  0.2822  0.4186  0.5611
18233TIP3    H276115   6.405   6.087   4.719 -1.1822  2.8176  1.8319
18234TIP3   OH276116   1.906   3.225  14.107  0.0082 -0.2968  0.1737
18234TIP3    H176117   1.907   3.265  14.020  2.6860  1.0389  0.7578
18234TIP3    H276118   1.873   3.295  14.164 -1.2755 -1.0092  0.3187
18235TIP3   OH276119   5.481   6.191  12.585 -0.5036  0.3260 -0.0700
18235TIP3    H176120   5.518   6.119  12.532  0.3222 -0.3591  1.4149
18235TIP3    H276121   5.535   6.192  12.664 -1.1562  1.9494  0.3556
18236TIP3   OH276122   3.879   5.426   4.767 -0.1891  0.1344  0.2770
18236TIP3    H176123   3.799   5.461   4.807 -0.2798 -1.3500  1.4024
18236TIP3    H276124   3.852   5.397   4.680 -1.1585 -1.5287  1.1256
18237TIP3   OH276125   2.534   4.977   1.569 -0.2181 -0.2602 -0.1006
18237TIP3    H176126   2.553   5.070   1.582  0.3312 -0.2833 -0.6723
18237TIP3    H276127   2.446   4.975   1.532  0.4715  0.1523 -1.8089
18238TIP3   OH276128   0.145   6.057   1.025  0.5099 -0.1339  0.0025
18238TIP3    H176129   0.163   5.963   1.028  1.2091  0.0244  2.1954
18238TIP3    H276130   0.049   6.063   1.018  0.5601 -0.9866 -1.5837
18239TIP3   OH276131   1.059   2.879   3.877  0.2580 -0.1855 -0.3363
18239TIP3    H176132   0.986   2.933   3.905  1.4528  0.9103  0.7646
18239TIP3    H276133   1.063   2.809   3.942  0.7325  0.2616  0.1205
18240TIP3   OH276134   5.232   1.045  14.408  0.8752 -0.2578 -0.4131
18240TIP3    H176135   5.220   1.033  14.502 -0.4571  1.1251 -0.3704
18240TIP3    H276136   5.196   0.966  14.368 -1.0640  0.3154  0.1373
18241TIP3   OH276137   2.330   4.462  16.438  0.0951 -0.3857  0.1613
18241TIP3    H176138   2.388   4.534  16.413 -1.1493  0.4771 -0.3419
18241TIP3    H276139   2.337   4.458  16.534  0.5176  0.1197  0.1530
18242TIP3   OH276140   5.589   1.293   3.826  0.3857 -0.0374  0.3807
18242TIP3    H176141   5.612   1.247   3.745  1.7716 -0.9221  1.2469
18242TIP3    H276142   5.582   1.224   3.891 -2.0960  0.5182  0.7512
18243TIP3   OH276143   1.504   4.251  13.000  0.5040  0.2841  0.0805
18243TIP3    H176144   1.515   4.156  13.000  0.6603  0.2963  0.5100
18243TIP3    H276145   1.432   4.267  13.061 -1.6445  0.2498 -2.3545
18244TIP3   OH276146   0.528   0.081   5.371 -0.5474 -0.6208 -0.0048
18244TIP3    H176147   0.608   0.113   5.413 -1.2527  0.8222  0.2793
18244TIP3    H276148   0.552  -0.005   5.336  0.2707 -1.5129  2.6589
18245TIP3   OH276149   4.367   5.586  16.144 -0.0689 -0.3071 -0.3588
18245TIP3    H176150   4.389   5.642  16.219  0.6168 -0.9552 -0.0677
18245TIP3    H276151   4.451   5.547  16.118 -0.6995 -2.0449  0.1297
18246TIP3   OH276152   2.360   2.428  14.358 -0.1528 -0.0721 -0.0396
18246TIP3    H176153   2.354   2.333  14.369  1.2298 -0.0439  1.0740
18246TIP3    H276154   2.415   2.457  14.430  1.6607  1.2579 -1.8906
18247TIP3   OH276155   0.543   0.128  13.167 -0.0301 -0.2505 -0.6564
18247TIP3    H176156   0.557   0.033  13.161 -0.3704 -0.2008 -2.2939
18247TIP3    H276157   0.625   0.166  13.137 -0.3044 -0.0177 -1.1102
18248TIP3   OH276158   0.831   3.778   2.803  0.0018 -0.1002 -0.2836
18248TIP3    H176159   0.767   3.815   2.741  0.4899  2.5635  0.7049
18248TIP3    H276160   0.782   3.711   2.851 -1.5298  0.6089 -0.8161
18249TIP3   OH276161   5.588   4.036  15.584 -0.1933  0.9372  0.2668
18249TIP3    H176162   5.502   4.045  15.625 -0.7330  0.3274 -0.7203
18249TIP3    H276163   5.641   4.104  15.625 -0.7301  0.3868  1.9313
18250TIP3   OH276164   0.753   3.575   4.345  0.4333  0.0742 -0.3467
18250TIP3    H176165   0.749   3.643   4.413 -1.2631 -1.6527  1.3342
18250TIP3    H276166   0.843   3.542   4.351  1.1015  1.7550 -0.7936
18251TIP3   OH276167   5.226   1.046   3.180 -0.1870 -0.3163 -0.3908
18251TIP3    H176168   5.149   1.004   3.218  0.6439  0.3454  2.1137
18251TIP3    H276169   5.300   0.995   3.212  0.6562  1.3712  0.4697
18252TIP3   OH276170   4.010   0.603   3.315  0.0607  0.1177 -0.2493
18252TIP3    H176171   3.935   0.567   3.361 -0.1153  0.9543  0.1249
18252TIP3    H276172   3.981   0.689   3.284  0.9180  0.5323  0.0734
18253TIP3   OH276173   4.374   0.198  11.518 -0.1674 -0.1310 -0.0482
18253TIP3    H176174   4.315   0.269  11.544 -1.4105 -0.4067 -2.0504
18253TIP3    H276175   4.462   0.236  11.525 -0.6877  0.8996  1.0361
18254TIP3   OH276176   3.592   5.713  10.943 -0.3490 -0.4629  0.1128
18254TIP3    H176177   3.509   5.759  10.928 -0.2756  0.2613  1.8543
18254TIP3    H276178   3.616   5.678  10.857 -0.9118  1.9290 -1.0556
18255TIP3   OH276179   4.419   6.119  15.779 -0.6315 -0.0546  0.0578
18255TIP3    H176180   4.388   6.031  15.800 -1.7985  0.5307  0.8828
18255TIP3    H276181   4.434   6.117  15.685  2.2979 -2.0125  0.5014
18256TIP3   OH276182   4.608   6.451  12.580  0.1454 -0.0776 -0.4119
18256TIP3    H176183   4.658   6.473  12.659  0.9782 -1.1117 -0.6332
18256TIP3    H276184   4.647   6.505  12.512  1.1299 -1.0226 -0.6243
18257TIP3   OH276185   1.137   2.548   5.667 -0.7315  0.2088  0.3173
18257TIP3    H176186   1.042   2.552   5.664 -0.8105  1.1426  2.6217
18257TIP3    H276187   1.157   2.472   5.721 -0.1685 -0.0037 -0.1799
18258TIP3   OH276188   3.761   6.615  15.311 -0.8025  0.6954  0.3380
18258TIP3    H176189   3.842   6.583  15.271 -2.1726 -2.8272  0.2180
18258TIP3    H276190   3.765   6.584  15.401 -3.3487 -2.2439 -0.4801
18259TIP3   OH276191   6.412   1.205  14.324 -0.5219  0.1255  0.2455
18259TIP3    H176192   6.427   1.266  14.251 -0.6681  1.0241  0.9539
18259TIP3    H276193   6.338   1.243  14.372  1.3370  1.0732  2.4596
18260TIP3   OH276194   5.155   1.957  11.386  0.3285 -0.0961 -0.1909
18260TIP3    H176195   5.072   2.006  11.379 -0.7062 -1.7057  0.6414
18260TIP3    H276196   5.214   2.017  11.431 -0.3703  1.0864 -0.8086
18261TIP3   OH276197   4.865   1.536   2.155  0.3615  0.4955 -0.3392
18261TIP3    H176198   4.915   1.617   2.143  0.1609  1.0215  2.1187
18261TIP3    H276199   4.932   1.467   2.160  0.7889  1.0244  1.5359
18262TIP3   OH276200   4.539   5.276   3.614  0.0354 -0.0072 -0.3155
18262TIP3    H176201   4.613   5.217   3.611 -0.4017 -0.5098 -1.1278
18262TIP3    H276202   4.565   5.351   3.560  0.2836  0.1978  0.0865
18263TIP3   OH276203   2.564   5.306   5.911  0.4009 -1.0294 -0.3972
18263TIP3    H176204   2.632   5.248   5.945  0.2143 -0.8922  0.2048
18263TIP3    H276205   2.576   5.388   5.958 -0.6659 -1.2495  0.2787
18264TIP3   OH276206   4.719   1.447   6.284 -0.0942  0.6100  0.3257
18264TIP3    H176207   4.744   1.534   6.316 -0.5703  0.3964  1.2863
18264TIP3    H276208   4.623   1.449   6.285 -0.1044 -0.1408  0.9257
18265TIP3   OH276209   0.904   6.407  11.872 -0.4796 -0.0111  0.0762
18265TIP3    H176210   0.827   6.418  11.928 -2.5285 -2.5405 -2.0953
18265TIP3    H276211   0.876   6.442  11.787  1.0673 -0.1616 -0.4974
18266TIP3   OH276212   0.281   5.740   3.956 -0.0226  0.1372  0.1618
18266TIP3    H176213   0.338   5.682   4.006  1.0577  0.4847 -0.6354
18266TIP3    H276214   0.337   5.773   3.885 -1.0674  0.9019 -0.3214
18267TIP3   OH276215   2.298   2.873   1.554  0.1725  0.2446 -0.5934
18267TIP3    H176216   2.309   2.937   1.625 -0.8449 -1.0735  0.7762
18267TIP3    H276217   2.259   2.924   1.482 -1.6865  0.9576  0.8785
18268TIP3   OH276218   1.017   5.841  10.826 -0.0207  0.4020 -0.2436
18268TIP3    H176219   0.971   5.769  10.783  0.2584  1.0955 -1.7201
18268TIP3    H276220   1.095   5.856  10.773  0.5407  1.0026  0.7329
18269TIP3   OH276221   3.193   4.306  10.650  0.1746  0.2469 -0.1179
18269TIP3    H176222   3.101   4.287  10.632  0.3594 -0.0164 -0.8015
18269TIP3    H276223   3.224   4.230  10.699  0.0284  0.3366  0.1144
18270TIP3   OH276224   4.428   4.703  14.394 -0.1802  0.7200 -0.1440
18270TIP3    H176225   4.450   4.622  14.348  1.9111  1.6399 -0.8334
18270TIP3    H276226   4.486   4.769  14.356 -0.5361  2.1520  1.6987
18271TIP3   OH276227   3.222   3.026  16.712 -1.0495  0.6975 -0.0233
18271TIP3    H176228   3.147   2.967  16.721 -0.5112  0.4216  3.2323
18271TIP3    H276229   3.271   2.990  16.637 -2.8248 -0.5812 -0.6142
18272TIP3   OH276230   5.738   4.879  10.211 -0.4594 -0.0924 -0.1927
18272TIP3    H176231   5.651   4.901  10.177  0.3491 -0.1217 -2.3944
18272TIP3    H276232   5.741   4.783  10.206 -0.3481 -0.0950 -0.0462
18273TIP3   OH276233   0.600   5.996   5.104 -0.0629  0.4627 -0.8945
18273TIP3    H176234   0.603   5.917   5.050  4.2654 -0.4756  0.5248
18273TIP3    H276235   0.651   6.060   5.055 -0.8359  1.4073 -0.4904
18274TIP3   OH276236   3.999   2.820  14.401 -0.2032 -0.6729 -0.1876
18274TIP3    H176237   3.936   2.747  14.397  0.3613 -1.1611 -0.2388
18274TIP3    H276238   4.042   2.809  14.486 -0.4571 -0.1120  0.0139
18275TIP3   OH276239   0.442   4.505   4.152 -0.4137 -0.0958  0.6292
18275TIP3    H176240   0.416   4.458   4.073  1.5313  0.8475 -0.6068
18275TIP3    H276241   0.492   4.442   4.203  1.9077  0.4857 -0.8702
18276TIP3   OH276242   0.791   1.230  12.770 -0.2098 -0.2880  0.1319
18276TIP3    H176243   0.721   1.226  12.705  0.5297  0.7393 -0.7514
18276TIP3    H276244   0.867   1.192  12.726  1.1363  3.2418 -0.7689
18277TIP3   OH276245   5.452   6.004   2.376 -0.1607 -0.0200  0.3756
18277TIP3    H176246   5.485   5.959   2.454  0.9400 -1.7837 -1.0654
18277TIP3    H276247   5.358   6.013   2.391 -0.0831 -1.0809  1.5489
18278TIP3   OH276248   5.158   0.256   5.228 -0.3287 -0.9447  0.2344
18278TIP3    H176249   5.204   0.327   5.272 -3.1473  0.1695  1.4805
18278TIP3    H276250   5.155   0.186   5.293  1.2899 -1.7722 -0.5417
18279TIP3   OH276251   6.222   1.407  15.105  0.4721  0.2848  0.2751
18279TIP3    H176252   6.253   1.496  15.088  0.3350  0.4200  0.7252
18279TIP3    H276253   6.298   1.352  15.088  0.3678  0.4306 -0.6494
18280TIP3   OH276254   0.649   3.571   2.905 -0.2208 -0.0277  0.3031
18280TIP3    H176255   0.715   3.528   2.851 -1.4182 -0.4728 -0.8321
18280TIP3    H276256   0.587   3.502   2.926 -1.1074  0.7077  0.1166
18281TIP3   OH276257   4.558   5.054  13.430  0.1419  0.0797 -0.2637
18281TIP3    H176258   4.569   4.960  13.445  2.5458  0.5970  1.5851
18281TIP3    H276259   4.469   5.072  13.460 -0.1483 -1.5082 -0.1109
18282TIP3   OH276260   0.784   3.856  12.790  0.0530 -0.0259 -0.3200
18282TIP3    H176261   0.877   3.840  12.773  0.0065  0.9922 -1.5894
18282TIP3    H276262   0.777   3.951  12.799 -0.7556 -0.1611  0.5003
18283TIP3   OH276263   3.209   3.554   4.065 -0.0065 -0.4761 -0.2358
18283TIP3    H176264   3.158   3.477   4.040  0.5298 -1.1399  0.6681
18283TIP3    H276265   3.152   3.601   4.126  0.5076 -1.2865  0.8770
18284TIP3   OH276266   4.427   4.793   4.377  0.0919  0.0836  0.5554
18284TIP3    H176267   4.405   4.861   4.441  0.6343  2.7262 -1.9414
18284TIP3    H276268   4.355   4.795   4.314 -1.2474 -3.5984  1.8511
18285TIP3   OH276269   6.243   3.554  13.599 -0.1696  0.5267 -0.4040
18285TIP3    H176270   6.331   3.557  13.638 -0.9421  0.0204  1.4190
18285TIP3    H276271   6.213   3.644  13.602 -0.7045  0.3170  1.3657
18286TIP3   OH276272   1.972   3.168  14.941  0.0541  0.1723 -0.3530
18286TIP3    H176273   1.956   3.175  15.035 -1.2234 -1.3235 -0.4477
18286TIP3    H276274   2.057   3.210  14.928  0.7267 -0.5388  1.6152
18287TIP3   OH276275   6.502   6.676   4.729 -0.2690 -0.6337 -0.2266
18287TIP3    H176276   6.453   6.662   4.648 -1.1785  1.4468 -0.0920
18287TIP3    H276277   6.569   6.740   4.706  1.7786 -2.7193 -0.1601
18288TIP3   OH276278   4.130   6.330   3.483  0.4481 -0.5956  0.2430
18288TIP3    H176279   4.040   6.345   3.456  0.1724 -0.4348  1.2506
18288TIP3    H276280   4.165   6.268   3.419 -0.5575 -1.1347  0.2201
18289TIP3   OH276281   1.660   1.221   0.706 -0.3292  0.2262  0.2658
18289TIP3    H176282   1.682   1.226   0.613 -1.5707 -0.6020 -0.0887
18289TIP3    H276283   1.599   1.292   0.721 -1.0869 -0.3966  0.1613
18290TIP3   OH276284   4.467   2.089   2.681  0.5348 -0.4294 -0.1700
18290TIP3    H176285   4.547   2.141   2.675  0.4967 -0.6025 -2.4225
18290TIP3    H276286   4.497   1.998   2.680  0.3333 -0.4927 -0.9047
18291TIP3   OH276287   0.014   0.073   0.772  0.3077  0.8198  0.5452
18291TIP3    H176288   0.013   0.133   0.697  1.6595  1.1924  0.8139
18291TIP3    H276289   0.088   0.102   0.825 -0.5952  0.5105  2.0005
18292TIP3   OH276290   4.816   6.634  16.324 -0.3555  0.3872 -0.2843
18292TIP3    H176291   4.758   6.600  16.392 -1.1118 -0.0550 -1.1318
18292TIP3    H276292   4.905   6.617  16.356 -0.6815  1.3823  1.1831
18293TIP3   OH276293   4.589   3.692   1.169 -0.5918  0.4064  0.1350
18293TIP3    H176294   4.650   3.679   1.096 -0.1921 -0.3457  0.5972
18293TIP3    H276295   4.508   3.721   1.127 -0.4582 -0.3158 -0.6458
18294TIP3   OH276296   3.804   1.724   4.094 -0.0710 -0.3200 -0.3980
18294TIP3    H176297   3.748   1.673   4.152 -1.9863  1.7935 -0.2946
18294TIP3    H276298   3.762   1.718   4.009 -0.6512  1.4695 -0.2729
18295TIP3   OH276299   3.432   1.857  13.326  0.2697 -0.3256  0.5565
18295TIP3    H176300   3.436   1.952  13.338 -0.0229 -0.3476  0.8270
18295TIP3    H276301   3.345   1.841  13.289 -0.0027 -0.5758  1.3123
18296TIP3   OH276302   3.050   6.072  11.465 -0.7002 -0.1167 -0.4800
18296TIP3    H176303   3.016   6.123  11.391 -1.3063 -1.0246 -0.8298
18296TIP3    H276304   2.991   5.997  11.473  1.0479 -1.5831 -0.9158
18297TIP3   OH276305   1.629   2.219   6.322 -0.0540 -0.3383  0.4737
18297TIP3    H176306   1.545   2.255   6.350  2.2657  4.0324  2.3782
18297TIP3    H276307   1.660   2.169   6.398  0.0848  0.0164  0.6535
18298TIP3   OH276308   2.232   5.296   2.202 -0.1886  0.3463  0.0637
18298TIP3    H176309   2.247   5.338   2.287  1.1104  1.2564 -0.6162
18298TIP3    H276310   2.137   5.280   2.200 -0.2681  0.5791  1.5585
18299TIP3   OH276311   1.216   0.038   4.589 -0.8424  0.6593 -0.1393
18299TIP3    H176312   1.206   0.051   4.684  0.3625 -1.3643  0.3018
18299TIP3    H276313   1.127   0.037   4.556 -1.2389  2.7175  0.7608
18300TIP3   OH276314   0.392   2.508  12.866 -0.3795  0.2264 -0.3301
18300TIP3    H176315   0.344   2.508  12.949 -0.2584  0.3046 -0.2604
18300TIP3    H276316   0.473   2.461  12.884 -1.2299 -1.5062 -0.9191
18301TIP3   OH276317   3.583   2.197   1.588  0.5066 -0.1877 -0.0601
18301TIP3    H176318   3.649   2.263   1.612 -1.5058  1.2680  1.7064
18301TIP3    H276319   3.567   2.148   1.668 -2.3039  1.0880  0.2231
18302TIP3   OH276320   6.084   4.623  12.405 -1.0470 -0.2508  0.4423
18302TIP3    H176321   6.038   4.623  12.321  0.2322  0.7767 -0.2641
18302TIP3    H276322   6.053   4.702  12.449 -1.0284 -0.3169  0.5765
18303TIP3   OH276323   1.387   2.962   4.140  0.4915 -0.6382  0.3132
18303TIP3    H176324   1.430   2.984   4.057 -2.0640  1.9210 -0.4135
18303TIP3    H276325   1.405   3.036   4.197 -0.7709 -0.7037  0.8162
18304TIP3   OH276326   0.469   3.871   1.269 -0.1215  0.0488 -0.6186
18304TIP3    H176327   0.446   3.795   1.215  1.5180  1.0944 -2.8625
18304TIP3    H276328   0.559   3.855   1.297 -0.1552  0.6413 -0.1622
18305TIP3   OH276329   6.692   1.016   5.326  0.2255  0.2369  0.1476
18305TIP3    H176330   6.633   0.940   5.330  1.8206 -0.9740  1.6982
18305TIP3    H276331   6.780   0.977   5.320  1.0016  1.9892 -0.0188
18306TIP3   OH276332   3.083   0.657   5.326  0.4593 -0.1861  0.3310
18306TIP3    H176333   3.159   0.714   5.313  1.3803 -1.4840 -0.0462
18306TIP3    H276334   3.035   0.663   5.243  0.5395  0.0603  0.3015
18307TIP3   OH276335   3.911   3.346  16.588 -0.1164  0.0824 -1.2866
18307TIP3    H176336   3.823   3.382  16.598 -0.3427 -0.7513 -0.1801
18307TIP3    H276337   3.968   3.409  16.631 -0.4589 -0.5777  0.1906
18308TIP3   OH276338   3.869   1.934  10.781 -0.1509 -0.4396 -0.4574
18308TIP3    H176339   3.843   2.022  10.808  0.2319 -1.2202  2.6088
18308TIP3    H276340   3.926   1.948  10.705  0.4616  2.0050  0.4120
18309TIP3   OH276341   5.331   3.130   5.386  0.5995  0.2423  0.1807
18309TIP3    H176342   5.408   3.090   5.346 -0.8289 -0.8433 -1.5529
18309TIP3    H276343   5.352   3.224   5.390  0.8034  0.3980 -3.1461
18310TIP3   OH276344   1.761   0.018   1.639  0.0798  0.2651  0.1868
18310TIP3    H176345   1.687   0.062   1.681 -0.5602 -0.1195 -0.5104
18310TIP3    H276346   1.836   0.075   1.656  0.4171 -1.2321  4.1736
18311TIP3   OH276347   5.191   6.782  16.077  0.0199 -0.4040 -0.1981
18311TIP3    H176348   5.138   6.788  15.997 -0.5705  1.9812  0.3489
18311TIP3    H276349   5.163   6.701  16.118 -0.4675 -1.1019 -1.8533
18312TIP3   OH276350   4.512   2.430   2.826 -0.4399 -0.9302  0.7387
18312TIP3    H176351   4.453   2.363   2.860 -1.0479 -0.5329  0.4893
18312TIP3    H276352   4.520   2.410   2.732 -0.3105 -0.8838  0.7392
18313TIP3   OH276353   6.518   4.402  12.748  0.1020  0.0630  0.0582
18313TIP3    H176354   6.465   4.355  12.812  0.3177 -0.3906 -0.0954
18313TIP3    H276355   6.455   4.457  12.701 -0.0255  0.5359  0.7818
18314TIP3   OH276356   6.354   4.210  15.655 -0.2453  0.2883  0.0702
18314TIP3    H176357   6.358   4.193  15.561 -0.7589  2.3140 -0.3478
18314TIP3    H276358   6.444   4.230  15.680  0.1939 -1.9758  0.3771
18315TIP3   OH276359   2.375   6.755  10.584 -0.1940  0.0796 -0.1120
18315TIP3    H176360   2.466   6.752  10.614 -0.3707  1.4786  0.5926
18315TIP3    H276361   2.328   6.696  10.644 -0.0227  0.5850  0.5263
18316TIP3   OH276362   0.468   0.286   0.335 -0.1026 -0.1652 -0.2390
18316TIP3    H176363   0.440   0.377   0.320  1.6975  0.0474 -2.7596
18316TIP3    H276364   0.563   0.293   0.349  0.0444 -1.6682 -0.4672
18317TIP3   OH276365   0.011   4.701   4.876 -0.3297  0.3388  0.3453
18317TIP3    H176366   0.077   4.764   4.905 -0.9728  1.0964  0.1830
18317TIP3    H276367   0.062   4.631   4.835  0.2912  1.6892 -1.2540
18318TIP3   OH276368   5.088   1.786  16.490 -0.4621  0.3385  0.4911
18318TIP3    H176369   5.182   1.771  16.500 -0.1573  0.9731 -1.1703
18318TIP3    H276370   5.077   1.881  16.499 -0.6192  0.5305 -1.4056
18319TIP3   OH276371   0.505   1.289   0.070 -0.1093  0.3336  0.1862
18319TIP3    H176372   0.485   1.360   0.009 -0.3020  0.4022  0.3252
18319TIP3    H276373   0.555   1.332   0.140  1.6171 -0.0752 -0.7738
18320TIP3   OH276374   3.303   2.228   1.560 -0.0144 -0.1941  0.6269
18320TIP3    H176375   3.395   2.248   1.578  0.4440 -1.1165 -0.6326
18320TIP3    H276376   3.266   2.203   1.644  1.2403 -1.2030  0.8799
18321TIP3   OH276377   3.089   4.855  12.165  0.1272  0.1522 -0.2394
18321TIP3    H176378   3.087   4.876  12.072 -0.6257  1.4186  0.0397
18321TIP3    H276379   3.069   4.938  12.209  1.4645 -0.2062  1.0906
18322TIP3   OH276380   4.596   1.728   6.004  0.7253 -0.2940  0.1749
18322TIP3    H176381   4.561   1.788   5.939  0.8698  0.1525  0.5092
18322TIP3    H276382   4.543   1.744   6.082  1.3499  0.0342  0.5354
18323TIP3   OH276383   2.263   4.863  17.098  0.0726 -0.3919  0.1581
18323TIP3    H176384   2.289   4.940  17.047  2.6173 -0.9419  0.5320
18323TIP3    H276385   2.197   4.820  17.044 -1.8025  2.2941  0.1894
18324TIP3   OH276386   5.348   2.174   6.554  0.8277 -0.2642  0.0379
18324TIP3    H176387   5.302   2.185   6.637  3.2199  0.1811  1.3345
18324TIP3    H276388   5.321   2.088   6.523 -0.7316 -0.0865  0.8443
18325TIP3   OH276389   3.338   0.659   2.218  0.0581  0.5552  0.0002
18325TIP3    H176390   3.343   0.735   2.277 -0.2169  1.4745 -1.1329
18325TIP3    H276391   3.299   0.694   2.138 -1.3567 -1.0834 -0.0642
18326TIP3   OH276392   4.128   4.541   4.508 -0.2374  0.2248 -0.1418
18326TIP3    H176393   4.083   4.492   4.438 -1.9261  1.3505  0.1221
18326TIP3    H276394   4.216   4.557   4.474 -0.1295 -1.6751 -0.8462
18327TIP3   OH276395   1.225   1.486  12.221 -0.0473  0.3865 -0.0649
18327TIP3    H176396   1.301   1.534  12.254 -0.3307  1.4919 -0.9802
18327TIP3    H276397   1.150   1.533  12.258 -0.2858 -1.3799  1.7653
18328TIP3   OH276398   6.550   1.876  12.198 -1.0021  0.3689 -0.1553
18328TIP3    H176399   6.583   1.874  12.288  0.5133  0.1891 -0.6999
18328TIP3    H276400   6.537   1.968  12.179 -1.3506  0.4059  0.2576
18329TIP3   OH276401   2.045   6.578  14.599 -0.3301 -0.0787 -1.1583
18329TIP3    H176402   2.023   6.498  14.551 -2.4941  0.9086 -1.8968
18329TIP3    H276403   1.965   6.600  14.647  1.7502 -1.0012  2.9587
18330TIP3   OH276404   1.857   2.607   3.778  0.0552  0.4856 -0.3005
18330TIP3    H176405   1.886   2.561   3.699 -0.2543 -0.1906 -0.0283
18330TIP3    H276406   1.928   2.669   3.797  1.0144 -0.6599 -0.0375
18331TIP3   OH276407   3.255   2.201  16.217  0.6223  0.4326  0.3149
18331TIP3    H176408   3.214   2.284  16.196 -0.9649 -0.4572 -0.1952
18331TIP3    H276409   3.297   2.173  16.136  1.0602  0.6851  0.4583
18332TIP3   OH276410   1.935   2.825  16.314  0.0608  0.2551 -1.3443
18332TIP3    H176411   1.944   2.904  16.262  0.9377  0.1050 -1.4250
18332TIP3    H276412   1.991   2.840  16.390 -2.2879  1.0625  0.2834
18333TIP3   OH276413   6.186   5.837  16.793  0.5870  0.0647  0.0340
18333TIP3    H176414   6.104   5.822  16.746 -0.9588 -0.2304  2.7160
18333TIP3    H276415   6.172   5.918  16.842  2.0442  0.2420  0.1781
18334TIP3   OH276416   4.196   5.459  15.480 -0.5300  0.4159  0.5190
18334TIP3    H176417   4.251   5.407  15.540 -1.6045 -1.1916  0.1553
18334TIP3    H276418   4.195   5.546  15.518  1.2680  0.1673  1.2087
18335TIP3   OH276419   4.406   6.193   2.964  0.4076 -0.3046  0.4640
18335TIP3    H176420   4.427   6.275   2.919 -0.5965 -1.3197 -1.8961
18335TIP3    H276421   4.352   6.144   2.903  0.6522 -2.5914  1.9954
18336TIP3   OH276422   2.349   0.036  15.381 -0.4319 -0.2164 -0.7452
18336TIP3    H176423   2.256   0.033  15.359 -0.4161 -0.2495 -0.8074
18336TIP3    H276424   2.362  -0.036  15.442 -0.7657  0.7330  0.4507
18337TIP3   OH276425   6.454   1.353  16.311 -0.0516  0.4839 -0.4576
18337TIP3    H176426   6.443   1.434  16.260  1.0073  0.6443 -0.4466
18337TIP3    H276427   6.373   1.304  16.297 -2.2911  3.1592  2.4946
18338TIP3   OH276428   2.500   2.803  14.315  0.1385 -0.2536  0.4907
18338TIP3    H176429   2.443   2.819  14.240 -0.5821 -0.0529  1.0738
18338TIP3    H276430   2.558   2.732  14.287 -0.3399 -0.3989 -0.1319
18339TIP3   OH276431   2.144   3.614  14.328  0.0162 -0.3081 -0.8375
18339TIP3    H176432   2.228   3.650  14.356 -0.0815 -1.1141  0.5306
18339TIP3    H276433   2.166   3.553  14.258  0.8422 -2.2860  1.0959
18340TIP3   OH276434   5.897   4.852   1.953  0.2855  0.2177 -0.1774
18340TIP3    H176435   5.889   4.761   1.925  1.6095  0.2423 -0.6708
18340TIP3    H276436   5.983   4.879   1.921  1.0006  0.8426  2.1812
18341TIP3   OH276437   5.067   6.443  15.476 -0.3373 -0.3611 -0.6653
18341TIP3    H176438   5.037   6.370  15.531 -1.9387 -0.1225 -1.1979
18341TIP3    H276439   4.995   6.506  15.478 -0.1095 -0.0081 -2.4044
18342TIP3   OH276440   0.417   1.682   5.487  0.4055 -0.6572  0.5025
18342TIP3    H176441   0.504   1.645   5.476  0.3745 -0.8961  1.0459
18342TIP3    H276442   0.363   1.608   5.516  0.0420 -0.4967  0.2357
18343TIP3   OH276443   5.135   4.461  11.185  0.0071  0.1325  0.2751
18343TIP3    H176444   5.044   4.440  11.165 -0.4416  1.6063  0.7109
18343TIP3    H276445   5.174   4.378  11.213 -0.7005 -0.9046 -1.7047
18344TIP3   OH276446   5.441   4.422   2.553 -0.5047 -0.3656  0.0866
18344TIP3    H176447   5.475   4.469   2.629  2.0101  0.8221 -1.7054
18344TIP3    H276448   5.377   4.482   2.515  0.2464  0.2181 -0.2771
18345TIP3   OH276449   0.170   2.209   4.226 -0.6431 -0.1347 -0.4518
18345TIP3    H176450   0.209   2.256   4.152 -0.8291  0.9942  0.1448
18345TIP3    H276451   0.123   2.277   4.275 -1.6391 -1.1007 -0.0313
18346TIP3   OH276452   1.607   4.921  11.317 -0.2204  0.4997  0.6213
18346TIP3    H176453   1.529   4.919  11.373 -0.4353 -0.7878  0.2705
18346TIP3    H276454   1.619   4.831  11.288  1.1491  0.7699  0.3133
18347TIP3   OH276455   3.227   2.984  12.887  0.4825  0.0941 -0.2769
18347TIP3    H176456   3.140   3.006  12.921 -0.1070 -3.1242  0.4618
18347TIP3    H276457   3.224   3.011  12.795 -1.1993  0.3819 -0.1604
18348TIP3   OH276458   6.275   3.529   1.330  0.3588  0.1643 -0.4134
18348TIP3    H176459   6.219   3.604   1.312  1.1617  0.6825 -0.7787
18348TIP3    H276460   6.360   3.554   1.294  1.2344  0.0181  1.5171
18349TIP3   OH276461   3.841   3.508   2.313  0.2134 -0.4379  0.3704
18349TIP3    H176462   3.821   3.461   2.232 -1.8161 -1.0162  1.1457
18349TIP3    H276463   3.895   3.446   2.363  0.9068 -0.3451 -0.2553
18350TIP3   OH276464   6.578   4.215  14.919  0.2577  0.6414 -0.3598
18350TIP3    H176465   6.639   4.148  14.886 -0.2104  0.4315 -0.8014
18350TIP3    H276466   6.634   4.277  14.967  0.6857 -0.0826  0.0755
18351TIP3   OH276467   1.605   4.527  13.803 -0.4671  0.1593  0.2116
18351TIP3    H176468   1.665   4.510  13.875 -0.6406 -2.3810 -0.1770
18351TIP3    H276469   1.585   4.620  13.809  1.5316  0.5119  1.8654
18352TIP3   OH276470   5.461   2.581  11.432  0.1520  0.2607  0.1826
18352TIP3    H176471   5.468   2.573  11.337  0.2335  0.2953  0.1852
18352TIP3    H276472   5.526   2.647  11.456 -0.0939  0.4844  0.2305
18353TIP3   OH276473   5.917   6.786   3.179  0.4541 -0.5523 -0.0926
18353TIP3    H176474   5.877   6.767   3.094  0.3553  0.4593 -0.2732
18353TIP3    H276475   5.984   6.718   3.189  0.2133 -0.9027 -0.8032
18354TIP3   OH276476   2.170   3.744  13.002  0.3221  0.2760 -0.8035
18354TIP3    H176477   2.188   3.663  13.050 -1.0191 -0.1086 -0.9461
18354TIP3    H276478   2.256   3.771  12.970  1.0511 -0.1502  0.7196
18355TIP3   OH276479   2.463   2.837  16.692 -0.4158  0.3519  0.0820
18355TIP3    H176480   2.534   2.781  16.724 -1.6998 -0.9005  0.7687
18355TIP3    H276481   2.434   2.795  16.611  0.5818  1.6718 -0.9855
18356TIP3   OH276482   3.760   2.423   4.120 -0.0501  0.0863 -0.5019
18356TIP3    H176483   3.842   2.471   4.108 -0.2569  0.4538 -0.4831
18356TIP3    H276484   3.724   2.413   4.032 -0.2821  0.4657 -0.4527
18357TIP3   OH276485   2.117   2.167  15.138  0.6185 -0.2640  0.2011
18357TIP3    H176486   2.090   2.190  15.049  0.8574  0.5675  0.3408
18357TIP3    H276487   2.034   2.150  15.184  0.4743 -0.3092 -0.0702
18358TIP3   OH276488   2.816   2.014   4.120  0.1514  0.0165 -0.0036
18358TIP3    H176489   2.810   1.965   4.202 -2.7186 -0.2183 -0.3111
18358TIP3    H276490   2.762   1.964   4.058 -0.1267  1.7699 -1.2282
18359TIP3   OH276491   2.611   3.646   2.925 -0.2257  0.2430 -0.3797
18359TIP3    H176492   2.530   3.687   2.895  0.2696  0.7016 -1.1139
18359TIP3    H276493   2.601   3.639   3.020 -1.4427 -0.4172 -0.5509
18360TIP3   OH276494   1.720   0.210  14.512  0.2022  0.5118  0.1236
18360TIP3    H176495   1.670   0.267  14.453  0.9225  0.9351 -0.0997
18360TIP3    H276496   1.773   0.271  14.564 -1.1441  0.1808  1.8836
18361TIP3   OH276497   0.997   4.919  11.180  0.1431  0.0133 -0.2366
18361TIP3    H176498   1.020   4.954  11.094 -1.5590 -2.3129 -1.6929
18361TIP3    H276499   1.060   4.959  11.240  1.8774  1.0408 -2.6757
18362TIP3   OH276500   1.849   6.495  12.300 -0.5059  0.0229 -0.2311
18362TIP3    H176501   1.944   6.510  12.298 -0.4805 -0.0442  0.2395
18362TIP3    H276502   1.840   6.400  12.306 -0.6004  0.0269 -0.3163
18363TIP3   OH276503   0.890   6.573   0.577  0.6007  1.2790  0.0029
18363TIP3    H176504   0.959   6.585   0.642  1.2137 -0.4048 -0.3185
18363TIP3    H276505   0.847   6.492   0.602  0.5777  0.8212 -1.4455
18364TIP3   OH276506   1.854   0.737  14.251  0.6196 -0.7254  0.2320
18364TIP3    H176507   1.850   0.798  14.325  0.7915 -0.0274 -0.3258
18364TIP3    H276508   1.923   0.675  14.275  0.4840 -0.6743  0.7783
18365TIP3   OH276509   3.560   1.482   6.037 -0.6217 -0.5689 -0.2999
18365TIP3    H176510   3.613   1.501   5.959  0.3286 -2.9346 -0.2785
18365TIP3    H276511   3.490   1.425   6.005 -0.7821 -0.7669  0.4098
18366TIP3   OH276512   2.705   3.217  12.922 -0.2221  0.4370 -0.2700
18366TIP3    H176513   2.787   3.175  12.950 -0.5056  0.1236  0.0952
18366TIP3    H276514   2.697   3.293  12.979  1.0694  1.8549 -1.9348
18367TIP3   OH276515   2.608   0.140  17.012  0.0402 -0.1564 -0.2804
18367TIP3    H176516   2.582   0.148  17.104 -1.1310 -0.3428 -0.5980
18367TIP3    H276517   2.575   0.054  16.985 -1.6694  0.8903 -1.5498
18368TIP3   OH276518   6.541   0.819   4.932 -0.4430 -0.4749 -0.2646
18368TIP3    H176519   6.532   0.776   5.017  1.3153  0.1586  0.2617
18368TIP3    H276520   6.608   0.768   4.886 -0.5524 -0.1262 -0.8183
18369TIP3   OH276521   3.703   3.885   0.789 -0.0352 -0.1099 -0.3146
18369TIP3    H176522   3.646   3.817   0.753  1.0154 -0.8713 -0.5699
18369TIP3    H276523   3.773   3.894   0.724  1.7730 -1.3598  1.3960
18370TIP3   OH276524   0.770   0.217  12.293  0.1265  0.0139  0.2622
18370TIP3    H176525   0.683   0.186  12.268  0.0176  0.7811 -0.3032
18370TIP3    H276526   0.754   0.296  12.344  0.4412 -0.4750  1.1406
18371TIP3   OH276527   4.490   5.873   2.690 -0.6592 -0.5675 -0.3650
18371TIP3    H176528   4.482   5.787   2.733 -1.0700 -0.7620 -0.8255
18371TIP3    H276529   4.558   5.918   2.740  0.9147 -1.8757 -1.2882
18372TIP3   OH276530   5.307   2.822  10.598 -1.2435  0.0194 -0.4399
18372TIP3    H176531   5.364   2.776  10.536 -0.7147  1.6943 -1.2148
18372TIP3    H276532   5.279   2.754  10.659  1.8280 -0.8210  0.1312
18373TIP3   OH276533   4.815   4.725   4.969  0.0402  0.4148 -0.5418
18373TIP3    H176534   4.874   4.653   4.991  1.3615  1.3633 -0.9167
18373TIP3    H276535   4.846   4.756   4.884 -0.0416  1.9062 -0.0397
18374TIP3   OH276536   3.700   4.611   4.565  0.5464 -0.1672  0.2269
18374TIP3    H176537   3.764   4.542   4.550  1.1519  0.3789  0.2702
18374TIP3    H276538   3.618   4.575   4.533  0.7536 -1.1075  0.7355
18375TIP3   OH276539   0.432   3.935  15.327 -0.4539  0.3168 -0.5464
18375TIP3    H176540   0.347   3.966  15.360 -0.6807 -0.0990 -0.7439
18375TIP3    H276541   0.493   4.004  15.353 -0.8057  0.4908 -0.1662
18376TIP3   OH276542   3.348   2.982   4.378  0.7112 -0.2994  0.1431
18376TIP3    H176543   3.393   2.898   4.374  0.4454 -0.4492  0.2469
18376TIP3    H276544   3.369   3.024   4.295  0.9671 -0.4057  0.1529
18377TIP3   OH276545   0.673   4.093   4.301  0.1070 -0.4160 -0.0227
18377TIP3    H176546   0.735   4.087   4.374 -0.5432 -1.6965  0.4483
18377TIP3    H276547   0.726   4.083   4.223  0.6188 -0.5744  0.3421
18378TIP3   OH276548   1.709   1.217   0.424 -0.0134  0.1869 -0.0547
18378TIP3    H176549   1.729   1.230   0.331  0.6002 -0.8566 -0.0794
18378TIP3    H276550   1.626   1.169   0.424 -1.0087  1.8707 -0.0131
18379TIP3   OH276551   4.132   5.562   3.485 -0.2513  0.4318  0.6262
18379TIP3    H176552   4.086   5.486   3.451 -0.3418  0.5589  0.4622
18379TIP3    H276553   4.071   5.603   3.546 -0.7850  1.2247 -0.4194
18380TIP3   OH276554   2.995   1.967  11.971  0.5854 -0.4267  0.1062
18380TIP3    H176555   3.021   2.029  11.903 -2.6983  1.7478  0.7275
18380TIP3    H276556   2.909   1.934  11.942 -0.7030  0.2645  2.9726
18381TIP3   OH276557   6.407   5.478  14.449  0.0365 -0.4757 -0.1077
18381TIP3    H176558   6.396   5.429  14.530 -1.3023  0.2708  0.1648
18381TIP3    H276559   6.485   5.439  14.408 -0.0597 -1.7299  0.8836
18382TIP3   OH276560   4.687   3.872   1.733 -0.6691  0.3910 -0.7471
18382TIP3    H176561   4.647   3.798   1.687 -0.0948 -0.0091 -0.6169
18382TIP3    H276562   4.644   3.872   1.819 -1.6909  1.0968 -1.2500
18383TIP3   OH276563   4.735   2.265   6.723 -0.1887 -0.3546  1.0649
18383TIP3    H176564   4.642   2.246   6.711 -0.3906  0.8720  0.6001
18383TIP3    H276565   4.756   2.230   6.810 -1.7864  1.9197  2.3971
18384TIP3   OH276566   1.700   1.538   0.059  0.5488 -0.2463  0.5279
18384TIP3    H176567   1.623   1.514   0.111 -0.5774 -0.0804 -1.0059
18384TIP3    H276568   1.672   1.615   0.009  1.9324  0.2114  0.4384
18385TIP3   OH276569   5.551   5.521   0.644  0.4258 -0.2407 -0.2622
18385TIP3    H176570   5.517   5.574   0.716 -0.2828 -0.3159 -0.5398
18385TIP3    H276571   5.550   5.580   0.569 -1.1962 -0.8973 -0.7738
18386TIP3   OH276572   2.618   2.110   4.805 -0.1993  0.0216  0.3058
18386TIP3    H176573   2.567   2.033   4.778 -0.5026 -0.0750  1.1418
18386TIP3    H276574   2.552   2.178   4.819 -0.4577 -0.9650  4.4709
18387TIP3   OH276575   1.305   3.220   6.317  0.0833 -0.7105 -0.0562
18387TIP3    H176576   1.257   3.198   6.396 -0.4410 -3.4976 -1.0830
18387TIP3    H276577   1.248   3.280   6.270  0.5849  1.2930  1.8487
18388TIP3   OH276578   5.994   3.531  16.513  0.0233  0.2383 -0.3036
18388TIP3    H176579   5.912   3.539  16.463 -1.1715  0.7464  1.6692
18388TIP3    H276580   6.054   3.593  16.471 -0.8726  0.4789 -1.2620
18389TIP3   OH276581   1.706   6.325  16.305  0.1251  0.1418 -1.1362
18389TIP3    H176582   1.772   6.374  16.353 -0.8431 -1.2626  1.7603
18389TIP3    H276583   1.636   6.389  16.290  0.4939  0.6349 -0.7830
18390TIP3   OH276584   2.045   5.859   5.553  0.1010 -0.8914  0.1127
18390TIP3    H176585   2.084   5.773   5.572 -0.1401 -1.0734 -0.2202
18390TIP3    H276586   1.979   5.841   5.487 -0.5795 -0.5904  0.7069
18391TIP3   OH276587   3.588   6.780   2.418  0.0020 -0.1268 -0.5616
18391TIP3    H176588   3.539   6.817   2.344  0.1235  1.2510  0.0206
18391TIP3    H276589   3.656   6.727   2.378  1.9789  3.0139 -1.5721
18392TIP3   OH276590   6.330   5.652   2.090 -0.9574 -0.3513  0.5645
18392TIP3    H176591   6.345   5.727   2.032 -2.1512  0.4657  1.2976
18392TIP3    H276592   6.343   5.576   2.034  1.9627  0.3345  0.1878
18393TIP3   OH276593   1.580   5.832  15.154  0.4483  0.2555  0.0236
18393TIP3    H176594   1.537   5.767  15.210  1.1764  0.0152  0.3144
18393TIP3    H276595   1.623   5.892  15.215  0.3843  0.5941 -0.2608
18394TIP3   OH276596   5.831   6.713   1.185  0.1124  0.5109 -0.0295
18394TIP3    H176597   5.889   6.731   1.259  1.1138 -1.1494 -0.3767
18394TIP3    H276598   5.756   6.668   1.224  0.6364 -0.3568 -0.0041
18395TIP3   OH276599   3.071   0.394  15.720  0.4366 -0.4457 -0.5823
18395TIP3    H176600   3.020   0.366  15.796  0.2891 -0.8347 -0.8225
18395TIP3    H276601   3.101   0.483  15.742  1.9227 -1.2399  0.7048
18396TIP3   OH276602   3.263   2.498   0.527 -0.2312 -0.4206 -0.1289
18396TIP3    H176603   3.327   2.524   0.593 -0.1894 -2.7629  0.8162
18396TIP3    H276604   3.222   2.419   0.563 -2.7188  0.2626 -1.3191
18397TIP3   OH276605   1.623   3.333   1.682  0.1641 -0.2790 -0.6645
18397TIP3    H176606   1.568   3.387   1.625  0.4477  1.0540  0.2973
18397TIP3    H276607   1.565   3.264   1.713 -0.5809  0.2741 -0.8095
18398TIP3   OH276608   4.125   2.664  17.141 -0.8429 -0.0258  0.9248
18398TIP3    H176609   4.207   2.633  17.103 -2.6559 -2.8906 -0.7997
18398TIP3    H276610   4.062   2.659  17.069 -2.8221  0.9594  2.5527
18399TIP3   OH276611   0.021   5.549   0.245  0.9031  0.0807 -0.1259
18399TIP3    H176612  -0.034   5.555   0.167 -1.1739  2.9280  1.4696
18399TIP3    H276613   0.109   5.568   0.213  0.5152 -1.3065 -2.1672
18400TIP3   OH276614   0.478   2.252  17.104 -0.2110  0.3538 -0.4696
18400TIP3    H176615   0.568   2.230  17.081  0.4004  2.7679 -0.5899
18400TIP3    H276616   0.431   2.253  17.020 -0.2613 -0.5025 -0.4547
18401TIP3   OH276617   3.423   4.209  14.222 -0.4559 -0.2494  0.1275
18401TIP3    H176618   3.453   4.236  14.135 -1.1886  2.6302  0.7197
18401TIP3    H276619   3.456   4.120  14.232  1.6443  0.2250 -2.1482
18402TIP3   OH276620   5.555   2.025   1.555  0.0037 -0.2382  0.4105
18402TIP3    H176621   5.507   2.058   1.631  1.9241  0.2748  1.4284
18402TIP3    H276622   5.535   1.931   1.553 -0.8138 -0.0780  0.9817
18403TIP3   OH276623   4.465   2.545   0.240  0.8113  0.1064 -0.6020
18403TIP3    H176624   4.416   2.491   0.178 -1.2026 -0.0602  1.1011
18403TIP3    H276625   4.497   2.482   0.305  3.2572  0.2236 -1.6341
18404TIP3   OH276626   3.229   5.594  16.587  0.1583  0.6524  0.3192
18404TIP3    H176627   3.214   5.500  16.584 -1.2636  0.8938 -2.9295
18404TIP3    H276628   3.201   5.621  16.675  0.2608 -1.8823  1.1517
18405TIP3   OH276629   6.283   0.430  11.526 -0.0016  0.1487  0.3382
18405TIP3    H176630   6.324   0.350  11.558  0.2849  0.9093  1.9303
18405TIP3    H276631   6.215   0.399  11.466 -0.8213 -1.3865  1.9669
18406TIP3   OH276632   3.804   4.423  15.975  0.3389  0.2475  0.2196
18406TIP3    H176633   3.773   4.363  16.043 -1.2364 -0.5773 -1.2086
18406TIP3    H276634   3.828   4.503  16.023 -1.5563 -0.0096  1.6450
18407TIP3   OH276635   3.948   0.719  12.743  0.6300 -0.1287 -0.3912
18407TIP3    H176636   3.948   0.809  12.712  0.6394  0.1652  0.4639
18407TIP3    H276637   3.937   0.725  12.838  0.4823 -1.0288 -0.3394
18408TIP3   OH276638   6.384   6.104   2.103  0.4749 -0.0857  0.1278
18408TIP3    H176639   6.302   6.113   2.054 -0.5376  0.2705  1.8399
18408TIP3    H276640   6.409   6.194   2.124  0.2458 -0.2828  1.2859
18409TIP3   OH276641   6.226   1.244   0.731  0.0673 -0.7170 -0.6278
18409TIP3    H176642   6.148   1.249   0.676  0.0167 -0.4401 -0.5300
18409TIP3    H276643   6.289   1.196   0.678 -0.3975 -1.5450 -0.4395
18410TIP3   OH276644   5.566   4.238   4.107  0.1568 -0.2291 -0.2411
18410TIP3    H176645   5.489   4.242   4.164 -0.3072 -1.3724 -0.7577
18410TIP3    H276646   5.530   4.225   4.019  0.8751  1.2030 -0.7658
18411TIP3   OH276647   3.284   1.154  14.110  0.1526 -0.0795 -0.2090
18411TIP3    H176648   3.310   1.170  14.201  0.9663  0.9805 -0.6061
18411TIP3    H276649   3.231   1.230  14.087 -1.0303 -0.9185 -0.2590
18412TIP3   OH276650   2.618   5.925  16.786  0.4140  0.4298  0.2334
18412TIP3    H176651   2.692   5.985  16.784  2.2888 -1.8376 -0.2313
18412TIP3    H276652   2.607   5.903  16.878  0.1674  0.9671  0.3315
18413TIP3   OH276653   6.358   1.812   1.636  0.0662 -0.2327 -0.3451
18413TIP3    H176654   6.277   1.862   1.629 -0.3609 -0.6787  1.2556
18413TIP3    H276655   6.384   1.795   1.545 -1.2089  0.5849 -0.8672
18414TIP3   OH276656   4.607   2.787   4.972  0.1257  0.0733 -0.1846
18414TIP3    H176657   4.626   2.741   5.054  0.9858  0.0093 -0.4098
18414TIP3    H276658   4.521   2.756   4.946  0.1766 -0.4816  0.3095
18415TIP3   OH276659   5.514   5.474  15.116  0.5106  0.1112  0.7307
18415TIP3    H176660   5.450   5.530  15.073  1.5030 -0.1408 -1.1363
18415TIP3    H276661   5.463   5.420  15.176 -0.7765  1.1711  0.6022
18416TIP3   OH276662   1.986   5.440   6.417  0.1216 -0.4618  0.0412
18416TIP3    H176663   1.962   5.351   6.391 -2.9392  0.4077 -0.3052
18416TIP3    H276664   1.934   5.496   6.361  1.2274  1.5637  0.9858
18417TIP3   OH276665   1.902   1.632   1.821 -0.3026 -0.3868 -0.0911
18417TIP3    H176666   1.924   1.665   1.734 -2.6699 -0.3547 -0.7060
18417TIP3    H276667   1.933   1.542   1.821 -1.1599 -0.6933 -1.3263
18418TIP3   OH276668   5.988   4.207  12.294 -0.1030  0.3792 -0.3136
18418TIP3    H176669   5.958   4.178  12.380  3.3411  0.4422  1.0124
18418TIP3    H276670   5.940   4.288  12.277 -1.1913  0.0815  1.2919
18419TIP3   OH276671   0.763   1.932   3.985 -0.3769 -0.8147 -0.7556
18419TIP3    H176672   0.706   1.863   3.952 -0.9291 -0.7984  0.1410
18419TIP3    H276673   0.725   1.957   4.069 -0.9060  1.4730 -1.6261
18420TIP3   OH276674   1.533   2.058   6.116 -0.1251 -0.5826  0.0356
18420TIP3    H176675   1.581   2.132   6.155 -0.4547 -1.2743  1.8085
18420TIP3    H276676   1.482   2.022   6.189 -1.1536 -1.6111 -1.1771
18421TIP3   OH276677   4.569   3.630   3.532  0.0048  0.1237  0.7431
18421TIP3    H176678   4.495   3.671   3.487 -2.1950 -2.3185  2.0287
18421TIP3    H276679   4.629   3.604   3.462 -2.3356 -1.6298 -0.6580
18422TIP3   OH276680   0.385   1.589   0.953  0.6046  0.2679  0.0475
18422TIP3    H176681   0.448   1.628   0.893 -0.3100  0.2977 -0.9196
18422TIP3    H276682   0.305   1.578   0.900  0.1550 -0.8195  0.9263
18423TIP3   OH276683   0.762   2.212   1.977  0.2407 -0.2940 -0.6771
18423TIP3    H176684   0.752   2.295   2.024 -2.3356 -0.0548 -1.5590
18423TIP3    H276685   0.687   2.210   1.917  0.1139 -3.3846 -0.4833
18424TIP3   OH276686   1.915   2.898   2.402 -0.1092  0.1257 -0.4348
18424TIP3    H176687   1.909   2.933   2.491 -0.6477  0.3012 -0.5383
18424TIP3    H276688   1.946   2.808   2.413 -0.1662  0.1523 -0.0713
18425TIP3   OH276689   6.196   3.190   5.431 -0.4487 -0.1789 -0.6960
18425TIP3    H176690   6.187   3.195   5.336  0.7436 -1.2204 -0.8740
18425TIP3    H276691   6.290   3.174   5.446 -0.6587 -0.2579  0.6387
18426TIP3   OH276692   4.332   3.359   4.630  0.2223  0.2946  0.2764
18426TIP3    H176693   4.357   3.274   4.665 -0.2699 -0.2581 -0.6974
18426TIP3    H276694   4.270   3.395   4.694 -0.9622 -0.8697 -0.2112
18427TIP3   OH276695   5.689   6.460  11.453 -0.3810 -0.8943 -0.0278
18427TIP3    H176696   5.758   6.518  11.486 -1.0938 -0.2176  0.2933
18427TIP3    H276697   5.679   6.485  11.361 -0.7396 -0.4579  0.1313
18428TIP3   OH276698   1.417   5.722  13.884 -0.6615 -0.1719  0.8238
18428TIP3    H176699   1.512   5.714  13.896 -0.5026  0.7899  0.3256
18428TIP3    H276700   1.403   5.816  13.869 -1.1710 -0.7924 -3.3379
18429TIP3   OH276701   5.863   3.740   3.227  1.0116  0.2032 -0.3025
18429TIP3    H176702   5.950   3.772   3.205  2.4096 -2.3974  1.2668
18429TIP3    H276703   5.863   3.733   3.322 -0.7572 -0.2963 -0.3267
18430TIP3   OH276704   4.940   3.211   1.691 -0.2635 -0.3798  0.7692
18430TIP3    H176705   4.922   3.295   1.649  0.8886  0.3955  1.8060
18430TIP3    H276706   4.862   3.194   1.744 -0.1414  0.4567  1.2260
18431TIP3   OH276707   2.526   5.829   1.666  0.0544 -0.2451 -0.3683
18431TIP3    H176708   2.455   5.868   1.716  1.0533  0.4168  0.5544
18431TIP3    H276709   2.537   5.742   1.704 -0.0123 -0.2088 -0.2645
18432TIP3   OH276710   1.252   6.761   5.538 -0.0890  0.0035  0.2415
18432TIP3    H176711   1.319   6.741   5.602  2.3357  1.9940 -1.5776
18432TIP3    H276712   1.195   6.825   5.582  0.8338  0.4258  0.8314
18433TIP3   OH276713   4.834   6.213  16.620 -0.1678  0.0193 -0.1687
18433TIP3    H176714   4.777   6.200  16.696  1.5978 -0.0765  1.1805
18433TIP3    H276715   4.893   6.283  16.646  1.8066 -1.4286 -0.6397
18434TIP3   OH276716   5.981   1.509   2.148  0.0015 -0.1690 -0.2263
18434TIP3    H176717   6.073   1.536   2.150 -0.6942  2.3132  0.1841
18434TIP3    H276718   5.967   1.478   2.058  0.4892  2.3579 -1.2344
18435TIP3   OH276719   1.203   2.754   0.901  0.4266 -0.0202  0.0501
18435TIP3    H176720   1.213   2.847   0.882  1.2109  0.0596  0.8450
18435TIP3    H276721   1.128   2.727   0.847  0.1376  1.0823 -0.1212
18436TIP3   OH276722   1.345   3.683   4.298 -0.0786  0.0576 -0.9875
18436TIP3    H176723   1.322   3.687   4.391 -2.9745 -1.2146 -1.5967
18436TIP3    H276724   1.424   3.629   4.296 -0.4849 -0.6527  0.6861
18437TIP3   OH276725   6.188   0.873   0.138  0.2333 -0.5375 -0.0451
18437TIP3    H176726   6.105   0.827   0.145  0.3099 -0.5023  1.1975
18437TIP3    H276727   6.254   0.804   0.134  0.2701 -0.5473  0.7279
18438TIP3   OH276728   1.064   0.527  15.737 -0.2719  0.0183  0.1267
18438TIP3    H176729   1.108   0.545  15.820  0.2151  0.6571 -0.2658
18438TIP3    H276730   1.079   0.605  15.684  1.3247 -1.2405 -1.3725
18439TIP3   OH276731   4.384   1.199   1.699  0.0182  0.2593  0.2670
18439TIP3    H176732   4.388   1.131   1.633  0.4225  0.7093 -0.1768
18439TIP3    H276733   4.422   1.276   1.657 -1.0590  0.9494  0.5271
18440TIP3   OH276734   5.150   1.341  13.881  0.9623  0.5545 -0.0887
18440TIP3    H176735   5.140   1.380  13.968  0.8030 -0.2553  0.2603
18440TIP3    H276736   5.128   1.412  13.820  1.2968  1.1852  0.5250
18441TIP3   OH276737   3.772   3.435   5.387 -0.1024  0.2068 -0.2462
18441TIP3    H176738   3.729   3.425   5.472  1.7289  0.0897  0.6948
18441TIP3    H276739   3.795   3.528   5.382 -0.4618  0.2704 -0.7392
18442TIP3   OH276740   3.094   2.942   4.323 -0.2579 -0.3137 -0.0160
18442TIP3    H176741   3.077   2.879   4.393  0.2421 -1.7948 -1.1896
18442TIP3    H276742   3.177   2.982   4.347 -0.1600 -0.7112  0.3181
18443TIP3   OH276743   3.667   6.014  12.976 -0.0283 -0.2009  0.2473
18443TIP3    H176744   3.731   5.991  13.043  0.3291  1.8869  0.6660
18443TIP3    H276745   3.628   6.095  13.007 -1.3065 -0.2743 -1.0960
18444TIP3   OH276746   6.038   5.951  15.611 -0.6101  0.0251  0.1473
18444TIP3    H176747   5.958   5.981  15.653 -0.6788  2.5942 -1.6676
18444TIP3    H276748   6.009   5.916  15.527  0.0597 -0.0159 -0.0688
18445TIP3   OH276749   0.663   4.419   6.566  0.4916  0.3091  0.5433
18445TIP3    H176750   0.717   4.485   6.523 -0.5327  0.2464 -0.8561
18445TIP3    H276751   0.619   4.466   6.637  1.7030  0.5531  1.1434
18446TIP3   OH276752   1.719   1.284   2.001 -0.1397 -0.5933  0.1360
18446TIP3    H176753   1.703   1.198   1.960 -0.1648 -0.7608  0.4917
18446TIP3    H276754   1.646   1.338   1.971 -0.2415 -0.7595  0.0794
18447TIP3   OH276755   3.511   5.999  12.461 -0.1232  0.0566 -0.1278
18447TIP3    H176756   3.510   5.935  12.532  0.5505  0.5709  0.3545
18447TIP3    H276757   3.418   6.021  12.448 -0.3079 -0.5650  0.1028
18448TIP3   OH276758   3.490   0.164  16.066 -0.0930 -0.0956 -0.1558
18448TIP3    H176759   3.402   0.135  16.089 -0.3589  0.8526  0.0676
18448TIP3    H276760   3.506   0.238  16.124  1.7220 -1.6280  1.3592
18449TIP3   OH276761   5.389   3.494  11.040 -0.0933  0.0708  0.1735
18449TIP3    H176762   5.346   3.408  11.036  0.0350  0.0246 -0.1778
18449TIP3    H276763   5.354   3.542  10.965 -1.0664  0.7465  1.0285
18450TIP3   OH276764   4.364   4.619  13.848  0.2480  0.1564 -0.6916
18450TIP3    H176765   4.433   4.574  13.897 -0.3923 -0.4508 -0.3399
18450TIP3    H276766   4.324   4.679  13.912  0.4631  0.5315 -0.9030
18451TIP3   OH276767   1.079   4.988   4.982  0.0469 -0.0677 -0.2834
18451TIP3    H176768   1.150   4.940   5.024 -0.5005 -1.7825 -1.2893
18451TIP3    H276769   1.121   5.040   4.914  0.5918  0.6082  0.5581
18452TIP3   OH276770   3.405   5.956  15.251 -0.3886  0.2144  0.2747
18452TIP3    H176771   3.377   5.978  15.340 -0.7907 -1.9376  0.7078
18452TIP3    H276772   3.481   5.899  15.263 -1.1337 -1.0132 -0.7157
18453TIP3   OH276773   1.687   0.712  16.741  0.0441 -0.0780  0.0008
18453TIP3    H176774   1.679   0.618  16.726 -0.3185  0.1155 -1.0394
18453TIP3    H276775   1.746   0.742  16.672 -0.7124  0.6415 -0.3330
18454TIP3   OH276776   3.455   3.889   1.316  0.0687 -0.6952  0.9090
18454TIP3    H176777   3.408   3.906   1.234 -1.5197  0.3465  2.0179
18454TIP3    H276778   3.494   3.973   1.339  1.8864 -1.3782  0.3808
18455TIP3   OH276779   2.979   6.284  12.443 -0.0649  0.2965 -1.0554
18455TIP3    H176780   3.046   6.256  12.505  0.0875 -0.2097 -1.4446
18455TIP3    H276781   3.026   6.297  12.361  0.1823  3.4140 -0.4691
18456TIP3   OH276782   1.586   1.094   2.362  0.1623 -0.1830 -0.0867
18456TIP3    H176783   1.493   1.103   2.342 -0.1999 -0.3421  1.4604
18456TIP3    H276784   1.598   1.000   2.378  0.3716 -0.0087  0.7697
18457TIP3   OH276785   4.044   0.205   0.796  0.6882 -0.2403 -0.4482
18457TIP3    H176786   4.067   0.289   0.756  0.5399  0.9576  1.9063
18457TIP3    H276787   3.949   0.209   0.809  0.7879 -0.4474  0.3707
18458TIP3   OH276788   0.376   1.811   1.145 -0.2346 -0.3420 -0.0688
18458TIP3    H176789   0.335   1.776   1.225  1.3705 -1.2261  0.3934
18458TIP3    H276790   0.401   1.734   1.095  2.9582  0.0700  0.7544
18459TIP3   OH276791   1.516   4.099   0.608 -0.8147  0.3825  0.2657
18459TIP3    H176792   1.494   4.088   0.516 -0.6490  1.5345  0.0722
18459TIP3    H276793   1.549   4.189   0.613 -0.4034  0.1675  1.3635
18460TIP3   OH276794   5.513   5.919   3.858 -0.0580  0.0506  0.2450
18460TIP3    H176795   5.453   5.921   3.932  1.0299  0.7417  1.1123
18460TIP3    H276796   5.534   5.826   3.846 -0.8952 -0.1444  0.2535
18461TIP3   OH276797   3.028   5.654   1.700 -0.5180  0.5933  0.3981
18461TIP3    H176798   3.115   5.627   1.673 -0.9732 -0.0373 -0.4747
18461TIP3    H276799   2.969   5.589   1.660 -1.2300 -0.2586  2.7265
18462TIP3   OH276800   3.363   1.959   0.663  0.3688  0.3433  0.0857
18462TIP3    H176801   3.268   1.953   0.654  0.4745  0.0260 -0.7947
18462TIP3    H276802   3.397   1.946   0.575  1.2288  0.5319  0.3850
18463TIP3   OH276803   2.264   4.147   5.847  0.9158  0.5997 -0.2246
18463TIP3    H176804   2.241   4.148   5.754  0.2707 -2.6657 -0.1706
18463TIP3    H276805   2.343   4.094   5.851  0.5001  0.0713  1.1808
18464TIP3   OH276806   6.594   6.338   1.538  0.4816 -0.1374  0.3321
18464TIP3    H176807   6.670   6.282   1.549  1.6869  1.3114 -0.4781
18464TIP3    H276808   6.614   6.416   1.590 -0.3476  0.3546 -0.0755
18465TIP3   OH276809   1.270   4.349   1.041 -0.3226 -0.0962  0.2521
18465TIP3    H176810   1.285   4.434   1.083 -1.0087 -0.3978  1.1368
18465TIP3    H276811   1.231   4.296   1.110 -1.8506 -0.4799 -0.8763
18466TIP3   OH276812   6.395   3.710  14.341  0.6534  0.3169 -0.6308
18466TIP3    H176813   6.388   3.628  14.390  0.6919  0.4258 -0.4414
18466TIP3    H276814   6.348   3.774  14.395  0.9918  0.5123 -0.5678
18467TIP3   OH276815   3.363   4.708  11.958  0.1767 -0.0161 -0.4646
18467TIP3    H176816   3.313   4.703  12.039 -1.5145  2.5329 -1.3182
18467TIP3    H276817   3.412   4.790  11.965  2.2301 -1.1806 -0.8084
18468TIP3   OH276818   5.188   0.718   3.026 -0.3230 -0.4011 -0.6717
18468TIP3    H176819   5.180   0.642   2.968 -0.5559  0.3337 -1.6026
18468TIP3    H276820   5.105   0.719   3.074 -0.3763 -0.6484 -0.7552
18469TIP3   OH276821   5.118   1.118   2.644  0.0783  0.0134  1.1938
18469TIP3    H176822   5.199   1.141   2.599 -0.2382 -0.8078  0.2155
18469TIP3    H276823   5.144   1.053   2.709  0.4675  0.9263  1.9692
18470TIP3   OH276824   2.061   3.590  12.797  0.2996 -0.6070 -0.9867
18470TIP3    H176825   2.119   3.624  12.865 -0.1750 -0.5215 -0.6223
18470TIP3    H276826   1.980   3.640  12.808 -1.1257 -3.2794  0.8426
18471TIP3   OH276827   4.812   1.158  14.688 -0.0593  0.3119  0.0913
18471TIP3    H176828   4.806   1.148  14.783 -1.0873 -1.2266 -0.1291
18471TIP3    H276829   4.758   1.234  14.669 -0.8207 -0.0941  0.6090
18472TIP3   OH276830   6.535   1.949   5.384  0.3840 -0.3639 -0.0981
18472TIP3    H176831   6.472   1.926   5.316  1.1400 -2.7564 -0.0402
18472TIP3    H276832   6.527   2.044   5.394 -0.2643 -0.0856 -2.9866
18473TIP3   OH276833   6.607   5.694   5.702  0.8048 -0.0316 -0.6550
18473TIP3    H176834   6.695   5.698   5.741  0.1374 -0.1865  0.8911
18473TIP3    H276835   6.609   5.616   5.647  1.1844 -0.8812  0.5358
18474TIP3   OH276836   2.457   4.954  11.645 -0.4127 -0.3453 -0.0185
18474TIP3    H176837   2.461   4.861  11.666  0.6395  0.0071  1.3716
18474TIP3    H276838   2.422   4.996  11.724  0.1260  0.5649 -0.2479
18475TIP3   OH276839   2.689   1.066   7.025 -0.2397  0.3525  0.1732
18475TIP3    H176840   2.611   1.023   6.991 -1.3536  2.2222  0.2553
18475TIP3    H276841   2.657   1.120   7.098  1.1609  0.9413  0.3731
18476TIP3   OH276842   6.196   0.996   3.890  0.2069  0.0159 -0.3874
18476TIP3    H176843   6.292   0.993   3.892  0.1865 -0.8346 -0.2249
18476TIP3    H276844   6.170   0.904   3.876 -0.5778  0.2615 -0.5621
18477TIP3   OH276845   1.388   6.201   1.178  0.0321  0.0887 -0.0673
18477TIP3    H176846   1.293   6.209   1.190 -0.1615 -1.0538 -0.7710
18477TIP3    H276847   1.424   6.219   1.264 -0.9396 -1.2463  0.6431
18478TIP3   OH276848   6.491   2.530   5.536 -0.3524 -0.1978 -0.0838
18478TIP3    H176849   6.561   2.517   5.599  1.1150  3.0603 -0.9397
18478TIP3    H276850   6.429   2.588   5.581 -0.0414  0.9055 -1.0400
18479TIP3   OH276851   5.741   5.365  14.078  0.1393 -0.0691 -0.3790
18479TIP3    H176852   5.715   5.334  14.165  0.8010 -0.9900 -0.5027
18479TIP3    H276853   5.665   5.347  14.022 -0.8176  1.7783  0.2728
18480TIP3   OH276854   3.834   2.052  14.819  0.3602  0.6565  0.8271
18480TIP3    H176855   3.838   1.982  14.754 -0.6731  0.3408  1.0932
18480TIP3    H276856   3.884   2.018  14.894 -2.7553 -1.1721  2.1990
18481TIP3   OH276857   3.620   2.026   3.120  0.1315  0.0136 -0.5801
18481TIP3    H176858   3.571   1.948   3.146 -0.3618  0.7750  0.8326
18481TIP3    H276859   3.712   2.004   3.139 -0.1057  0.1294  0.7152
18482TIP3   OH276860   4.090   5.826   1.968 -0.3752 -0.0522  0.1459
18482TIP3    H176861   4.050   5.902   2.009  1.0541  0.3467  0.8526
18482TIP3    H276862   4.123   5.858   1.884 -1.8011 -0.4591 -0.5817
18483TIP3   OH276863   1.339   5.041   0.084 -0.1164 -0.1101  0.3471
18483TIP3    H176864   1.429   5.038   0.118  0.1749 -2.2413 -0.5544
18483TIP3    H276865   1.339   5.117   0.025  0.8908  0.3173  0.8783
18484TIP3   OH276866   5.195   1.029   4.641 -0.0974 -0.1587 -0.4810
18484TIP3    H176867   5.277   1.045   4.593  0.8802 -1.1717  0.8028
18484TIP3    H276868   5.209   0.943   4.683 -1.6451 -0.1267  0.1045
18485TIP3   OH276869   1.352   5.255   5.146  0.1814  0.0333 -1.4708
18485TIP3    H176870   1.406   5.317   5.195 -0.5354 -1.6913  1.6723
18485TIP3    H276871   1.413   5.184   5.123 -0.0394 -0.4328 -0.6558
18486TIP3   OH276872   4.917   5.690   4.405 -0.3797 -0.6205  0.0557
18486TIP3    H176873   4.854   5.667   4.337  0.7212 -1.2999 -0.7461
18486TIP3    H276874   4.933   5.608   4.451 -0.0383 -0.4609  0.2209
18487TIP3   OH276875   5.728   0.763   1.525 -0.3372 -0.0171  0.0952
18487TIP3    H176876   5.815   0.723   1.532 -0.7862 -0.8341  1.2971
18487TIP3    H276877   5.730   0.835   1.589  0.4643  1.9393 -2.0499
18488TIP3   OH276878   1.508   4.641   4.838  0.0036 -0.1946 -0.1089
18488TIP3    H176879   1.466   4.619   4.922 -1.5123  2.3368 -0.1635
18488TIP3    H276880   1.471   4.578   4.776 -1.4833  0.0979  0.4497
18489TIP3   OH276881   5.268   5.052   1.643  0.2855  0.0122  0.0216
18489TIP3    H176882   5.214   5.119   1.602 -1.4752 -1.8552 -0.7960
18489TIP3    H276883   5.258   5.067   1.737  0.0735  1.0197 -0.1602
18490TIP3   OH276884   2.695   2.745   0.665 -0.2554  0.5594 -0.1630
18490TIP3    H176885   2.647   2.672   0.625  1.3834  0.2388 -1.5702
18490TIP3    H276886   2.758   2.772   0.599  0.5883  1.8810  1.1568
18491TIP3   OH276887   2.042   6.717  16.814  0.1110  0.2169  0.3681
18491TIP3    H176888   1.969   6.778  16.820  0.2850  0.3734  0.9537
18491TIP3    H276889   2.025   6.653  16.884  0.0026 -0.3227 -0.1459
18492TIP3   OH276890   2.948   3.051  13.993  0.9122 -0.3314 -0.5755
18492TIP3    H176891   3.011   2.981  14.011  0.3736 -1.3890 -2.6280
18492TIP3    H276892   2.886   3.012  13.931 -0.6568  1.2960 -0.0805
18493TIP3   OH276893   5.603   2.510   2.686  0.2208  0.3214  0.1893
18493TIP3    H176894   5.655   2.543   2.613  2.3429 -0.1516  1.4406
18493TIP3    H276895   5.601   2.415   2.673  1.6387  0.1128  1.3748
18494TIP3   OH276896   3.221   4.207   4.547 -0.6855  0.0845  0.0508
18494TIP3    H176897   3.278   4.238   4.618  0.0503 -1.4265  0.1478
18494TIP3    H276898   3.250   4.255   4.470  0.7096 -0.6394  0.1143
18495TIP3   OH276899   3.060   6.421  16.492  0.3308 -0.4114 -0.3091
18495TIP3    H176900   3.007   6.394  16.567  0.3056 -2.1850 -0.9262
18495TIP3    H276901   2.997   6.461  16.432  0.2106  0.2694  0.2692
18496TIP3   OH276902   0.530   6.042  11.645  0.4188 -0.8938  0.1146
18496TIP3    H176903   0.442   6.036  11.607  0.3165 -2.0777  0.4970
18496TIP3    H276904   0.516   6.028  11.739  0.8711  0.2574  0.3651
18497TIP3   OH276905   4.558   6.204  14.491  0.0379 -0.2925  0.4746
18497TIP3    H176906   4.632   6.181  14.547 -0.4835  1.0714  1.7936
18497TIP3    H276907   4.484   6.211  14.552 -0.8760 -0.2766 -0.6214
18498TIP3   OH276908   6.036   2.952   3.683  0.1460 -0.3381  0.2305
18498TIP3    H176909   5.940   2.958   3.677  0.2290  0.6583 -0.0730
18498TIP3    H276910   6.051   2.873   3.736 -0.8604  0.0908  1.1746
18499TIP3   OH276911   1.890   6.053   0.249 -0.1234  0.2077  0.2258
18499TIP3    H176912   1.985   6.058   0.239  0.0738 -2.7017  0.4106
18499TIP3    H276913   1.857   6.032   0.161 -0.4381 -0.6603  0.5462
18500TIP3   OH276914   3.157   3.806   5.401  0.0522 -0.0339  0.8998
18500TIP3    H176915   3.139   3.825   5.309 -1.0668  0.4587  1.2213
18500TIP3    H276916   3.142   3.712   5.409  2.8043 -0.5952 -0.0276
18501TIP3   OH276917   2.890   3.385  13.164 -0.2206 -0.6676 -0.0093
18501TIP3    H176918   2.848   3.300  13.174  1.2034 -1.0376  3.4239
18501TIP3    H276919   2.858   3.436  13.239  1.1306  0.8651 -0.4623
18502TIP3   OH276920   2.983   2.239   1.716  0.1399  0.1100  0.1519
18502TIP3    H176921   3.022   2.295   1.650  0.4766 -0.3175 -0.0160
18502TIP3    H276922   3.055   2.215   1.773 -0.0947  0.2409  0.5073
18503TIP3   OH276923   1.404   0.508  15.902 -0.1414 -0.0905  0.8980
18503TIP3    H176924   1.389   0.547  15.816 -0.8209  0.8804  1.4445
18503TIP3    H276925   1.489   0.541  15.929  1.0838 -2.1252 -0.3213
18504TIP3   OH276926   5.114   4.408   6.093 -0.3841  0.1035 -0.1489
18504TIP3    H176927   5.088   4.500   6.094 -2.4114 -0.4290 -0.0963
18504TIP3    H276928   5.200   4.407   6.051 -0.2374  2.0373  0.0787
18505TIP3   OH276929   1.313   1.351   2.428 -0.1503 -0.1411  0.2183
18505TIP3    H176930   1.288   1.379   2.340 -0.4440 -0.1610  0.2934
18505TIP3    H276931   1.408   1.346   2.426 -0.1049  0.7625  0.1797
18506TIP3   OH276932   6.494   6.294  13.165 -0.2881 -0.7432  0.7813
18506TIP3    H176933   6.441   6.362  13.207  1.6515  1.1994  0.1599
18506TIP3    H276934   6.560   6.270  13.230 -0.2963 -1.2538  0.6066
18507TIP3   OH276935   3.604   0.627  13.447  0.3438  0.0027  0.1195
18507TIP3    H176936   3.625   0.719  13.460  0.1649  0.0569  0.0264
18507TIP3    H276937   3.652   0.581  13.516 -0.7389  0.2990  1.0749
18508TIP3   OH276938   5.286   4.399  15.828 -0.5041  0.7344 -0.3899
18508TIP3    H176939   5.207   4.450  15.841 -0.1741  1.0293  0.5206
18508TIP3    H276940   5.254   4.309  15.816 -0.9798  0.8563 -0.0701
18509TIP3   OH276941   0.288   0.535   2.682  0.2404  0.0293 -0.3722
18509TIP3    H176942   0.339   0.612   2.708  0.7790  0.2216 -1.9718
18509TIP3    H276943   0.287   0.537   2.587 -1.5885 -0.7567 -0.3939
18510TIP3   OH276944   2.655   5.259   4.052 -0.3882  0.3056 -0.0521
18510TIP3    H176945   2.741   5.244   4.012 -0.7514 -2.1377  0.0121
18510TIP3    H276946   2.603   5.299   3.983  0.4723  0.7607 -0.4457
18511TIP3   OH276947   1.997   1.158  16.349 -0.7111  0.2282 -0.7773
18511TIP3    H176948   1.909   1.144  16.314 -0.4513 -0.8100 -1.0127
18511TIP3    H276949   2.024   1.072  16.381  0.3318  0.4881 -0.9493
18512TIP3   OH276950   3.491   6.317   4.580 -0.1111 -0.7247 -0.3349
18512TIP3    H176951   3.474   6.369   4.658  4.7443  2.1049 -0.9596
18512TIP3    H276952   3.509   6.381   4.511  0.9430 -3.1911 -2.4705
18513TIP3   OH276953   6.483   2.888  12.859  0.1877  0.3538  0.3918
18513TIP3    H176954   6.534   2.958  12.819  1.4004 -0.7009  0.0389
18513TIP3    H276955   6.452   2.925  12.942  0.3911  1.4627 -0.0139
18514TIP3   OH276956   4.354   5.405  16.533  0.0735  0.4735 -0.2755
18514TIP3    H176957   4.324   5.329  16.583 -0.1446  0.8215  0.1191
18514TIP3    H276958   4.430   5.372  16.484  1.4779  0.6375  1.7269
18515TIP3   OH276959   5.819   5.116   1.418 -0.0231 -0.7840  0.2491
18515TIP3    H176960   5.727   5.092   1.434  0.2093 -1.4843  0.5361
18515TIP3    H276961   5.817   5.211   1.412 -0.6510 -0.7339  1.0404
18516TIP3   OH276962   3.232   6.027   6.029 -0.3291 -0.0673 -0.1702
18516TIP3    H176963   3.236   6.054   6.121  0.9245 -0.0434 -0.2204
18516TIP3    H276964   3.216   6.109   5.982 -1.0250 -0.0867  0.0312
18517TIP3   OH276965   5.744   4.816  16.347  0.0144  0.0362  0.3479
18517TIP3    H176966   5.719   4.872  16.421  0.1175 -0.4565  0.7616
18517TIP3    H276967   5.809   4.756  16.384 -1.3443 -1.4600  0.3194
18518TIP3   OH276968   3.438   1.493   4.085 -0.4502 -0.3646 -0.6536
18518TIP3    H176969   3.428   1.399   4.096 -1.6348 -0.4572 -2.3684
18518TIP3    H276970   3.523   1.513   4.124 -1.8992 -1.5106  3.3227
18519TIP3   OH276971   5.168   1.396   1.727 -0.5501 -0.1981  0.0458
18519TIP3    H176972   5.171   1.488   1.701  0.5120 -0.2828 -0.1636
18519TIP3    H276973   5.180   1.347   1.646  1.2730 -0.4775  0.4549
18520TIP3   OH276974   1.598   6.252  17.097  0.1692  0.3461  0.5876
18520TIP3    H176975   1.667   6.186  17.093 -1.5121 -1.3404 -3.2734
18520TIP3    H276976   1.645   6.335  17.096  2.2081 -0.7578  0.8430
18521TIP3   OH276977   0.202   4.094   1.865  0.3593  0.4241  0.0166
18521TIP3    H176978   0.136   4.127   1.803 -0.0155 -0.2203  0.0610
18521TIP3    H276979   0.188   4.145   1.945 -0.1255  0.2483  0.0441
18522TIP3   OH276980   1.395   5.862  17.040 -0.4683  0.3688  0.4528
18522TIP3    H176981   1.307   5.832  17.064 -0.7069  1.5908  1.1638
18522TIP3    H276982   1.439   5.877  17.124  0.9114 -1.5705  0.1197
18523TIP3   OH276983   2.274   3.776  12.230  1.0174  0.7352 -0.0030
18523TIP3    H176984   2.286   3.852  12.288 -2.3672  1.0073  0.4555
18523TIP3    H276985   2.260   3.814  12.144 -1.7683  0.7741  0.4077
18524TIP3   OH276986   4.937   2.112   5.691  0.0760 -0.3486 -0.3539
18524TIP3    H176987   4.956   2.162   5.611 -0.2286  0.6415  0.1870
18524TIP3    H276988   4.844   2.126   5.707  0.2418 -0.1509  0.4480
18525TIP3   OH276989   5.312   2.862   1.851 -0.0560  0.0621 -0.3437
18525TIP3    H176990   5.271   2.840   1.768 -2.0711  1.2671  0.3005
18525TIP3    H276991   5.327   2.778   1.895  1.8848 -0.6507 -2.2818
18526TIP3   OH276992   5.289   4.765  15.430  0.2216  0.4195 -0.7688
18526TIP3    H176993   5.220   4.831  15.442  1.4429  1.5459  0.2190
18526TIP3    H276994   5.241   4.685  15.410 -1.4804  0.8831  1.1950
18527TIP3   OH276995   4.348   4.465  11.897  1.2916 -0.0386 -0.6126
18527TIP3    H176996   4.346   4.561  11.889  2.1106  0.1247  0.8811
18527TIP3    H276997   4.268   4.435  11.853 -0.7708  1.5731  1.8775
18528TIP3   OH276998   5.112   3.518   3.986  0.4148  0.0678 -0.0531
18528TIP3    H176999   5.061   3.529   4.066 -2.8046 -0.0581 -2.0300
18528TIP3    H277000   5.084   3.590   3.929  2.0756 -0.3130 -1.4178
18529TIP3   OH277001   2.946   5.468  12.471  0.3491 -0.0004  0.3637
18529TIP3    H177002   3.005   5.417  12.528  0.7432  0.6965  0.5790
18529TIP3    H277003   3.001   5.537  12.434  0.2744 -0.8861 -1.4684
18530TIP3   OH277004   1.559   3.442  15.816 -0.4445  0.2958  0.4619
18530TIP3    H177005   1.553   3.536  15.830 -3.1008  0.4318 -1.2200
18530TIP3    H277006   1.544   3.404  15.903 -1.1688  1.4102  0.8448
18531TIP3   OH277007   3.306   0.266  13.249 -0.1233 -0.3106 -0.7169
18531TIP3    H177008   3.359   0.196  13.213 -0.5701 -1.3159  0.5307
18531TIP3    H277009   3.367   0.320  13.299 -0.0717 -0.8203 -0.2223
18532TIP3   OH277010   4.696   3.667  15.986 -0.2185  0.3987  0.5012
18532TIP3    H177011   4.723   3.758  15.972  1.3528  0.0274  1.0105
18532TIP3    H277012   4.772   3.615  15.959 -0.6587 -0.7092  1.3483
18533TIP3   OH277013   1.066   2.354  11.106  0.0569 -0.2064  0.0283
18533TIP3    H177014   1.160   2.373  11.098  0.1105 -1.1077 -1.7524
18533TIP3    H277015   1.023   2.419  11.050 -0.2114 -1.1313 -0.8619
18534TIP3   OH277016   5.881   6.319   1.809 -0.2160 -0.1156 -0.0864
18534TIP3    H177017   5.879   6.375   1.887 -0.8079 -0.0343 -0.1574
18534TIP3    H277018   5.790   6.315   1.780  0.0037 -0.1568 -0.7716
18535TIP3   OH277019   5.864   4.811  17.100  0.2880  0.0270  0.0993
18535TIP3    H177020   5.810   4.869  17.153 -0.9386 -0.7553 -0.2595
18535TIP3    H277021   5.855   4.845  17.010 -0.8890 -1.0153 -0.1994
18536TIP3   OH277022   3.036   0.888   0.315  0.3873  0.1592  0.4719
18536TIP3    H177023   3.001   0.903   0.228  1.3936  0.6484  0.1447
18536TIP3    H277024   3.070   0.974   0.342  2.2390 -0.5252  0.3706
18537TIP3   OH277025   2.640   6.610  11.616 -0.2855 -0.4664  0.2456
18537TIP3    H177026   2.681   6.576  11.536  1.8078  0.1852  0.9971
18537TIP3    H277027   2.690   6.689  11.636 -1.8949  0.3085  1.2603
18538TIP3   OH277028   0.591   1.933  16.809  0.2058 -0.1730 -0.0849
18538TIP3    H177029   0.649   2.002  16.776 -0.7657 -0.2040 -1.9112
18538TIP3    H277030   0.615   1.924  16.901  1.4871  1.4474 -0.2350
18539TIP3   OH277031   5.427   0.043  14.602 -0.3809  0.0298  0.2628
18539TIP3    H177032   5.337   0.047  14.631 -0.8815  1.9255 -1.4528
18539TIP3    H277033   5.459   0.133  14.606  1.2610 -0.5228  0.3116
18540TIP3   OH277034   6.407   4.662   1.770 -0.1191  0.4269 -0.0991
18540TIP3    H177035   6.436   4.655   1.679  0.1740  0.2270  0.0062
18540TIP3    H277036   6.467   4.725   1.810  0.6194 -0.5047  0.2918
18541TIP3   OH277037   2.772   4.337   5.869 -0.4401  0.4299  0.0554
18541TIP3    H177038   2.845   4.330   5.808 -0.6239 -0.6410 -0.0367
18541TIP3    H277039   2.697   4.301   5.822 -0.5374 -0.6087  0.9992
18542TIP3   OH277040   6.178   3.092   0.250 -0.4454  0.1557 -0.0653
18542TIP3    H177041   6.138   3.129   0.328 -2.0132 -1.9941  0.1702
18542TIP3    H277042   6.107   3.086   0.186 -0.0574 -1.7557 -0.3439
18543TIP3   OH277043   4.729   3.516  11.587  0.4838  0.1739 -0.1195
18543TIP3    H177044   4.728   3.531  11.492  1.2521  1.0544 -0.0040
18543TIP3    H277045   4.645   3.474  11.606  0.0738  0.5325 -1.1009
18544TIP3   OH277046   1.632   1.555  15.627 -0.1381  0.3334 -0.1241
18544TIP3    H177047   1.609   1.548  15.720 -2.1647  0.9675 -0.5550
18544TIP3    H277048   1.564   1.505  15.582  1.0327 -0.2731 -1.2639
18545TIP3   OH277049   1.100   0.175   5.653  0.6416  0.4293  0.2108
18545TIP3    H177050   1.139   0.190   5.739 -0.0440 -1.9443  0.9575
18545TIP3    H277051   1.034   0.108   5.668 -0.4567  0.9945 -1.9236
18546TIP3   OH277052   1.606   6.577  11.840 -0.8087  0.0540  0.0662
18546TIP3    H177053   1.587   6.604  11.750 -0.1096 -0.2020 -0.1625
18546TIP3    H277054   1.666   6.645  11.873 -0.5024 -0.2309  0.0992
18547TIP3   OH277055   3.834   1.620   0.740  0.2150  0.1096  0.4617
18547TIP3    H177056   3.860   1.614   0.832 -0.9894 -1.7745  0.7062
18547TIP3    H277057   3.787   1.539   0.723 -1.1544  1.2330 -1.3323
18548TIP3   OH277058   3.108   4.698  13.943  0.0239  0.1237 -0.0821
18548TIP3    H177059   3.148   4.685  13.857 -0.7182 -1.9683 -0.1318
18548TIP3    H277060   3.101   4.610  13.980 -0.4741  0.9150  1.7542
18549TIP3   OH277061   1.764   6.050  14.200 -0.0378 -0.0624  0.1128
18549TIP3    H177062   1.802   6.108  14.135  0.5625 -0.1834  0.3501
18549TIP3    H277063   1.825   6.053  14.274 -0.0924 -0.8468  0.1999
18550TIP3   OH277064   2.951   6.120   4.881  0.0848  0.1176  0.4022
18550TIP3    H177065   2.963   6.084   4.794 -0.8958 -0.1889  0.3852
18550TIP3    H277066   3.027   6.177   4.895 -0.6805  1.6247 -1.3798
18551TIP3   OH277067   3.457   5.489  12.183 -0.3646 -0.5686 -0.8049
18551TIP3    H177068   3.536   5.461  12.136  0.4341  0.6905 -0.2475
18551TIP3    H277069   3.475   5.580  12.208 -2.1719 -0.1322 -1.0262
18552TIP3   OH277070   4.770   6.582  14.881 -0.3024  0.3328  0.2324
18552TIP3    H177071   4.750   6.675  14.887 -0.7837  0.2811 -0.5499
18552TIP3    H277072   4.714   6.550  14.810  2.3455  0.1298 -1.8186
18553TIP3   OH277073   4.817   6.364  15.037 -0.2749 -0.2064 -0.2694
18553TIP3    H177074   4.872   6.306  14.984  0.8945  1.6651 -1.1613
18553TIP3    H277075   4.788   6.432  14.975 -0.0419  1.2293  1.1712
18554TIP3   OH277076   6.470   1.395  12.146  0.3747 -0.0506 -0.1658
18554TIP3    H177077   6.392   1.365  12.192  0.7892 -0.5912  0.2106
18554TIP3    H277078   6.466   1.352  12.061  0.4274 -0.3498 -0.0208
18555TIP3   OH277079   2.661   4.694  13.077  0.4899  0.4738  0.4204
18555TIP3    H177080   2.755   4.699  13.092  0.4989  0.7390  0.2915
18555TIP3    H277081   2.650   4.721  12.985  0.4565 -1.3618 -0.1276
18556TIP3   OH277082   2.618   5.984  14.496 -0.0649 -0.3891  0.0070
18556TIP3    H177083   2.559   6.057  14.477 -1.1846 -0.9273  1.3387
18556TIP3    H277084   2.650   6.002  14.584 -1.3663 -2.1588  0.8806
18557TIP3   OH277085   5.158   0.432  11.722  0.3212 -0.6738 -0.2039
18557TIP3    H177086   5.198   0.427  11.635  1.9131 -2.4789  0.5975
18557TIP3    H277087   5.169   0.523  11.749 -0.2917 -0.0678 -1.9230
18558TIP3   OH277088   4.949   5.519  16.490 -0.3756  0.3308  0.1321
18558TIP3    H177089   4.964   5.436  16.536 -1.5677  0.0734  0.0844
18558TIP3    H277090   5.006   5.582  16.534 -1.3752  0.0511  1.8608
18559TIP3   OH277091   4.078   1.643  16.320  0.2177  0.4431 -0.0900
18559TIP3    H177092   4.012   1.630  16.252  1.2973  1.2074 -1.3069
18559TIP3    H277093   4.061   1.574  16.383  1.0511 -2.1677 -2.6232
18560TIP3   OH277094   0.263   6.198   3.636  0.7161  0.0589 -0.4303
18560TIP3    H177095   0.259   6.290   3.664  0.9983  0.1344 -0.6386
18560TIP3    H277096   0.261   6.202   3.540 -0.1242 -0.1957 -0.4268
18561TIP3   OH277097   1.139   6.637  15.735  0.2098  1.0577  0.2238
18561TIP3    H177098   1.098   6.632  15.821 -0.5229  1.5108 -0.0933
18561TIP3    H277099   1.225   6.599  15.747 -0.0111  0.8262  1.0870
18562TIP3   OH277100   3.202   6.113   3.661  0.3058 -0.2095 -0.4200
18562TIP3    H177101   3.286   6.122   3.615  0.1850  0.2678 -0.5507
18562TIP3    H277102   3.136   6.141   3.596  0.3748  3.9393  1.1414
18563TIP3   OH277103   1.069   0.854   3.137  0.5434  0.0032 -0.1609
18563TIP3    H177104   1.155   0.897   3.136  1.7503 -2.2587  1.0993
18563TIP3    H277105   1.034   0.874   3.224  0.3423 -0.1033 -0.2196
18564TIP3   OH277106   3.785   4.155  16.761 -0.2890  0.3195 -0.4116
18564TIP3    H177107   3.808   4.242  16.794 -0.5575  1.0226 -2.0742
18564TIP3    H277108   3.690   4.156  16.753 -0.6656 -1.3471  2.9214
18565TIP3   OH277109   2.982   4.776  11.440  0.7339  0.5062 -0.0105
18565TIP3    H177110   2.958   4.854  11.490 -0.3954 -1.1530  2.1041
18565TIP3    H277111   2.902   4.753  11.392  0.4450 -0.4841  0.9276
18566TIP3   OH277112   4.498   5.001   3.125  0.8853 -0.0990 -0.4235
18566TIP3    H177113   4.441   4.945   3.073  0.8586 -0.0215 -0.4779
18566TIP3    H277114   4.494   5.086   3.082  0.9364 -0.0583 -0.3494
18567TIP3   OH277115   0.205   6.037  14.126 -0.0303  0.3713 -0.0919
18567TIP3    H177116   0.178   5.996  14.044  0.3240 -0.5073  0.2221
18567TIP3    H277117   0.266   6.105  14.100  0.7155 -0.4460 -0.5139
18568TIP3   OH277118   5.099   3.632   1.230  0.0443  0.1697 -0.2665
18568TIP3    H177119   5.085   3.685   1.308  1.1189 -0.8815  0.6616
18568TIP3    H277120   5.178   3.667   1.190  1.3992 -1.4030  0.9605
18569TIP3   OH277121   0.191   3.722  14.039  0.2457  0.3442 -0.0684
18569TIP3    H177122   0.226   3.678  14.117  0.5279 -1.7619 -1.3503
18569TIP3    H277123   0.118   3.666  14.010 -1.7745  2.6791  0.3694
18570TIP3   OH277124   2.702   3.249   0.128 -0.5890 -0.1235 -0.2021
18570TIP3    H177125   2.739   3.179   0.074  1.3056  2.0790 -1.8287
18570TIP3    H277126   2.622   3.275   0.082  0.0984  0.5676 -1.0060
18571TIP3   OH277127   0.749   5.599   2.959  0.2651 -0.7722  0.1504
18571TIP3    H177128   0.664   5.570   2.927  1.1250 -3.0267 -0.1675
18571TIP3    H277129   0.769   5.539   3.031 -0.3957  2.4851  3.1754
18572TIP3   OH277130   3.068   3.312  15.196  0.0764  0.1195  0.3527
18572TIP3    H177131   3.148   3.356  15.166 -0.5969  1.4764  0.5209
18572TIP3    H277132   3.012   3.383  15.226 -1.4580 -0.7836 -0.3548
18573TIP3   OH277133   2.884   3.481   2.328 -0.2749  0.3731 -0.2889
18573TIP3    H177134   2.789   3.467   2.328 -0.6716  2.4418  3.1078
18573TIP3    H277135   2.895   3.575   2.321  1.3440  0.5071  2.8449
18574TIP3   OH277136   5.327   5.581   4.044 -0.3005 -0.1576  0.5404
18574TIP3    H177137   5.311   5.487   4.040 -0.0324 -0.2574  1.6498
18574TIP3    H277138   5.243   5.620   4.069 -0.0688 -0.2385  1.4750
18575TIP3   OH277139   1.357   0.659  16.153 -0.2004 -0.1327  0.0591
18575TIP3    H177140   1.397   0.687  16.235 -0.4355 -0.2586  0.2135
18575TIP3    H277141   1.431   0.627  16.100 -0.0471 -0.0294  0.2123
18576TIP3   OH277142   5.927   4.938   1.216  0.1205  0.2225 -0.5330
18576TIP3    H177143   5.977   4.861   1.243  0.5743 -0.1584 -2.3697
18576TIP3    H277144   5.901   4.980   1.298  0.1344 -1.7066  0.4959
18577TIP3   OH277145   3.160   4.432  16.465 -0.6259  0.1937  0.2061
18577TIP3    H177146   3.080   4.459  16.421  0.8404  0.9806 -2.0699
18577TIP3    H277147   3.158   4.337  16.465 -2.0409  0.2085  1.1288
18578TIP3   OH277148   5.242   1.007   6.204  0.3231 -0.0385  0.1697
18578TIP3    H177149   5.263   0.917   6.228 -1.4313 -0.3305  0.6848
18578TIP3    H277150   5.171   0.999   6.141 -0.5692  1.0199  1.0236
18579TIP3   OH277151   2.702   0.226  13.151 -0.0814  0.1311 -0.4147
18579TIP3    H177152   2.636   0.168  13.113  0.6034 -2.5446  2.2670
18579TIP3    H277153   2.676   0.236  13.242  1.6067  1.4381 -0.0406
18580TIP3   OH277154   2.175   1.421   6.631  0.4972  0.0540 -0.5014
18580TIP3    H177155   2.108   1.378   6.579  0.6412 -0.7852 -0.0063
18580TIP3    H277156   2.198   1.357   6.699  0.7462  0.8897  0.2206
18581TIP3   OH277157   5.588   6.170   0.066 -0.6908 -0.6922 -0.4657
18581TIP3    H177158   5.683   6.165   0.072 -0.3918  3.8713 -0.0763
18581TIP3    H277159   5.567   6.140  -0.022  1.0178 -2.0561 -0.4325
18582TIP3   OH277160   4.393   2.885   3.437  0.6891 -0.4350  0.2185
18582TIP3    H177161   4.476   2.843   3.414  1.2156  1.9235 -2.4658
18582TIP3    H277162   4.326   2.826   3.403  1.3964  0.2667 -2.4939
18583TIP3   OH277163   5.321   6.134   0.090  0.0016 -0.3923 -0.0706
18583TIP3    H177164   5.314   6.042   0.065 -0.4113 -0.2095 -0.6325
18583TIP3    H277165   5.411   6.143   0.122  0.0026 -1.0214  0.1186
18584TIP3   OH277166   6.645   1.864  12.447 -0.2017  0.3797 -0.0710
18584TIP3    H177167   6.666   1.951  12.481 -2.6603  0.9045  0.2022
18584TIP3    H277168   6.632   1.811  12.526  3.0941 -0.7428 -0.2198
18585TIP3   OH277169   3.533   2.554  12.827 -0.5015  0.4049  0.0539
18585TIP3    H177170   3.458   2.584  12.878  0.0381  0.6830  0.6806
18585TIP3    H277171   3.591   2.630  12.822  0.3825 -0.2236  0.7480
18586TIP3   OH277172   1.014   3.313   0.171  0.1222 -0.5135 -0.3117
18586TIP3    H177173   1.005   3.378   0.240 -0.3415 -1.4369  0.5035
18586TIP3    H277174   0.962   3.348   0.098  0.5525  0.4207 -0.1791
18587TIP3   OH277175   2.102   2.827  13.945  0.9191  0.5302  0.0369
18587TIP3    H177176   2.077   2.919  13.935 -0.3048  0.1420 -0.5491
18587TIP3    H277177   2.053   2.797  14.022  1.2833  0.3571  0.2004
18588TIP3   OH277178   0.178   1.127   5.995 -0.1175  1.0591  0.5119
18588TIP3    H177179   0.159   1.179   6.073  1.1930  1.1079  0.8150
18588TIP3    H277180   0.209   1.043   6.030 -0.6282  0.6753  0.0371
18589TIP3   OH277181   4.640   6.056   2.009  0.8379 -0.0431  0.1725
18589TIP3    H177182   4.672   6.134   1.963  2.3532 -0.1610  0.9811
18589TIP3    H277183   4.712   6.032   2.067 -0.2127 -1.1682  1.0243
18590TIP3   OH277184   3.098   5.373   4.347 -0.2873 -0.1171 -0.2652
18590TIP3    H177185   3.003   5.373   4.348 -0.3617  3.0033 -0.2217
18590TIP3    H277186   3.122   5.466   4.355  2.7602 -0.9184  0.7474
18591TIP3   OH277187   5.997   0.585  13.661 -0.0577  0.2445 -0.4790
18591TIP3    H177188   5.915   0.541  13.636 -1.0148  1.2522  0.7936
18591TIP3    H277189   6.034   0.616  13.578 -0.4924 -1.0195 -1.1558
18592TIP3   OH277190   1.145   0.164   6.464 -0.2081 -0.1172  0.0576
18592TIP3    H177191   1.120   0.128   6.549  0.2685 -0.2744  0.1308
18592TIP3    H277192   1.229   0.124   6.445 -0.3545 -0.1469 -0.5298
18593TIP3   OH277193   1.016   2.751  13.687  0.3949 -0.1490 -0.0379
18593TIP3    H177194   0.974   2.667  13.704  2.3180 -1.6438 -2.3927
18593TIP3    H277195   0.943   2.812  13.678 -1.1333 -1.9722 -0.4090
18594TIP3   OH277196   2.484   4.470   5.306 -0.2291 -0.0001 -0.4771
18594TIP3    H177197   2.493   4.553   5.259  0.4941  0.5244  0.5786
18594TIP3    H277198   2.517   4.405   5.244 -2.2467  0.2845 -1.9112
18595TIP3   OH277199   3.584   3.158  12.439 -0.0501  0.7241  0.0666
18595TIP3    H177200   3.498   3.200  12.446 -0.6141 -0.5720  1.1724
18595TIP3    H277201   3.606   3.134  12.529  0.9245 -0.0338 -0.3681
18596TIP3   OH277202   2.336   1.310   0.154  0.2003 -0.1077  0.1764
18596TIP3    H177203   2.411   1.261   0.187 -0.2924 -1.7130 -1.0432
18596TIP3    H277204   2.263   1.283   0.211 -0.1001 -0.9153 -0.5801
18597TIP3   OH277205   5.835   5.031   3.512 -0.0850  0.3303 -0.3797
18597TIP3    H177206   5.848   4.953   3.459 -1.7315  0.4400 -0.9816
18597TIP3    H277207   5.911   5.034   3.570  1.0395 -0.5424 -1.7944
18598TIP3   OH277208   5.672   0.430   1.177 -0.7245 -0.6449  0.1294
18598TIP3    H177209   5.701   0.344   1.208 -2.1965 -0.8154  1.1136
18598TIP3    H277210   5.582   0.415   1.147 -1.1242  0.6267  0.6721
18599TIP3   OH277211   4.105   6.180   0.523  0.4202 -0.3377 -0.4827
18599TIP3    H177212   4.103   6.085   0.520  0.7958 -0.4563  1.7423
18599TIP3    H277213   4.048   6.203   0.597  0.1016  1.1707 -1.1740
18600TIP3   OH277214   5.039   3.790  16.513  0.3864 -0.2203 -0.0640
18600TIP3    H177215   5.023   3.813  16.605 -2.1028 -1.7991 -0.0286
18600TIP3    H277216   5.120   3.739  16.515  1.5383  1.6021  0.9344
18601TIP3   OH277217   0.915   3.643   3.169 -0.1072  0.1783  0.0873
18601TIP3    H177218   0.913   3.568   3.109  0.6030  1.6231 -1.8042
18601TIP3    H277219   1.000   3.685   3.152 -0.5861  1.5325  0.9504
18602TIP3   OH277220   1.128   4.802   1.109 -0.0999  0.7922  0.2833
18602TIP3    H177221   1.183   4.880   1.120  1.1607 -0.0174 -0.2198
18602TIP3    H277222   1.049   4.835   1.067 -0.2495  2.0710  1.5544
18603TIP3   OH277223   3.107   1.672   0.721 -0.4268  0.1241 -0.5188
18603TIP3    H177224   3.064   1.660   0.636  1.2240 -2.0809 -1.0544
18603TIP3    H277225   3.113   1.767   0.731 -2.6908  0.4416 -1.7999
18604TIP3   OH277226   5.165   5.658   2.450 -0.2381 -0.1286 -0.1567
18604TIP3    H177227   5.140   5.697   2.534  2.1280 -1.1632  1.0765
18604TIP3    H277228   5.100   5.589   2.435 -0.5118 -0.1252  0.9796
18605TIP3   OH277229   6.487   1.640  11.478  0.3212 -0.1357 -0.2962
18605TIP3    H177230   6.446   1.723  11.502 -2.5944 -1.7301  0.4182
18605TIP3    H277231   6.545   1.620  11.551  0.8654  1.1499 -0.3684
18606TIP3   OH277232   4.654   0.696  16.087 -0.1059  0.3754  0.2971
18606TIP3    H177233   4.711   0.648  16.147  2.7065  2.0788 -0.9264
18606TIP3    H277234   4.665   0.652  16.003 -1.9184 -0.2987  0.3847
18607TIP3   OH277235   3.750   5.593  13.310 -0.2590  0.2078 -0.0448
18607TIP3    H177236   3.775   5.668  13.363 -2.3829  1.6523 -1.0032
18607TIP3    H277237   3.687   5.545  13.365  0.6329 -0.5574  0.3256
18608TIP3   OH277238   2.444   6.072  15.496  0.4298  0.1102 -0.0074
18608TIP3    H177239   2.422   6.025  15.416  0.1640 -1.2025  0.8215
18608TIP3    H277240   2.467   6.004  15.559  0.1539  1.0885  1.1858
18609TIP3   OH277241   2.938   5.131   1.528  0.2456 -0.1023 -0.2636
18609TIP3    H177242   2.881   5.128   1.604  0.6255 -0.9651 -0.0134
18609TIP3    H277243   2.928   5.045   1.487  0.9825 -0.0815 -0.4967
18610TIP3   OH277244   4.460   0.942   2.750 -0.6038  0.4869  0.2136
18610TIP3    H177245   4.422   0.976   2.831  1.1522 -3.1684  2.7047
18610TIP3    H277246   4.463   0.848   2.763  1.9414  0.0193 -3.1678
18611TIP3   OH277247   0.749   4.009  11.404  0.0458 -0.2835 -0.3043
18611TIP3    H177248   0.738   3.931  11.351  0.7618  2.0269 -4.0654
18611TIP3    H277249   0.844   4.013  11.421  0.1690  0.2734 -1.0524
18612TIP3   OH277250   0.326   0.930   3.822  0.2763 -0.2911  0.3969
18612TIP3    H177251   0.376   0.941   3.903  0.9107 -1.5555  0.1778
18612TIP3    H277252   0.255   0.870   3.846  0.9363 -1.3159 -0.1743
18613TIP3   OH277253   2.218   1.167  16.194  0.0256 -0.2084  0.2287
18613TIP3    H177254   2.126   1.185  16.211  0.1529 -0.2406  0.9839
18613TIP3    H277255   2.231   1.077  16.225 -0.2642 -1.1069 -2.1567
18614TIP3   OH277256   4.152   5.588  10.317  0.5771 -0.3260 -0.1490
18614TIP3    H177257   4.213   5.661  10.328  2.2299 -1.1823 -3.0563
18614TIP3    H277258   4.065   5.627  10.326  1.4636  1.1820  2.6239
18615TIP3   OH277259   6.780   3.432  15.040 -0.3037 -0.3021 -0.3561
18615TIP3    H177260   6.856   3.466  15.087 -0.0042 -2.2833  0.6498
18615TIP3    H277261   6.814   3.364  14.983 -1.0228  0.3916 -1.6454
18616TIP3   OH277262   1.735   3.491  11.112 -0.6075 -0.0482  0.4615
18616TIP3    H177263   1.827   3.464  11.114 -0.5706  0.0432  0.0948
18616TIP3    H277264   1.734   3.575  11.158 -0.3539  0.3859 -0.3126
18617TIP3   OH277265   0.133   1.245   6.246  0.2140 -0.1731 -0.2502
18617TIP3    H177266   0.155   1.327   6.202  2.3347 -0.9955 -0.7886
18617TIP3    H277267   0.182   1.247   6.328  0.1560 -0.8157 -0.1968
18618TIP3   OH277268   4.900   4.109  13.043 -0.1688  0.0660  0.0502
18618TIP3    H177269   4.931   4.018  13.047 -1.7715 -0.4645  0.6862
18618TIP3    H277270   4.809   4.104  13.071  0.2515  2.1491  1.8574
18619TIP3   OH277271   4.042   5.159   3.474 -0.1736  0.0991  0.2140
18619TIP3    H177272   3.977   5.155   3.545  0.7549 -0.9344  1.0154
18619TIP3    H277273   4.115   5.208   3.511 -0.0310  0.2902 -0.3184
18620TIP3   OH277274   4.975   5.428  13.810  0.7334 -0.2643  0.1690
18620TIP3    H177275   4.947   5.340  13.835  2.3935 -0.7995  0.2258
18620TIP3    H277276   5.070   5.421  13.800  0.8486  1.4499 -0.1339
18621TIP3   OH277277   2.822   6.779   3.573 -0.3465  0.5985  0.1441
18621TIP3    H177278   2.811   6.799   3.480  1.5515 -0.2274 -0.2889
18621TIP3    H277279   2.867   6.856   3.608  5.0028 -1.7201 -1.0764
18622TIP3   OH277280   1.507   4.053  12.580  0.0946 -0.2017  0.4446
18622TIP3    H177281   1.601   4.061  12.561 -0.0706  1.0380  0.0961
18622TIP3    H277282   1.480   4.142  12.602 -0.9904 -0.5689  0.5993
18623TIP3   OH277283   1.282   0.961  16.972  0.2649  0.4714 -0.4746
18623TIP3    H177284   1.310   0.897  16.907  0.9296  0.3004 -0.0364
18623TIP3    H277285   1.220   1.018  16.927 -0.6818 -0.7609 -0.7533
18624TIP3   OH277286   5.163   3.178   0.535  0.1940 -0.0042  0.4618
18624TIP3    H177287   5.107   3.223   0.598  1.4668  0.7886  1.0514
18624TIP3    H277288   5.167   3.088   0.567 -1.8539 -0.4168 -0.3669
18625TIP3   OH277289   0.322   3.519  16.087  0.3705  0.5249 -0.1372
18625TIP3    H177290   0.320   3.595  16.029 -0.4602  0.6902  0.1067
18625TIP3    H277291   0.263   3.456  16.046 -0.2421  0.6525  0.5395
18626TIP3   OH277292   3.720   1.946   3.518 -0.1162  0.3373 -0.1885
18626TIP3    H177293   3.753   1.964   3.606 -0.3449 -1.8622  0.3755
18626TIP3    H277294   3.762   1.864   3.493 -1.2378  0.1591 -1.5217
18627TIP3   OH277295   0.762   3.112  13.762  0.4522  0.3081 -0.1003
18627TIP3    H177296   0.746   3.018  13.754  2.4409 -0.0974  0.4239
18627TIP3    H277297   0.677   3.152  13.744 -0.1394 -1.5195 -1.5721
18628TIP3   OH277298   6.626   1.569  10.423 -0.6839 -0.5596 -0.1880
18628TIP3    H177299   6.539   1.577  10.462 -0.5937 -0.8224  0.0656
18628TIP3    H277300   6.659   1.486  10.455  0.5115  0.5126  1.4048
18629TIP3   OH277301   2.585   5.272   1.363  0.4693  0.4450  0.3245
18629TIP3    H177302   2.591   5.330   1.287 -0.0623 -1.7206 -1.4145
18629TIP3    H277303   2.504   5.299   1.407  1.4343  2.5529  0.8647
18630TIP3   OH277304   4.994   1.315  15.692 -0.0256 -0.2751  0.5954
18630TIP3    H177305   5.013   1.258  15.766  1.1474 -1.0830 -0.3101
18630TIP3    H277306   5.065   1.298  15.629 -0.3447  1.2488 -0.2167
18631TIP3   OH277307   1.846   5.542  16.168 -0.1504 -0.4360 -0.1054
18631TIP3    H177308   1.786   5.523  16.241 -1.1492  0.2381 -0.7325
18631TIP3    H277309   1.845   5.462  16.115 -0.5663 -0.4062 -0.1472
18632TIP3   OH277310   6.545   5.704  16.230 -0.2339  0.5895  0.1195
18632TIP3    H177311   6.579   5.619  16.201 -0.4472  0.5746 -0.0880
18632TIP3    H277312   6.469   5.719  16.175 -1.7284 -0.2841  1.8965
18633TIP3   OH277313   5.591   2.981  14.748 -0.0633  0.2470  0.4818
18633TIP3    H177314   5.681   3.012  14.760  0.4752 -0.9777 -0.3587
18633TIP3    H277315   5.561   2.962  14.837  0.5599  0.4970  0.7491
18634TIP3   OH277316   5.986   5.402  12.506 -0.1088  0.7351 -0.0055
18634TIP3    H177317   6.080   5.407  12.521 -0.2396  0.1217  1.0229
18634TIP3    H277318   5.971   5.461  12.431  1.5859 -1.8525 -2.4721
18635TIP3   OH277319   0.757   1.597   3.911 -0.5185 -0.7565  0.4246
18635TIP3    H177320   0.758   1.566   4.001  0.4462 -1.4396  0.1812
18635TIP3    H277321   0.664   1.595   3.887 -0.5241 -3.2117  0.5146
18636TIP3   OH277322   1.021   3.861   4.063 -0.0968  0.0074  0.3313
18636TIP3    H177323   1.085   3.822   4.124 -1.8217 -0.5405  1.8361
18636TIP3    H277324   1.072   3.882   3.985  1.3071 -3.4391  0.2248
18637TIP3   OH277325   1.341   5.032  15.676 -0.3958 -0.2741  0.2465
18637TIP3    H177326   1.295   5.115  15.665 -1.5624 -0.9717 -0.2526
18637TIP3    H277327   1.411   5.034  15.611 -0.6154  0.1994  0.0240
18638TIP3   OH277328   2.203   0.659   2.455 -0.8438  0.0411 -0.0748
18638TIP3    H177329   2.222   0.711   2.377 -1.5741 -0.1478 -0.3806
18638TIP3    H277330   2.282   0.609   2.471 -0.5594  0.3658 -0.4732
18639TIP3   OH277331   4.042   3.646  15.089  0.2744 -0.4991  0.2446
18639TIP3    H177332   4.066   3.725  15.139 -1.9694 -0.0590  0.6585
18639TIP3    H277333   4.025   3.580  15.156 -1.6664 -0.2240  0.0266
18640TIP3   OH277334   5.047   1.266  12.301  0.5641  0.4327 -0.2695
18640TIP3    H177335   5.062   1.202  12.231 -0.3801  0.1774 -0.2405
18640TIP3    H277336   4.969   1.234  12.347  0.5985  1.1355  0.2809
18641TIP3   OH277337   6.433   0.948  13.209  0.0503 -0.1695 -0.4353
18641TIP3    H177338   6.465   0.863  13.178 -0.5568 -0.4472 -0.2954
18641TIP3    H277339   6.398   0.930  13.296 -1.1754 -0.0098 -0.8844
18642TIP3   OH277340   1.257   1.002  15.531 -0.1785  0.1307  0.2182
18642TIP3    H177341   1.204   1.031  15.457  0.1414  0.2521  0.0376
18642TIP3    H277342   1.319   0.940  15.494  1.7261  2.1558 -0.0949
18643TIP3   OH277343   2.077   1.068   1.368 -0.5308  0.2044 -0.1951
18643TIP3    H177344   2.094   1.010   1.442 -1.0341 -1.1251 -1.1019
18643TIP3    H277345   1.986   1.096   1.379 -0.4142  0.5010  0.0208
18644TIP3   OH277346   5.719   3.643   2.995  0.3050 -0.6065 -0.1881
18644TIP3    H177347   5.641   3.588   3.000 -1.3443  1.7358  0.0865
18644TIP3    H277348   5.755   3.642   3.084 -0.7052  0.2041  0.2231
18645TIP3   OH277349   4.818   2.653   4.470 -0.4580 -0.1887  0.4416
18645TIP3    H177350   4.811   2.649   4.375  0.7516 -1.6194  0.4140
18645TIP3    H277351   4.739   2.700   4.497 -0.5573  0.6820 -1.2923
18646TIP3   OH277352   3.954   5.473   5.644 -0.3092  0.5308 -0.0188
18646TIP3    H177353   3.908   5.464   5.561  0.6932 -0.8039 -0.4363
18646TIP3    H277354   4.010   5.550   5.632 -0.0966  0.2874 -0.6223
18647TIP3   OH277355   2.847   4.008  14.707 -0.0171 -0.4830  0.2663
18647TIP3    H177356   2.906   3.957  14.762  1.9373 -1.8550 -2.9776
18647TIP3    H277357   2.772   3.950  14.692  0.4769 -0.9784 -0.3200
18648TIP3   OH277358   1.995   5.514  14.295 -0.2768  0.1460  0.1101
18648TIP3    H177359   1.939   5.584  14.330 -0.0885  0.3618 -0.0145
18648TIP3    H277360   2.065   5.561  14.249 -0.5005 -0.1390 -0.5120
18649TIP3   OH277361   0.641   2.646   5.492 -0.2948 -0.1298  0.3288
18649TIP3    H177362   0.599   2.714   5.544  1.4881  0.5703  0.8768
18649TIP3    H277363   0.577   2.626   5.424 -1.0611  1.7144  0.4664
18650TIP3   OH277364   0.232   3.625  12.729 -0.4399  0.3309 -0.3867
18650TIP3    H177365   0.161   3.617  12.792 -1.1822  0.6328 -1.1800
18650TIP3    H277366   0.290   3.692  12.766 -0.1020 -0.5422  0.6895
18651TIP3   OH277367   1.419   2.024   5.319  0.1392 -0.4173 -0.7441
18651TIP3    H177368   1.332   2.061   5.305  0.1710  0.4444  1.2301
18651TIP3    H277369   1.478   2.085   5.276  0.0346  0.8276  0.8552
18652TIP3   OH277370   3.550   3.445   4.570 -0.3486  0.3050 -0.0795
18652TIP3    H177371   3.511   3.496   4.498  0.4277  0.1207 -0.6434
18652TIP3    H277372   3.608   3.383   4.526 -0.2796 -0.1806  0.6876
18653TIP3   OH277373   3.088   3.002  16.988  0.4011 -0.0240  0.1953
18653TIP3    H177374   3.083   2.978  16.895 -0.9010 -0.1916  0.2962
18653TIP3    H277375   3.162   2.951  17.021  0.4107 -0.5379 -0.5874
18654TIP3   OH277376   5.832   4.597   4.115 -0.1054 -0.5723  0.0039
18654TIP3    H177377   5.833   4.660   4.043  0.7006 -0.4912  0.0829
18654TIP3    H277378   5.870   4.645   4.189  0.8393 -1.2630 -0.0331
18655TIP3   OH277379   3.455   6.162  10.421 -0.2165 -0.4397  0.5721
18655TIP3    H177380   3.504   6.242  10.405  0.3666 -1.1550 -1.4383
18655TIP3    H277381   3.368   6.179  10.386  0.0250 -0.8180 -0.2149
18656TIP3   OH277382   2.423   2.028  16.608 -0.0938  0.4917 -0.1667
18656TIP3    H177383   2.380   2.031  16.523  0.5438 -0.8920 -0.5637
18656TIP3    H277384   2.453   1.937  16.616  0.5635  0.8146  1.1716
18657TIP3   OH277385   2.816   0.122  11.468  0.0534 -0.2128 -0.1645
18657TIP3    H177386   2.890   0.119  11.408 -0.3650 -2.0399 -0.6199
18657TIP3    H277387   2.847   0.079  11.547 -0.2807 -0.2897 -0.0744
18658TIP3   OH277388   0.125   3.921  14.420  0.0644  0.1098  0.5716
18658TIP3    H177389   0.152   3.974  14.495  0.0079  1.0457 -0.0669
18658TIP3    H277390   0.193   3.936  14.355  1.0215 -2.0164  1.0176
18659TIP3   OH277391   6.305   1.770  16.282 -0.0433 -0.2367 -0.2128
18659TIP3    H177392   6.248   1.837  16.244  1.3847  2.3111  1.9969
18659TIP3    H277393   6.326   1.803  16.369  2.8117 -2.3360 -0.0498
18660TIP3   OH277394   6.747   1.328  15.873  0.5377  0.5225 -0.2306
18660TIP3    H177395   6.735   1.245  15.826  1.8744  0.6656 -0.8373
18660TIP3    H277396   6.726   1.396  15.809  1.1222  0.6865 -0.2510
18661TIP3   OH277397   2.007   4.104  16.302  0.1689  0.1148 -0.0282
18661TIP3    H177398   1.988   4.049  16.378  1.9835  1.0838  1.1606
18661TIP3    H277399   2.065   4.051  16.248  0.1029  0.0027  0.0093
18662TIP3   OH277400   0.128   5.983  16.899 -0.3303 -0.0385  0.4889
18662TIP3    H177401   0.080   5.966  16.818  0.7009 -0.1207 -0.1019
18662TIP3    H277402   0.201   6.039  16.873 -0.2034  0.2390  1.4172
18663TIP3   OH277403   3.630   3.473   1.021 -0.1099 -0.3385 -0.2534
18663TIP3    H177404   3.544   3.434   1.034 -0.5275  0.3914 -0.7486
18663TIP3    H277405   3.636   3.541   1.088 -0.4573  0.4688 -1.0236
18664TIP3   OH277406   4.611   0.771   4.407  0.1370 -0.0630 -0.0819
18664TIP3    H177407   4.520   0.755   4.432  0.3292  0.0906  0.7358
18664TIP3    H277408   4.634   0.695   4.353 -0.4000 -0.2189 -0.0991
18665TIP3   OH277409   4.785   3.063   0.269  0.8255 -0.3809  0.7004
18665TIP3    H177410   4.783   2.989   0.330 -2.5517 -0.1178  0.9918
18665TIP3    H277411   4.737   3.132   0.314 -1.2280  0.0085 -1.9953
18666TIP3   OH277412   5.031   6.372  14.291 -0.0317 -0.5351 -0.4128
18666TIP3    H177413   4.994   6.284  14.280  0.6906 -1.0339  1.0201
18666TIP3    H277414   5.100   6.361  14.356  0.0976  1.1005 -0.2472
18667TIP3   OH277415   1.626   4.151  11.568 -0.5739 -0.1916  0.0865
18667TIP3    H177416   1.574   4.106  11.501 -0.5835  1.5689 -1.1355
18667TIP3    H277417   1.713   4.114  11.559 -1.2551 -2.1115  1.1540
18668TIP3   OH277418   2.371   5.319   0.879 -0.4466 -0.1073  0.3847
18668TIP3    H177419   2.280   5.289   0.887 -1.5588  2.4701 -1.7289
18668TIP3    H277420   2.369   5.410   0.907  1.5652 -0.1071  0.6086
18669TIP3   OH277421   2.374   0.401   3.274  0.8188  0.3353  0.2516
18669TIP3    H177422   2.381   0.306   3.288  0.7621  0.2292 -0.4122
18669TIP3    H277423   2.356   0.437   3.361 -0.8832 -0.4421  0.2477
18670TIP3   OH277424   1.336   2.316  17.108  0.3769 -0.0351 -0.1710
18670TIP3    H177425   1.360   2.227  17.083 -0.9869 -0.5938  0.4175
18670TIP3    H277426   1.419   2.364  17.111  1.3269 -1.6934  1.0986
18671TIP3   OH277427   0.072   0.317  15.134  0.2748 -0.1380  0.0274
18671TIP3    H177428   0.163   0.303  15.160  0.0524 -1.8462 -0.0520
18671TIP3    H277429   0.069   0.408  15.105  1.1673  1.0426  3.3664
18672TIP3   OH277430   3.097   1.724   1.583 -0.2681 -0.5733 -0.1621
18672TIP3    H177431   3.043   1.786   1.633 -1.7701 -1.0115 -1.2126
18672TIP3    H277432   3.102   1.762   1.495  0.5900 -0.8774 -0.2439
18673TIP3   OH277433   0.013   1.231   4.419  0.1229 -0.1326 -0.0977
18673TIP3    H177434   0.100   1.191   4.410 -0.4236 -1.0340 -1.5168
18673TIP3    H277435   0.031   1.325   4.423  1.1274 -0.2771 -0.9684
18674TIP3   OH277436   2.250   0.702   4.656 -0.3207  0.3762  0.2593
18674TIP3    H177437   2.233   0.661   4.741 -0.6328 -0.9961 -0.4382
18674TIP3    H277438   2.331   0.660   4.626 -0.1178  0.9825 -0.0379
18675TIP3   OH277439   3.712   1.911  13.610  0.4114 -0.5275 -0.3673
18675TIP3    H177440   3.687   1.967  13.683  1.0943 -0.8093  0.0948
18675TIP3    H277441   3.718   1.969  13.535  0.3439 -0.1206 -0.0565
18676TIP3   OH277442   5.465   0.942   2.805 -0.0584  0.9521 -0.3555
18676TIP3    H177443   5.426   1.015   2.852 -2.1311  0.0194 -0.5860
18676TIP3    H277444   5.513   0.893   2.872 -0.9769  0.9795  0.3347
18677TIP3   OH277445   2.442   4.717   1.669 -0.3685 -0.2086  0.2969
18677TIP3    H177446   2.443   4.805   1.632  0.7386 -0.4069 -0.1736
18677TIP3    H277447   2.475   4.727   1.758 -2.5817  0.2010  1.0910
18678TIP3   OH277448   4.152   0.209   5.556 -0.5365  0.0646 -0.0818
18678TIP3    H177449   4.065   0.215   5.595  0.1778 -2.8412  2.1102
18678TIP3    H277450   4.141   0.148   5.484 -0.2251 -0.7281  0.5345
18679TIP3   OH277451   0.624   6.714  11.377 -0.2631  0.3812 -0.1667
18679TIP3    H177452   0.530   6.708  11.359 -0.0402 -2.8328 -0.5178
18679TIP3    H277453   0.632   6.689  11.469  0.1100  2.1785  0.2992
18680TIP3   OH277454   4.751   3.127  14.761  0.3397 -0.0777 -0.1894
18680TIP3    H177455   4.729   3.218  14.781  0.0479  0.3073 -2.0985
18680TIP3    H277456   4.846   3.121  14.771  0.3865  0.5097 -0.3059
18681TIP3   OH277457   4.787   1.963  15.961  0.0743 -0.2818  0.1273
18681TIP3    H177458   4.749   1.911  16.033  2.0255 -1.4329  0.3605
18681TIP3    H277459   4.740   2.046  15.965 -0.9110 -0.8754  1.7847
18682TIP3   OH277460   2.799   0.343  14.252  0.0566 -0.6684  0.7291
18682TIP3    H177461   2.792   0.250  14.231  0.8944 -0.6549  0.3651
18682TIP3    H277462   2.768   0.388  14.174  0.0547 -0.6402  0.7463
18683TIP3   OH277463   1.504   2.194  14.516  0.1029 -0.3425  0.0552
18683TIP3    H177464   1.455   2.266  14.554 -1.7490 -1.4390 -0.2193
18683TIP3    H277465   1.576   2.236  14.469  0.3061  1.1929  1.7083
18684TIP3   OH277466   3.151   2.806   3.707  0.2382  0.8560  0.4008
18684TIP3    H177467   3.216   2.818   3.638  2.2195 -2.2983  1.5805
18684TIP3    H277468   3.194   2.835   3.787  0.6107 -2.0945  1.3334
18685TIP3   OH277469   2.774   2.256   2.471 -0.2353  0.5165 -0.4801
18685TIP3    H177470   2.728   2.323   2.522  2.8055  0.8097  2.0471
18685TIP3    H277471   2.750   2.173   2.512 -2.2848  0.2229 -2.2320
18686TIP3   OH277472   0.114   2.068  13.707 -0.1210 -0.0208 -0.5787
18686TIP3    H177473   0.116   2.093  13.799  0.9862  0.7194 -0.8032
18686TIP3    H277474   0.061   2.135  13.665 -0.3956 -0.2066 -0.5317
18687TIP3   OH277475   3.686   3.488  16.673  0.1132 -0.0942 -0.0547
18687TIP3    H177476   3.716   3.573  16.705  0.8031 -0.4944  0.3777
18687TIP3    H277477   3.599   3.477  16.711 -0.3983  0.8743 -0.9533
18688TIP3   OH277478   0.950   4.120   3.480 -0.3822  0.2631 -0.0145
18688TIP3    H177479   0.920   4.206   3.453 -2.6804 -0.4410  0.1831
18688TIP3    H277480   0.964   4.072   3.398  1.9904  1.1441 -0.1600
18689TIP3   OH277481   4.113   2.994  15.122 -0.0389  0.2691 -0.4188
18689TIP3    H177482   4.123   3.065  15.058  2.4452  2.2336  2.0582
18689TIP3    H277483   4.054   3.031  15.188  0.9448 -0.1342  0.6754
18690TIP3   OH277484   1.744   0.239   0.096  0.5041  0.2592 -0.6569
18690TIP3    H177485   1.799   0.285   0.160  0.7508 -1.5804  0.5023
18690TIP3    H277486   1.735   0.151   0.132 -2.6564  0.3270 -1.1972
18691TIP3   OH277487   2.524   1.427   2.301  0.0277  0.0015  0.3572
18691TIP3    H177488   2.612   1.462   2.314 -0.2897  0.6460  0.8039
18691TIP3    H277489   2.467   1.486   2.352 -0.8506  0.5946 -1.2625
18692TIP3   OH277490   3.035   1.559  16.024 -0.7288 -0.4163 -0.2486
18692TIP3    H177491   3.099   1.617  16.065 -0.9831 -0.5723  0.3622
18692TIP3    H277492   2.957   1.614  16.013 -0.5513 -0.2759 -0.8397
18693TIP3   OH277493   4.839   1.368   5.029 -0.3512 -0.0800 -0.0951
18693TIP3    H177494   4.787   1.292   5.002  0.9325 -1.3643  0.9430
18693TIP3    H277495   4.792   1.403   5.104  0.1072 -1.0840  0.6799
18694TIP3   OH277496   3.305   6.127   4.002  0.0376 -0.4352 -0.1760
18694TIP3    H177497   3.227   6.174   3.973 -0.1476  0.8395  2.2228
18694TIP3    H277498   3.367   6.136   3.929 -1.9372 -1.2676 -2.0051
18695TIP3   OH277499   3.337   6.596   2.370  0.2247  0.2750  0.7557
18695TIP3    H177500   3.267   6.649   2.333  0.4402 -0.6944 -1.0968
18695TIP3    H277501   3.414   6.652   2.368  0.4328 -0.0678 -1.1125
18696TIP3   OH277502   1.595   1.015  14.562  0.1317 -0.0178 -0.1794
18696TIP3    H177503   1.642   0.971  14.633  1.0994  0.1976 -0.6849
18696TIP3    H277504   1.579   1.103  14.596  1.7575  0.5045 -0.7249
18697TIP3   OH277505   1.459   5.349   0.117 -0.4104  0.1113 -0.5056
18697TIP3    H177506   1.408   5.330   0.196 -1.2574  0.6449 -0.9124
18697TIP3    H277507   1.393   5.378   0.053  0.3496  0.3273 -1.1927
18698TIP3   OH277508   1.750   6.042  14.754 -0.0563  0.3665 -0.1478
18698TIP3    H177509   1.725   6.120  14.803  1.3256  1.7089 -1.5082
18698TIP3    H277510   1.781   5.980  14.821 -0.6800  1.1557  0.8884
18699TIP3   OH277511   4.622   3.565   4.400  0.6166 -0.2454  0.3861
18699TIP3    H177512   4.569   3.582   4.478 -1.1367 -0.2148 -0.7631
18699TIP3    H277513   4.557   3.541   4.333  2.3553 -4.1896 -0.0184
18700TIP3   OH277514   3.579   5.201  12.321 -0.1261  0.5839 -0.5780
18700TIP3    H177515   3.580   5.224  12.228  0.9204  1.5470 -0.3403
18700TIP3    H277516   3.665   5.229  12.353 -0.6136  0.5748  0.7496
18701TIP3   OH277517   0.313   3.579   5.280 -0.6117 -0.0909  0.6829
18701TIP3    H177518   0.365   3.647   5.237 -2.5450  1.0334  0.0640
18701TIP3    H277519   0.327   3.500   5.227  0.8496  0.0491  0.8368
18702TIP3   OH277520   2.070   5.221   5.292 -0.1922  0.3025  0.7813
18702TIP3    H177521   2.069   5.202   5.198 -0.6868 -0.2801  0.8984
18702TIP3    H277522   2.151   5.270   5.306 -0.7158  1.4367 -0.1484
18703TIP3   OH277523   2.661   0.949  12.926 -0.0600  0.1086  0.1020
18703TIP3    H177524   2.627   1.009  12.860  2.3569  2.6413  1.0447
18703TIP3    H277525   2.735   0.906  12.884  0.3684  0.4099  0.5301
18704TIP3   OH277526   2.878   2.223   6.621 -0.4217 -0.6434  0.1599
18704TIP3    H177527   2.972   2.209   6.628 -0.5149 -0.6312  1.4293
18704TIP3    H277528   2.857   2.283   6.692 -1.3754 -0.5690 -0.1819
18705TIP3   OH277529   3.590   0.199  15.145 -0.3801 -0.6411  0.2921
18705TIP3    H177530   3.649   0.252  15.198 -1.0054  0.6744 -0.3086
18705TIP3    H277531   3.507   0.248  15.146 -1.3117 -2.1841  0.6849
18706TIP3   OH277532   1.398   5.525   0.377 -0.7273  0.6505  0.5260
18706TIP3    H177533   1.408   5.588   0.448 -2.9488  1.1439  0.4578
18706TIP3    H277534   1.408   5.440   0.419 -0.0976  0.9944  1.0732
18707TIP3   OH277535   1.194   2.478   0.481 -0.5010 -0.3698 -0.0613
18707TIP3    H177536   1.239   2.463   0.564 -0.0340  0.9763 -0.0619
18707TIP3    H277537   1.117   2.530   0.504  1.9988  3.9199 -0.9839
18708TIP3   OH277538   2.193   6.445   4.647  0.0262 -0.3787  0.0444
18708TIP3    H177539   2.252   6.443   4.723  0.0414  2.0027  0.1317
18708TIP3    H277540   2.251   6.457   4.572 -0.2214  0.6468  0.0055
18709TIP3   OH277541   2.101   1.148   5.204  0.5029  0.0983 -0.2815
18709TIP3    H177542   2.120   1.164   5.297 -1.1539  2.0495 -0.2465
18709TIP3    H277543   2.048   1.068   5.205 -1.6085  1.4566  0.7232
18710TIP3   OH277544   1.801   2.689   4.180  0.4040 -0.4542 -0.4020
18710TIP3    H177545   1.893   2.700   4.206 -0.0017 -1.2625  1.4785
18710TIP3    H277546   1.764   2.777   4.188 -0.2588 -0.9878  4.2173
18711TIP3   OH277547   3.604   5.076  14.536 -0.9188  0.4158  0.0055
18711TIP3    H177548   3.598   4.982  14.523 -1.0455  0.6674 -1.8549
18711TIP3    H277549   3.554   5.092  14.616 -0.9172 -1.0845  0.3221
18712TIP3   OH277550   5.729   2.393  14.667 -0.0600  0.4137 -0.1161
18712TIP3    H177551   5.776   2.477  14.672 -0.2477  0.6140 -1.5415
18712TIP3    H277552   5.781   2.334  14.722  0.8183  1.1196 -0.1664
18713TIP3   OH277553   2.844   5.000  15.327  0.2937  0.2573 -0.6095
18713TIP3    H177554   2.765   5.048  15.352  0.8595  1.1505 -0.5044
18713TIP3    H277555   2.813   4.931  15.270 -0.9147 -1.1480  1.6729
18714TIP3   OH277556   3.527   5.656  12.929  0.2865  0.5739 -0.5301
18714TIP3    H177557   3.519   5.585  12.993  1.0444  2.3300  1.5908
18714TIP3    H277558   3.536   5.611  12.845 -0.0911 -1.8204  0.6447
18715TIP3   OH277559   1.501   5.084  14.337  0.0125 -0.2029  0.6885
18715TIP3    H177560   1.582   5.089  14.285 -0.8046 -0.6983 -0.6629
18715TIP3    H277561   1.477   5.175  14.353  0.8213 -0.0534  1.0573
18716TIP3   OH277562   2.061   2.708   4.250 -0.4702  0.6846  0.3291
18716TIP3    H177563   2.147   2.688   4.213 -0.6394  4.1201 -2.0763
18716TIP3    H277564   2.080   2.765   4.325 -0.6030  1.2186 -0.0372
18717TIP3   OH277565   2.373   4.271   0.237  0.5846  0.2794  0.0425
18717TIP3    H177566   2.329   4.194   0.273  1.4747 -1.5725 -2.6958
18717TIP3    H277567   2.455   4.276   0.285  2.1128 -2.6293 -2.1377
18718TIP3   OH277568   4.514   4.776  15.874 -0.3591  0.5337  0.1159
18718TIP3    H177569   4.509   4.748  15.783  1.0201  2.7125 -0.6676
18718TIP3    H277570   4.519   4.694  15.924 -2.4017 -0.7169 -1.6472
18719TIP3   OH277571   2.774   1.173  11.296 -0.3721 -0.0311 -0.3253
18719TIP3    H177572   2.770   1.229  11.218 -1.3965 -1.5671 -1.4010
18719TIP3    H277573   2.780   1.084  11.261  0.3156 -0.6561  1.3593
18720TIP3   OH277574   5.656   2.237   4.392 -1.0534  0.3460  0.0853
18720TIP3    H177575   5.684   2.328   4.396 -0.5145  0.2735 -1.5723
18720TIP3    H277576   5.653   2.217   4.299  0.1498 -1.7351  0.4553
18721TIP3   OH277577   0.678   1.641  15.053  0.1464 -0.4222  0.2241
18721TIP3    H177578   0.676   1.585  15.130  1.1194 -1.6543 -0.6251
18721TIP3    H277579   0.649   1.584  14.981  0.0354  0.4851 -0.4657
18722TIP3   OH277580   0.372   1.234   2.530  0.0199 -0.7977 -0.1630
18722TIP3    H177581   0.309   1.164   2.546  0.6816 -1.4680 -0.4637
18722TIP3    H277582   0.323   1.301   2.482 -0.6004 -1.0743  0.0855
18723TIP3   OH277583   6.741   3.650   4.812 -0.2804  0.3918  0.6149
18723TIP3    H177584   6.833   3.652   4.786 -0.6673  1.5152 -0.7265
18723TIP3    H277585   6.739   3.700   4.894  0.2769  0.5613  0.5305
18724TIP3   OH277586   4.214   4.140  15.220  0.6029 -0.3435  0.0777
18724TIP3    H177587   4.181   4.050  15.214 -0.6880 -0.0184  1.9941
18724TIP3    H277588   4.148   4.192  15.174  1.0096 -0.2788 -0.4404
18725TIP3   OH277589   4.249   0.401  12.079 -0.0137 -0.6230  0.0223
18725TIP3    H177590   4.282   0.400  12.169  1.0127 -0.9273 -0.3477
18725TIP3    H277591   4.183   0.332  12.076  0.4216 -1.0554  0.3660
18726TIP3   OH277592   2.025   2.668   6.199  0.0179 -0.1153 -0.6947
18726TIP3    H177593   2.007   2.602   6.267  1.2004  1.1591  0.9175
18726TIP3    H277594   2.121   2.668   6.192 -0.0469  0.5193 -1.6195
18727TIP3   OH277595   4.518   4.413   1.170  0.0680  0.0846 -1.4489
18727TIP3    H177596   4.555   4.443   1.086  0.4825  1.0019 -0.9530
18727TIP3    H277597   4.425   4.431   1.163  0.4526  2.5425 -0.7556
18728TIP3   OH277598   4.230   0.149   3.203  0.1938 -0.2930  0.6997
18728TIP3    H177599   4.165   0.115   3.141 -0.8391  0.0043  1.6077
18728TIP3    H277600   4.313   0.146   3.155  0.1169 -3.9249  0.6939
18729TIP3   OH277601   2.821   0.886  11.881  0.1387 -0.2956  0.4977
18729TIP3    H177602   2.829   0.879  11.786  1.0139 -1.1898  0.6158
18729TIP3    H277603   2.783   0.802  11.908 -1.0972  0.3637  0.8462
18730TIP3   OH277604   1.645   3.726   0.943 -0.3516 -0.2532  0.0180
18730TIP3    H177605   1.707   3.796   0.921 -0.0852 -0.7970 -0.9735
18730TIP3    H277606   1.573   3.771   0.987  0.5965  0.4263  0.8966
18731TIP3   OH277607   4.932   6.215   5.177 -0.0031  0.0056  0.2070
18731TIP3    H177608   4.965   6.174   5.257  0.7189 -0.5234 -0.3543
18731TIP3    H277609   4.983   6.296   5.170  0.1577 -0.1036  0.1137
18732TIP3   OH277610   1.175   0.796  13.092 -0.3098 -0.3203  0.1623
18732TIP3    H177611   1.171   0.734  13.165 -0.2050  0.6895  1.0313
18732TIP3    H277612   1.087   0.834  13.088 -0.1047  0.1629  0.2334
18733TIP3   OH277613   4.869   4.576   5.887 -0.1833  0.7649 -0.3171
18733TIP3    H177614   4.956   4.604   5.914 -0.3611  0.0647  1.0609
18733TIP3    H277615   4.814   4.589   5.965 -0.3190 -3.0707  0.3205
18734TIP3   OH277616   6.407   3.313   3.458  0.1682  0.0628 -0.3957
18734TIP3    H177617   6.379   3.224   3.481  2.3128 -0.3433  0.8698
18734TIP3    H277618   6.421   3.311   3.364 -0.5835 -0.7279 -0.4895
18735TIP3   OH277619   4.851   6.024   3.549 -0.2074  0.1288 -0.4885
18735TIP3    H177620   4.854   5.984   3.636  3.5954 -0.2179 -0.6607
18735TIP3    H277621   4.799   5.964   3.496 -2.6502  0.4105  1.5513
18736TIP3   OH277622   4.930   0.285  16.945  0.2791 -0.1377 -0.2274
18736TIP3    H177623   5.013   0.306  16.989  0.4863  0.0538 -0.7149
18736TIP3    H277624   4.913   0.359  16.888 -0.3340 -0.0871  0.0212
18737TIP3   OH277625   4.998   1.948  12.096 -0.0947 -0.8847 -0.1534
18737TIP3    H177626   5.044   1.984  12.020 -0.1076  0.7412  0.5964
18737TIP3    H277627   4.906   1.944  12.069 -0.0948 -0.3318 -0.2287
18738TIP3   OH277628   1.508   6.193   0.609  0.1665  0.7080 -0.1934
18738TIP3    H177629   1.420   6.232   0.600  0.1502  0.8016  0.3249
18738TIP3    H277630   1.533   6.214   0.699  0.3429 -0.1118 -0.0544
18739TIP3   OH277631   1.973   2.106  13.615 -0.5010  0.2636 -0.4260
18739TIP3    H177632   1.927   2.187  13.592 -0.6305  0.5977  0.9669
18739TIP3    H277633   1.925   2.037  13.570  0.3282  1.0840 -2.6139
18740TIP3   OH277634   4.808   0.538   3.879  0.1778  0.0609  0.1877
18740TIP3    H177635   4.798   0.631   3.859  0.0013 -0.0779 -0.3806
18740TIP3    H277636   4.866   0.505   3.810 -0.7827 -0.5105 -0.3572
18741TIP3   OH277637   4.103   2.870   3.981 -0.0121  0.1756 -0.5516
18741TIP3    H177638   4.111   2.947   3.925 -0.5041  0.3963 -0.3163
18741TIP3    H277639   4.163   2.886   4.053 -0.9040  0.8278  0.0557
18742TIP3   OH277640   6.273   6.325   3.640 -0.9063  0.3909 -0.1763
18742TIP3    H177641   6.180   6.348   3.639 -1.0880 -0.3854 -2.1298
18742TIP3    H277642   6.305   6.350   3.553  0.3933 -0.6715 -0.0148
18743TIP3   OH277643   2.216   4.798  13.637  0.3022  0.6017  0.1328
18743TIP3    H177644   2.268   4.840  13.706  1.4292  1.8928 -1.4603
18743TIP3    H277645   2.254   4.831  13.556 -1.5828 -0.2016 -1.0956
18744TIP3   OH277646   1.275   5.067  13.492  0.2393  0.1504 -0.3702
18744TIP3    H177647   1.346   5.049  13.431  1.1496 -0.4464  0.8585
18744TIP3    H277648   1.269   4.988  13.546 -0.5257  0.6899  0.3490
18745TIP3   OH277649   5.538   0.666   6.007 -0.5759 -0.2992  0.2565
18745TIP3    H177650   5.556   0.575   6.029 -1.2983  0.2632  3.4179
18745TIP3    H277651   5.447   0.680   6.035 -0.6779  1.2454 -0.7797
18746TIP3   OH277652   2.093   6.263  15.579 -0.1775 -0.1240 -0.1042
18746TIP3    H177653   2.051   6.186  15.618 -0.3319  0.3084  0.5927
18746TIP3    H277654   2.095   6.327  15.650 -1.4629  1.0678 -1.1161
18747TIP3   OH277655   1.640   4.446   3.414  0.1378 -0.1487 -0.4326
18747TIP3    H177656   1.614   4.535   3.392  1.3153  0.3882  0.2687
18747TIP3    H277657   1.732   4.440   3.385  0.1484 -1.0469 -0.2363
18748TIP3   OH277658   4.638   1.395   3.786  0.4236  0.7864  0.4519
18748TIP3    H177659   4.687   1.336   3.729 -2.1231  1.1740 -2.2706
18748TIP3    H277660   4.602   1.339   3.854  1.9822 -0.0102  0.6206
18749TIP3   OH277661   0.094   4.168  13.624  0.3240 -0.5899 -0.4033
18749TIP3    H177662   0.157   4.112  13.669  2.2998  0.1515 -2.1511
18749TIP3    H277663   0.071   4.120  13.544  1.2923  0.6280 -1.4393
18750TIP3   OH277664   6.587   5.575  13.494 -0.2169  0.2615 -1.0756
18750TIP3    H177665   6.553   5.586  13.405  1.3582  0.7919 -1.6340
18750TIP3    H277666   6.643   5.651  13.508 -2.0040  1.2354  1.1344
18751TIP3   OH277667   0.214   3.656  13.117 -0.1176  0.3927  0.9476
18751TIP3    H177668   0.147   3.637  13.051  0.6114  2.5110 -0.4546
18751TIP3    H277669   0.176   3.623  13.199 -1.6270 -1.0431 -0.2853
18752TIP3   OH277670   2.437   3.001  13.101 -0.1806 -0.7416  0.1166
18752TIP3    H177671   2.381   3.044  13.036  1.3325 -1.0327 -1.3997
18752TIP3    H277672   2.454   2.915  13.064  0.9884 -0.7797  0.7351
18753TIP3   OH277673   4.715   6.174  15.650 -0.5895 -0.3589 -0.0052
18753TIP3    H177674   4.653   6.244  15.631  0.9603  1.6069  1.9195
18753TIP3    H277675   4.788   6.189  15.590 -0.8147 -1.1219 -0.4837
18754TIP3   OH277676   1.502   0.034  14.041  0.2735 -0.2413  0.1643
18754TIP3    H177677   1.423  -0.017  14.025  0.0032 -0.2421  1.4226
18754TIP3    H277678   1.496   0.058  14.134  1.3266  0.4776  0.0503
18755TIP3   OH277679   4.065   1.279  17.059  0.1621  0.4371 -0.4433
18755TIP3    H177680   4.005   1.327  17.002 -0.3553 -0.2890 -0.5233
18755TIP3    H277681   4.148   1.280  17.012 -0.6077 -1.3704 -1.9094
18756TIP3   OH277682   0.627   4.464   0.872 -0.5393 -0.6099 -0.2535
18756TIP3    H177683   0.648   4.534   0.934 -1.6523  0.2485 -0.8298
18756TIP3    H277684   0.679   4.390   0.901 -1.6881 -0.4823  2.2428
18757TIP3   OH277685   5.506   2.186  11.287  0.0386 -0.0014  0.2113
18757TIP3    H177686   5.591   2.224  11.265  1.6179 -2.7333  1.3140
18757TIP3    H277687   5.479   2.141  11.207  0.0866  0.0691  0.1563
18758TIP3   OH277688   5.782   0.168  16.820  0.1585 -0.1216  0.1001
18758TIP3    H177689   5.816   0.184  16.731 -1.1439  1.6693 -0.0984
18758TIP3    H277690   5.860   0.150  16.872  1.0940  0.3710 -1.0927
18759TIP3   OH277691   0.161   3.449   3.839 -0.2386 -0.2127 -0.4853
18759TIP3    H177692   0.249   3.468   3.807  0.7213 -0.3926  1.9448
18759TIP3    H277693   0.171   3.368   3.890 -1.6565  0.1885  0.4521
18760TIP3   OH277694   0.357   3.158   1.627 -0.2143  0.4012 -0.3382
18760TIP3    H177695   0.410   3.237   1.618 -0.0467  0.3988  0.5692
18760TIP3    H277696   0.272   3.182   1.591  0.3154  0.4862 -1.5712
18761TIP3   OH277697   4.309   5.086   3.358 -0.3270  0.1892 -0.2793
18761TIP3    H177698   4.361   5.056   3.283 -0.6278 -0.9395 -0.0466
18761TIP3    H277699   4.236   5.133   3.319  0.7909  1.7176 -0.6163
18762TIP3   OH277700   1.383   5.439   6.455  0.3225 -0.1372  0.8463
18762TIP3    H177701   1.454   5.390   6.413  1.0436  1.4037  0.2402
18762TIP3    H277702   1.378   5.403   6.543  0.2244 -1.9222  0.1487
18763TIP3   OH277703   3.314   1.329   3.009 -0.5320  0.2633 -0.5184
18763TIP3    H177704   3.397   1.326   2.961 -0.3553 -1.1204 -0.1450
18763TIP3    H277705   3.338   1.356   3.097 -0.8188  2.4886 -1.0861
18764TIP3   OH277706   4.255   2.846  15.339  0.2763  0.1987  0.1875
18764TIP3    H177707   4.214   2.874  15.257  0.1553 -0.8701 -0.1301
18764TIP3    H277708   4.349   2.849  15.321  0.2407 -0.5514 -0.1860
18765TIP3   OH277709   1.322   1.777   1.448  0.8564 -0.4294 -0.0421
18765TIP3    H177710   1.409   1.809   1.472  0.9150  0.2988 -1.1823
18765TIP3    H277711   1.333   1.744   1.359  0.4252 -2.1800  0.5335
18766TIP3   OH277712   3.501   3.813   3.482 -0.7436 -0.3578  0.5722
18766TIP3    H177713   3.569   3.825   3.416 -0.4964 -0.3873  0.8251
18766TIP3    H277714   3.546   3.823   3.566 -1.0213 -0.5218  0.7410
18767TIP3   OH277715   4.837   2.177   1.850  0.5098 -1.0692 -0.1277
18767TIP3    H177716   4.795   2.098   1.816  0.7277 -2.2490  2.2057
18767TIP3    H277717   4.842   2.236   1.775 -2.2003 -2.1932 -1.2669
18768TIP3   OH277718   2.947   1.699   2.239  0.0953  0.0014 -0.4435
18768TIP3    H177719   3.006   1.755   2.289 -2.0363 -0.5335  2.8031
18768TIP3    H277720   2.876   1.757   2.212  0.1475 -0.1830 -0.9765
18769TIP3   OH277721   6.371   6.389   4.195  0.3534 -0.6228  0.0055
18769TIP3    H177722   6.343   6.330   4.125 -1.0621 -0.6969  0.6145
18769TIP3    H277723   6.369   6.335   4.274 -2.0670  0.4927  0.7594
18770TIP3   OH277724   6.510   2.213   5.711  0.1715  0.2173  0.1989
18770TIP3    H177725   6.525   2.206   5.805 -2.1083  0.7965  0.6223
18770TIP3    H277726   6.446   2.283   5.702  1.6200  1.3236 -1.9268
18771TIP3   OH277727   0.238   2.028   0.994 -0.1163  0.2711 -0.4750
18771TIP3    H177728   0.273   1.947   1.031  2.0655  1.0431 -0.7953
18771TIP3    H277729   0.312   2.089   0.995 -0.6056  1.0344 -3.9781
18772TIP3   OH277730   5.951   1.153  15.381  0.1310 -0.1284 -0.0237
18772TIP3    H177731   5.920   1.151  15.291  1.6054  1.2886 -0.5775
18772TIP3    H277732   6.023   1.090  15.383 -1.3679 -1.8871  0.7678
18773TIP3   OH277733   6.201   5.547   2.662 -0.2857 -0.0643  0.2705
18773TIP3    H177734   6.235   5.601   2.734  2.3590 -0.4323 -0.6415
18773TIP3    H277735   6.229   5.593   2.583  0.4870 -1.8541 -0.5185
18774TIP3   OH277736   2.868   3.790   1.508 -0.6032 -0.3712 -0.1392
18774TIP3    H177737   2.850   3.697   1.496  0.4751 -0.7158  0.8744
18774TIP3    H277738   2.928   3.794   1.582 -0.0105  1.0800 -0.6777
18775TIP3   OH277739   2.681   3.369   3.674  0.0381 -0.1719 -0.2931
18775TIP3    H177740   2.667   3.299   3.738 -1.6113 -0.3613 -0.8490
18775TIP3    H277741   2.625   3.346   3.600  0.7812  0.8458 -1.2026
18776TIP3   OH277742   3.314   1.269  13.458 -0.3685  0.3473  0.6126
18776TIP3    H177743   3.384   1.327  13.428  0.0768 -1.8844 -2.9101
18776TIP3    H277744   3.240   1.327  13.475  1.3445  2.3756  1.3359
18777TIP3   OH277745   1.378   5.384   6.726 -0.7299  0.2053  0.0874
18777TIP3    H177746   1.310   5.443   6.759  0.3288 -0.2049  3.1285
18777TIP3    H277747   1.460   5.421   6.757  0.2295 -0.9415 -0.9949
18778TIP3   OH277748   1.443   5.673  15.348  0.1032  0.1629  0.1065
18778TIP3    H177749   1.438   5.724  15.428 -1.6995  0.0433  0.0742
18778TIP3    H277750   1.353   5.646  15.329  0.4262  0.5459 -2.1937
18779TIP3   OH277751   4.796   2.384  15.026  0.1223 -0.1121 -0.3073
18779TIP3    H177752   4.839   2.334  14.957 -1.2734  0.0753 -1.3269
18779TIP3    H277753   4.867   2.433  15.068  1.3041 -1.8824 -0.1716
18780TIP3   OH277754   3.202   2.823  13.210  0.0331  0.1961  0.0041
18780TIP3    H177755   3.215   2.841  13.303 -0.0799  0.2179  0.0151
18780TIP3    H277756   3.200   2.910  13.169  3.0986  0.1081 -0.4402
18781TIP3   OH277757   3.672   1.647   3.087  0.2528  0.1611  0.3473
18781TIP3    H177758   3.733   1.721   3.084  1.3875 -0.7637  0.3647
18781TIP3    H277759   3.589   1.686   3.112  0.9205  1.3895  0.7068
18782TIP3   OH277760   0.199   1.713   4.234  0.1408 -0.6890 -0.6764
18782TIP3    H177761   0.218   1.791   4.181  0.7666 -0.3146  0.0913
18782TIP3    H277762   0.136   1.743   4.299 -0.0605 -0.9674 -0.7426
18783TIP3   OH277763   4.479   1.305   2.134  0.2258 -0.4908 -0.0866
18783TIP3    H177764   4.491   1.373   2.200 -1.0698 -0.4675  0.1480
18783TIP3    H277765   4.530   1.231   2.165  0.9314  0.0713  0.1062
18784TIP3   OH277766   1.012   1.971   2.577 -0.4186 -0.0569 -0.1272
18784TIP3    H177767   1.054   1.995   2.659 -1.9685  0.1293  0.6273
18784TIP3    H277768   0.965   1.890   2.596 -1.2578  0.2905 -0.6470
18785TIP3   OH277769   6.631   5.485  12.121 -0.2098 -0.4338 -0.2806
18785TIP3    H177770   6.688   5.408  12.112  1.0773  0.5317 -0.5639
18785TIP3    H277771   6.689   5.559  12.106 -1.6492  0.5658 -0.9789
18786TIP3   OH277772   1.611   3.758  12.117 -0.2291  0.7029  0.0532
18786TIP3    H177773   1.564   3.825  12.068 -0.9080  0.2784  0.1037
18786TIP3    H277774   1.681   3.805  12.163 -1.9199  1.7197  1.6799
18787TIP3   OH277775   3.029   5.372   0.982  0.2340 -0.7890 -0.1008
18787TIP3    H177776   3.033   5.441   0.916  0.1911 -1.0819 -0.4103
18787TIP3    H277777   2.956   5.396   1.038  2.0345  1.0063  1.5575
18788TIP3   OH277778   0.828   2.479  16.134 -0.0916  0.2456 -0.0297
18788TIP3    H177779   0.825   2.486  16.039  1.6364 -2.0244 -0.2883
18788TIP3    H277780   0.767   2.546  16.165 -1.3927  0.3685 -2.7420
18789TIP3   OH277781   5.614   0.038   2.992 -0.1641  0.4950  0.5205
18789TIP3    H177782   5.569  -0.035   3.035 -0.5431  0.5519  0.2305
18789TIP3    H277783   5.692  -0.001   2.952 -1.1486 -0.0545 -0.9286
18790TIP3   OH277784   1.827   3.226   3.487 -0.0818 -0.3410  0.1005
18790TIP3    H177785   1.837   3.229   3.582 -0.1152  1.4791  0.0682
18790TIP3    H277786   1.899   3.278   3.453 -1.8024  1.5776 -0.7118
18791TIP3   OH277787   2.663   2.626  12.772 -0.4158 -0.3098  0.3062
18791TIP3    H177788   2.733   2.683  12.742 -0.9871  0.6001  0.6805
18791TIP3    H277789   2.683   2.541  12.733 -0.4635  0.5317 -1.5969
18792TIP3   OH277790   5.170   3.700  13.020 -0.4496 -0.0804  0.1048
18792TIP3    H177791   5.247   3.752  12.994 -1.1233  0.9769  0.1666
18792TIP3    H277792   5.142   3.656  12.939 -0.3518  0.3052 -0.1424
18793TIP3   OH277793   3.088   4.053   2.234  1.0194 -0.2605  0.0609
18793TIP3    H177794   3.143   4.128   2.212  1.8064 -0.6250  0.7345
18793TIP3    H277795   3.092   4.047   2.329 -1.3134  0.5288  0.2233
18794TIP3   OH277796   3.229   4.777  10.979 -0.5021 -0.1267  0.0091
18794TIP3    H177797   3.248   4.717  11.051 -0.9827 -0.8838 -0.4962
18794TIP3    H277798   3.291   4.850  10.992  0.0611 -0.7071  0.6285
18795TIP3   OH277799   1.856   0.844   3.630 -0.0352  0.2212  0.0841
18795TIP3    H177800   1.842   0.811   3.541 -0.0161  1.2239 -0.2897
18795TIP3    H277801   1.780   0.899   3.647 -1.0752 -1.5704  1.4544
18796TIP3   OH277802   1.001   6.610   4.614 -0.3329 -0.1859  0.2450
18796TIP3    H177803   0.968   6.530   4.573 -0.8075  0.5872 -0.9147
18796TIP3    H277804   1.073   6.580   4.670 -0.7091 -1.4590  0.0722
18797TIP3   OH277805   1.341   2.534   4.079  0.1874  0.3349 -0.1335
18797TIP3    H177806   1.287   2.543   4.157 -0.0508 -2.3920  0.0312
18797TIP3    H277807   1.431   2.529   4.111  0.2123  0.7138 -0.1407
18798TIP3   OH277808   0.827   1.221   3.740 -0.1213  0.5653  0.0680
18798TIP3    H177809   0.775   1.149   3.705  0.5513 -0.3605  0.9358
18798TIP3    H277810   0.888   1.179   3.801  1.7748  1.5821 -1.0633
18799TIP3   OH277811   1.086   2.033   0.470 -0.6039 -0.1396 -0.4543
18799TIP3    H177812   1.049   2.038   0.382 -0.3740  1.9740 -0.4564
18799TIP3    H277813   1.040   2.101   0.519  0.3785 -0.2592  0.6573
18800TIP3   OH277814   0.619   4.028   0.163 -0.5260  0.2238  0.1745
18800TIP3    H177815   0.647   3.993   0.078 -0.0461 -0.3297  0.5593
18800TIP3    H277816   0.564   4.103   0.141  0.0128  0.3881 -0.6206
18801TIP3   OH277817   6.364   5.943   6.047  0.2144 -0.3321 -0.3282
18801TIP3    H177818   6.334   5.868   5.996 -1.4087  0.8685 -1.1491
18801TIP3    H277819   6.449   5.965   6.009  0.4763 -1.4298 -0.3998
18802TIP3   OH277820   4.239   4.356   0.082 -0.0535 -0.7316 -0.4831
18802TIP3    H177821   4.233   4.282   0.143 -0.3615 -1.2000 -1.0702
18802TIP3    H277822   4.326   4.392   0.096 -0.4258 -0.2970  0.8424
18803TIP3   OH277823   3.404   4.081   5.390  0.0470  0.0436  0.0145
18803TIP3    H177824   3.345   4.059   5.462  0.2170  0.2999  0.2322
18803TIP3    H277825   3.458   4.003   5.378  0.0272  0.0073  0.1740
18804TIP3   OH277826   1.663   6.059   1.880  0.4979  0.3016 -0.6143
18804TIP3    H177827   1.696   5.993   1.819 -1.0757 -0.3871 -0.7405
18804TIP3    H277828   1.692   6.028   1.966  0.3091 -0.2188 -0.7371
18805TIP3   OH277829   3.325   4.032   6.461  0.9498 -0.3290 -0.4194
18805TIP3    H177830   3.340   3.970   6.532  0.4388  0.1900  0.1470
18805TIP3    H277831   3.347   4.117   6.499  0.6796 -0.0538 -0.8827
18806TIP3   OH277832   1.944   4.067   3.115  0.3307 -0.3872 -0.2753
18806TIP3    H177833   2.016   4.041   3.057  0.0855  0.0767 -0.7909
18806TIP3    H277834   1.910   4.148   3.076  0.9897  0.6329  1.2243
18807TIP3   OH277835   4.032   1.970  16.987 -0.0102  0.1141 -0.0563
18807TIP3    H177836   3.955   1.993  16.936  0.3674 -0.1467 -0.7536
18807TIP3    H277837   4.085   2.050  16.988 -1.1871  0.8940  2.0875
18808TIP3   OH277838   0.495   5.560   1.842 -0.1403  0.1494  0.5680
18808TIP3    H177839   0.453   5.645   1.850 -1.7551 -0.7108  1.3561
18808TIP3    H277840   0.471   5.513   1.922  0.2123 -1.2700 -0.1405
18809TIP3   OH277841   2.641   4.402   1.379 -0.4888  0.5327  0.1693
18809TIP3    H177842   2.593   4.485   1.373 -2.1072 -0.3546  0.4075
18809TIP3    H277843   2.679   4.403   1.467  0.0050  1.2851 -0.0488
18810TIP3   OH277844   5.380   6.432  15.948  0.2831 -0.3931 -0.1303
18810TIP3    H177845   5.425   6.509  15.981 -0.0987 -0.5352  0.7552
18810TIP3    H277846   5.373   6.374  16.024  1.2586 -1.6322 -0.9541
18811TIP3   OH277847   0.207   4.013  16.163 -0.3849 -0.3709  0.5964
18811TIP3    H177848   0.168   4.101  16.168  1.4728  0.5027  0.1586
18811TIP3    H277849   0.132   3.954  16.160 -1.7025  1.3492 -2.1355
18812TIP3   OH277850   4.150   2.745  15.576 -0.0746  0.2041 -0.1636
18812TIP3    H177851   4.195   2.680  15.629 -2.1347 -2.8410 -1.9862
18812TIP3    H277852   4.210   2.761  15.503 -0.3013 -0.9934 -0.6238
18813TIP3   OH277853   1.657   1.050   3.584  0.1172 -0.1474  0.7204
18813TIP3    H177854   1.612   1.125   3.623 -0.2476 -0.8628  1.7201
18813TIP3    H277855   1.687   1.081   3.499  1.4644  1.6474  1.8146
18814TIP3   OH277856   3.381   2.738  16.032  0.1751 -0.1881 -0.1400
18814TIP3    H177857   3.456   2.726  16.091 -0.5699 -0.0583  0.8413
18814TIP3    H277858   3.360   2.831  16.038  0.9533  0.1143 -1.6796
18815TIP3   OH277859   3.383   0.928   5.785  0.4049  0.2086 -0.3984
18815TIP3    H177860   3.312   0.988   5.809  0.9772  0.3005  1.1156
18815TIP3    H277861   3.463   0.976   5.804  0.8784 -0.0679 -1.6710
18816TIP3   OH277862   4.131   0.973  17.102  0.0001 -0.1483  0.7244
18816TIP3    H177863   4.134   1.049  17.160  1.1414 -1.8288  2.9173
18816TIP3    H277864   4.221   0.942  17.097 -0.4006 -1.1948 -0.4078
18817TIP3   OH277865   1.966   1.686  16.905  0.4123  0.4873 -0.0266
18817TIP3    H177866   2.002   1.615  16.852  0.6014  1.1437 -0.7735
18817TIP3    H277867   1.928   1.747  16.842 -0.3491  0.7269  0.6521
18818TIP3   OH277868   5.666   3.711  15.098  0.3199  0.1874 -0.2559
18818TIP3    H177869   5.716   3.789  15.075  1.5123 -1.0243 -1.9335
18818TIP3    H277870   5.579   3.726  15.062  0.1380  1.2969  0.6164
18819TIP3   OH277871   4.958   5.046   2.466 -0.7444  0.0796 -0.4401
18819TIP3    H177872   4.987   4.984   2.398  0.8052  0.6816 -0.3411
18819TIP3    H277873   4.907   4.993   2.526 -1.6361 -0.5879 -1.7627
18820TIP3   OH277874   1.463   3.973  13.695 -0.3073 -0.3689 -0.0091
18820TIP3    H177875   1.408   3.919  13.638 -0.0569  0.2776 -0.8886
18820TIP3    H277876   1.517   3.911  13.743  0.6468 -0.8619 -1.6973
18821TIP3   OH277877   4.510   3.120   0.116 -0.0862  0.1287 -0.2291
18821TIP3    H177878   4.487   3.034   0.083  1.8734 -0.6495  0.3544
18821TIP3    H277879   4.506   3.111   0.211  0.9474  0.4302 -0.1478
18822TIP3   OH277880   5.797   5.945  16.266  0.3520  0.3072 -0.3729
18822TIP3    H177881   5.846   5.934  16.347  0.8074  1.2786 -0.5162
18822TIP3    H277882   5.834   5.880  16.206 -0.0055 -0.4363  0.1897
18823TIP3   OH277883   3.419   5.401   1.706  0.6180  0.7013  0.5947
18823TIP3    H177884   3.384   5.483   1.670  0.7275  0.8382  0.7952
18823TIP3    H277885   3.400   5.335   1.640  0.6665  0.9187  0.3645
18824TIP3   OH277886   0.599   4.410  11.737  0.4212  0.0407 -0.6539
18824TIP3    H177887   0.628   4.498  11.760  1.1863  0.0453 -1.5891
18824TIP3    H277888   0.542   4.422  11.660 -1.6295 -0.0255  0.7999
18825TIP3   OH277889   1.786   1.786  15.659  0.2314  0.6210 -0.7991
18825TIP3    H177890   1.725   1.733  15.606 -0.4103 -0.1043  0.6438
18825TIP3    H277891   1.739   1.803  15.740  1.2715  1.6164 -0.3900
18826TIP3   OH277892   0.436   3.678  14.685 -0.5743 -0.0408  0.1209
18826TIP3    H177893   0.521   3.708  14.717 -1.2002 -0.5416  2.3145
18826TIP3    H277894   0.396   3.756  14.646 -0.1044  0.7861  1.2621
18827TIP3   OH277895   4.974   2.696  15.598  0.1636 -0.0729 -0.1394
18827TIP3    H177896   4.924   2.655  15.669  1.6336  0.1458  1.0474
18827TIP3    H277897   4.921   2.682  15.520 -1.2715 -0.7145  0.9266
18828TIP3   OH277898   1.168   3.180   1.666 -0.0885 -0.1182  0.1117
18828TIP3    H177899   1.142   3.172   1.758 -1.7988  1.8793 -0.1717
18828TIP3    H277900   1.102   3.129   1.618  0.4213 -0.6078 -0.0779
18829TIP3   OH277901   1.658   6.273  13.855 -0.4582 -0.4130  1.0078
18829TIP3    H177902   1.624   6.247  13.770  0.4634  0.4680  0.3522
18829TIP3    H277903   1.622   6.360  13.870 -0.4685 -0.4903  1.4235
18830TIP3   OH277904   2.058   4.758  12.979 -0.4048  0.0004 -0.5704
18830TIP3    H177905   2.029   4.802  13.059  0.2762 -0.8898  0.1728
18830TIP3    H277906   2.001   4.681  12.971 -0.0166 -0.2844 -0.5748
18831TIP3   OH277907   4.991   4.895  11.402 -0.0790 -0.5952 -0.3378
18831TIP3    H177908   5.085   4.911  11.404 -0.1595 -0.1738  0.6121
18831TIP3    H277909   4.958   4.952  11.332  0.3535 -0.6476 -0.5821
18832TIP3   OH277910   2.422   3.955   0.995  0.3231 -0.2434  0.2380
18832TIP3    H177911   2.478   4.022   0.957 -0.1424  0.3358  0.5561
18832TIP3    H277912   2.334   3.991   0.988  0.1648 -0.4048  1.2579
18833TIP3   OH277913   0.722   1.206   0.263 -0.0386  0.4602 -0.3444
18833TIP3    H177914   0.648   1.213   0.323 -0.4344 -0.0379 -0.7654
18833TIP3    H277915   0.735   1.112   0.253  0.1619  0.5431 -0.8617
18834TIP3   OH277916   4.075   2.443  13.022 -0.0825  0.7526 -0.7333
18834TIP3    H177917   4.044   2.376  12.961  0.4062  0.5458 -0.7555
18834TIP3    H277918   4.018   2.518  13.006 -1.5018 -0.0823  0.1876
18835TIP3   OH277919   1.501   2.895  15.349  0.0247  0.5896 -0.1232
18835TIP3    H177920   1.464   2.884  15.261 -1.9418 -1.1821  0.8618
18835TIP3    H277921   1.459   2.974  15.383 -1.7280 -0.5084  0.3719
18836TIP3   OH277922   3.620   2.160   0.485  0.1510 -0.0279 -0.1211
18836TIP3    H177923   3.572   2.227   0.436  0.3046 -0.0047 -0.2402
18836TIP3    H277924   3.609   2.080   0.433 -0.1860 -0.1387  0.1154
18837TIP3   OH277925   5.433   6.717  15.735 -0.3461  0.3318  0.3688
18837TIP3    H177926   5.466   6.689  15.649 -0.8909  0.5156  0.0988
18837TIP3    H277927   5.352   6.668  15.747  0.4498 -0.7499  1.4050
18838TIP3   OH277928   1.165   4.543  10.944  0.4572  0.0049 -0.4529
18838TIP3    H177929   1.159   4.567  10.851 -1.7903  0.1979 -0.2737
18838TIP3    H277930   1.175   4.626  10.990 -0.3564  0.0641 -0.3782
18839TIP3   OH277931   4.783   3.333  11.796 -0.2833  0.1078  1.4179
18839TIP3    H177932   4.813   3.372  11.714 -1.1003 -1.0712  0.5504
18839TIP3    H277933   4.800   3.400  11.862  0.6943  0.9345  0.3456
18840TIP3   OH277934   5.949   5.624  15.618  0.1290  0.0960 -0.0564
18840TIP3    H177935   5.946   5.701  15.561 -0.9106  0.8678  1.0417
18840TIP3    H277936   5.861   5.617  15.654  0.4412 -1.1388  0.4898
18841TIP3   OH277937   1.854   2.387   0.132  0.2709  0.1527 -0.1522
18841TIP3    H177938   1.785   2.377   0.197 -0.3801 -0.9846 -1.0026
18841TIP3    H277939   1.834   2.469   0.087 -0.4635 -0.1215 -0.3223
18842TIP3   OH277940   1.114   4.219   4.083  0.0065 -0.1454 -0.3971
18842TIP3    H177941   1.068   4.166   4.019 -0.1315  0.8229 -1.1128
18842TIP3    H277942   1.047   4.241   4.149  0.0356 -0.7573 -0.1674
18843TIP3   OH277943   6.314   4.863  14.368  0.1297  0.2020 -0.1043
18843TIP3    H177944   6.222   4.879  14.390  0.2636  0.8942 -0.0113
18843TIP3    H277945   6.346   4.949  14.340  0.9683  0.1671  0.7084
18844TIP3   OH277946   5.474   3.994   2.550 -0.3278 -0.1637 -0.0744
18844TIP3    H177947   5.547   3.939   2.577  0.4227  0.1456 -1.4320
18844TIP3    H277948   5.460   4.054   2.623  1.4541  0.4568 -0.2363
18845TIP3   OH277949   6.336   4.412   5.661 -0.4654 -0.8960 -0.0412
18845TIP3    H177950   6.307   4.375   5.745 -0.7419 -1.2373 -0.2852
18845TIP3    H277951   6.339   4.337   5.602 -0.2437 -0.6588 -0.3317
18846TIP3   OH277952   2.648   0.229  16.429  0.3826  0.2198 -0.2711
18846TIP3    H177953   2.651   0.279  16.510 -1.5771 -2.5121  1.5567
18846TIP3    H277954   2.738   0.229  16.397  1.0153  2.0366  1.4270
18847TIP3   OH277955   0.879   0.785  17.207 -0.3656  0.0005  0.2406
18847TIP3    H177956   0.834   0.848  17.264 -1.2947 -1.2282  0.8766
18847TIP3    H277957   0.848   0.806  17.119 -0.2712  0.7653  0.3827
18848TIP3   OH277958   6.709   3.427   3.319 -0.1975 -0.2306 -0.2467
18848TIP3    H177959   6.727   3.464   3.405  0.4066  1.7192 -1.1966
18848TIP3    H277960   6.722   3.499   3.258  1.3900 -2.0739 -2.1839
18849TIP3   OH277961   1.934   1.997   2.821  0.0387  0.7613  0.5042
18849TIP3    H177962   1.930   1.961   2.909 -3.5018  0.2233  0.1881
18849TIP3    H277963   1.887   1.933   2.767  0.2622  2.1576 -1.3810
18850TIP3   OH277964   3.686   5.539  11.620 -0.5286 -0.8800 -0.5632
18850TIP3    H177965   3.732   5.501  11.545  1.0933  1.3816 -0.7685
18850TIP3    H277966   3.705   5.633  11.614 -3.8021 -0.1128  0.3416
18851TIP3   OH277967   6.573   1.944   2.655 -0.2535 -0.2924 -0.2144
18851TIP3    H177968   6.599   2.027   2.695  2.1611 -1.7830  1.4532
18851TIP3    H277969   6.633   1.933   2.581  0.2330 -1.1249  0.2987
18852TIP3   OH277970   5.452   4.931   5.207 -0.0189 -0.2030  0.5023
18852TIP3    H177971   5.443   4.918   5.302 -1.5434 -0.5159  0.3282
18852TIP3    H277972   5.419   5.019   5.192  1.1714  0.2327  0.3811
18853TIP3   OH277973   3.287   5.682   0.009  0.3015  0.0531  0.0813
18853TIP3    H177974   3.195   5.662   0.025  0.1422 -0.5424 -1.5368
18853TIP3    H277975   3.333   5.601   0.029  0.2122 -0.3774 -1.4242
18854TIP3   OH277976   5.720   3.004   1.255 -0.4056  0.3446 -0.3058
18854TIP3    H177977   5.634   2.961   1.257  0.3554 -1.2550 -1.3245
18854TIP3    H277978   5.779   2.941   1.295  0.5635  0.8020 -1.0021
18855TIP3   OH277979   2.002   6.597   2.326  0.1779 -0.3535  0.3610
18855TIP3    H177980   2.012   6.583   2.420  2.3595  1.1938  0.3962
18855TIP3    H277981   2.073   6.546   2.287  0.5390  0.6339 -0.2928
18856TIP3   OH277982   4.953   4.547   2.730 -0.6375  0.0369  0.4330
18856TIP3    H177983   4.988   4.502   2.807  0.9087  1.1951  0.4243
18856TIP3    H277984   4.975   4.489   2.657  1.2637  0.7081  0.4348
18857TIP3   OH277985   6.118   6.616   4.734 -0.7307  0.5132  0.6454
18857TIP3    H177986   6.157   6.679   4.674 -1.6532  0.5674  0.1067
18857TIP3    H277987   6.116   6.534   4.685  1.0264 -0.1061  1.5482
18858TIP3   OH277988   1.062   2.353  12.866  0.3471  0.3803 -0.4994
18858TIP3    H177989   1.107   2.357  12.950  0.9558  0.3306 -0.8201
18858TIP3    H277990   1.004   2.430  12.866 -0.6582 -0.3490  0.5188
18859TIP3   OH277991   5.787   2.665   4.574 -0.2348 -0.2118  0.1788
18859TIP3    H177992   5.758   2.590   4.625 -0.8883 -0.7042 -0.9118
18859TIP3    H277993   5.881   2.670   4.590 -0.5477  0.1276  2.0717
18860TIP3   OH277994   2.413   3.362   4.114 -0.3852  0.2164  0.0849
18860TIP3    H177995   2.431   3.313   4.194  1.3219 -0.2884 -0.5893
18860TIP3    H277996   2.431   3.301   4.043 -2.4922  0.4690 -0.6991
18861TIP3   OH277997   4.528   6.712   3.091  0.5003  0.0671  0.1005
18861TIP3    H177998   4.565   6.769   3.024 -1.0031  0.7778 -0.1451
18861TIP3    H277999   4.538   6.761   3.172  1.4690 -0.4012  0.2825
18862TIP3   OH278000   2.449   1.583  16.816  0.2851 -0.0929  0.6335
18862TIP3    H178001   2.487   1.644  16.753  1.2400 -0.0775  1.2057
18862TIP3    H278002   2.481   1.497  16.787  0.3092 -0.1373  0.7912
18863TIP3   OH278003   4.866   1.397  16.765 -0.3041 -0.0553 -0.5343
18863TIP3    H178004   4.904   1.481  16.736 -3.4225  1.5550 -0.1302
18863TIP3    H278005   4.801   1.375  16.699 -2.5071  0.0619  1.5137
18864TIP3   OH278006   2.415   2.338   1.967 -0.1680 -0.2286 -0.2553
18864TIP3    H178007   2.487   2.401   1.972 -0.0677 -0.3813  0.2846
18864TIP3    H278008   2.366   2.364   1.889  0.3608 -0.0062 -0.5153
18865TIP3   OH278009   5.345   1.859  11.944  0.3232 -0.3530 -0.2184
18865TIP3    H178010   5.278   1.806  11.988 -1.5385  2.8573  1.0169
18865TIP3    H278011   5.345   1.828  11.854 -1.5615 -1.6290  0.1839
18866TIP3   OH278012   5.129   4.298  16.106  0.5399 -0.6522 -0.9392
18866TIP3    H178013   5.071   4.262  16.173 -0.8971  0.0928 -1.7479
18866TIP3    H278014   5.157   4.222  16.055  1.9384 -1.2689  0.6968
18867TIP3   OH278015   0.144   1.118  13.095  0.0395 -0.4692  0.2306
18867TIP3    H178016   0.074   1.166  13.139  0.7287  0.0391  0.7954
18867TIP3    H278017   0.213   1.112  13.161  0.6728 -0.6366 -0.4477
18868TIP3   OH278018   0.308   2.684  16.619 -0.0355  0.8815  0.3327
18868TIP3    H178019   0.259   2.620  16.671  2.7650 -1.0099  0.7809
18868TIP3    H278020   0.336   2.750  16.683 -1.5199  1.7046  0.1597
18869TIP3   OH278021   4.242   1.606  17.129 -0.3293  0.0222 -0.3245
18869TIP3    H178022   4.315   1.546  17.113 -0.9754 -0.8383 -0.1096
18869TIP3    H278023   4.217   1.637  17.042  0.7315  0.8508 -0.3387
18870TIP3   OH278024   3.647   0.192   1.365 -0.2614  0.0992  0.5212
18870TIP3    H178025   3.695   0.242   1.299  0.4850 -1.4329 -0.1257
18870TIP3    H278026   3.558   0.186   1.330 -0.5958  1.7173  1.0383
18871TIP3   OH278027   4.204   3.910   3.573  0.1274  0.5238  0.4046
18871TIP3    H178028   4.261   3.983   3.596 -0.2776  1.5329 -1.6652
18871TIP3    H278029   4.118   3.951   3.557 -0.9052 -0.8156  2.3440
18872TIP3   OH278030   6.779   0.114  12.550 -0.0283 -0.7381 -0.0782
18872TIP3    H178031   6.718   0.183  12.523  0.4221 -0.6618 -0.9160
18872TIP3    H278032   6.821   0.148  12.629  1.7107  0.8603 -1.6307
18873TIP3   OH278033   0.572   3.097   0.775  0.7829  0.1402  0.8723
18873TIP3    H178034   0.616   3.019   0.742  0.0015  0.0470  0.0231
18873TIP3    H278035   0.582   3.162   0.705 -0.3551  0.1347  0.6892
18874TIP3   OH278036   4.504   3.846  16.662  0.1663 -0.2079 -0.1321
18874TIP3    H178037   4.476   3.815  16.577 -2.7725  1.1101  0.2785
18874TIP3    H278038   4.515   3.941  16.650  0.4149 -0.1201  0.7573
18875TIP3   OH278039   0.368   2.360   2.581  0.0409  0.2763  0.0280
18875TIP3    H178040   0.454   2.324   2.564 -0.5678 -2.3970  2.1985
18875TIP3    H278041   0.385   2.447   2.618  1.8551 -0.4818  1.0431
18876TIP3   OH278042   4.266   6.612  13.410  0.3913 -0.1526  0.5247
18876TIP3    H178043   4.262   6.547  13.340 -0.4945  1.2437 -0.7274
18876TIP3    H278044   4.358   6.610  13.439  0.8889 -0.3168 -1.0524
18877TIP3   OH278045   3.945   6.245   3.887 -0.2897 -0.2919  0.0251
18877TIP3    H178046   3.956   6.254   3.982 -1.8565  0.8213  0.1166
18877TIP3    H278047   4.017   6.189   3.860  0.2288 -0.5465  1.8699
18878TIP3   OH278048   5.122   2.120  13.228  0.5336  0.4135  0.3199
18878TIP3    H178049   5.161   2.131  13.315 -1.0968 -0.8235  1.2285
18878TIP3    H278050   5.030   2.144  13.240 -0.0842 -1.3607 -0.6760
18879TIP3   OH278051   0.698   4.502  14.653  0.1637  0.1519 -0.4866
18879TIP3    H178052   0.769   4.454  14.695  0.1417  0.7839  0.2911
18879TIP3    H278053   0.626   4.439  14.646 -0.0037  0.1810  0.8911
18880TIP3   OH278054   1.179   0.423   2.164  0.1789  0.1458 -0.0873
18880TIP3    H178055   1.117   0.379   2.105  0.6390 -0.1348 -0.3589
18880TIP3    H278056   1.125   0.450   2.239 -0.1718 -0.5485 -0.0897
18881TIP3   OH278057   1.889   2.368  13.558 -0.2417 -0.1322  0.2770
18881TIP3    H178058   1.951   2.440  13.562  0.8376 -0.9366 -1.3911
18881TIP3    H278059   1.805   2.410  13.541 -0.0451  0.8990  1.7708
18882TIP3   OH278060   3.365   0.819   5.515 -0.5663 -0.1321  0.0595
18882TIP3    H178061   3.458   0.810   5.540 -0.1052  0.8629 -1.2444
18882TIP3    H278062   3.317   0.786   5.591  0.8765 -2.3691  0.0644
18883TIP3   OH278063   5.777   2.412   3.797  0.6556 -0.3155  0.1706
18883TIP3    H178064   5.850   2.352   3.811  0.2059 -1.3027 -1.5989
18883TIP3    H278065   5.699   2.361   3.820  0.3023 -0.2473 -0.8650
18884TIP3   OH278066   2.340   3.657  10.841  0.0282  0.4985 -0.0702
18884TIP3    H178067   2.359   3.742  10.880  1.9606 -0.2145  0.6320
18884TIP3    H278068   2.426   3.623  10.815 -0.6737 -1.4067  0.0331
18885TIP3   OH278069   2.290   5.759  11.960  0.7467  0.0087 -0.3830
18885TIP3    H178070   2.380   5.790  11.955  0.3822  1.1790  0.1955
18885TIP3    H278071   2.281   5.701  11.884  2.0062 -0.1959 -0.3900
18886TIP3   OH278072   1.269   4.028  10.397  0.0414  0.2763  0.7517
18886TIP3    H178073   1.183   3.991  10.418  0.4183 -0.1755  1.5377
18886TIP3    H278074   1.331   3.971  10.442  0.8010  0.1421 -0.4380
18887TIP3   OH278075   1.803   0.077  16.774  0.0409 -0.2139 -0.2943
18887TIP3    H178076   1.741   0.121  16.715 -1.6379 -2.1853 -0.0548
18887TIP3    H278077   1.753   0.004  16.811  2.5914 -1.9433 -0.1873
18888TIP3   OH278078   5.804   5.625   2.868  0.6245  0.6607  0.0129
18888TIP3    H178079   5.819   5.643   2.775 -0.1863 -0.8750 -0.4420
18888TIP3    H278080   5.892   5.624   2.906  1.1107 -0.4545 -1.0963
18889TIP3   OH278081   6.580   0.792   1.524  0.1243 -0.3094 -0.2718
18889TIP3    H178082   6.487   0.775   1.540 -0.1468  1.2993 -0.0292
18889TIP3    H278083   6.580   0.856   1.452  1.0720 -1.1099 -0.9814
18890TIP3   OH278084   6.078   1.410   5.764 -0.5185 -0.1170  0.3914
18890TIP3    H178085   6.159   1.460   5.754 -1.3241  0.8955 -1.2109
18890TIP3    H278086   6.097   1.348   5.835  1.2659  0.8803  0.8186
18891TIP3   OH278087   1.626   3.000   2.684 -0.2855  0.0633  0.0835
18891TIP3    H178088   1.721   2.991   2.697 -0.0440  2.0993 -0.1601
18891TIP3    H278089   1.588   2.968   2.765  0.5837 -0.9630  0.1112
18892TIP3   OH278090   4.078   0.817   3.942 -0.1196 -0.1312 -0.0718
18892TIP3    H178091   3.994   0.853   3.971 -0.2267 -0.1160 -0.3917
18892TIP3    H278092   4.084   0.733   3.987  0.2546  0.4006  0.8719
18893TIP3   OH278093   5.612   2.560   4.366 -0.0846 -0.2379  0.1535
18893TIP3    H178094   5.532   2.510   4.386 -1.9852  3.4270  2.2849
18893TIP3    H278095   5.640   2.595   4.450  3.1198 -0.4306 -0.7827
18894TIP3   OH278096   5.778   0.355   6.275  0.5074 -0.8080  0.2961
18894TIP3    H178097   5.804   0.317   6.360 -2.6601 -1.3754  1.0674
18894TIP3    H278098   5.709   0.298   6.243 -0.8020  1.4183 -0.9961
18895TIP3   OH278099   5.824   2.151  15.322  0.4023 -0.5538  0.1684
18895TIP3    H178100   5.883   2.171  15.394 -0.1447 -0.3996  0.5780
18895TIP3    H278101   5.752   2.214  15.331  0.8364  0.1598 -1.1234
18896TIP3   OH278102   3.180   3.855  10.353 -0.0582  0.1470 -0.2377
18896TIP3    H178103   3.270   3.824  10.347 -0.1909 -0.1123 -0.8710
18896TIP3    H278104   3.180   3.938  10.304  0.1329  0.7943  0.8497
18897TIP3   OH278105   3.493   2.365  16.751  0.0441  0.4120  0.6183
18897TIP3    H178106   3.478   2.436  16.689 -3.7663  1.4178  2.5680
18897TIP3    H278107   3.417   2.307  16.740  1.9926 -2.2486  0.6120
18898TIP3   OH278108   1.884   5.299  14.616  0.2094  0.2433 -0.4098
18898TIP3    H178109   1.812   5.237  14.622  0.0274  0.4094 -0.9242
18898TIP3    H278110   1.913   5.310  14.707 -0.1027 -0.1803 -0.2581
18899TIP3   OH278111   5.475   0.642  15.030 -0.0319 -0.3003  0.0313
18899TIP3    H178112   5.422   0.648  15.109 -0.9159 -2.8014 -0.3166
18899TIP3    H278113   5.561   0.614  15.061  0.7159  2.3785  0.4535
18900TIP3   OH278114   1.803   3.453  14.253 -0.3393 -0.7197 -0.2592
18900TIP3    H178115   1.865   3.475  14.323 -0.7893 -0.0146 -0.0825
18900TIP3    H278116   1.739   3.396  14.296 -0.4423 -0.5364 -0.1672
18901TIP3   OH278117   3.531   5.417   3.439 -0.1702  0.2538 -0.0342
18901TIP3    H178118   3.579   5.482   3.387 -1.5069  2.8684  1.9094
18901TIP3    H278119   3.459   5.389   3.382  0.6809  0.0977 -1.0515
18902TIP3   OH278120   4.572   0.643   6.779 -0.5019  0.8642  0.0966
18902TIP3    H178121   4.606   0.686   6.858  0.6701  0.5426 -0.2157
18902TIP3    H278122   4.477   0.642   6.791 -0.2930  0.0079  1.9539
18903TIP3   OH278123   6.449   3.052  14.404 -0.2610 -0.2859 -0.0621
18903TIP3    H178124   6.372   3.108  14.413 -1.3993 -1.8332  0.0042
18903TIP3    H278125   6.471   3.056  14.311 -0.3138  0.3040 -0.0478
18904TIP3   OH278126   5.721   1.937   6.650  0.2199  0.3244 -0.2743
18904TIP3    H178127   5.781   1.888   6.706  0.6484  0.1356 -0.8855
18904TIP3    H278128   5.681   1.871   6.594 -0.0808  0.5302 -0.3042
18905TIP3   OH278129   5.745   3.402  13.653  0.1092  0.0729 -0.4435
18905TIP3    H178130   5.657   3.438  13.649  0.2702  0.2833 -3.8355
18905TIP3    H278131   5.793   3.461  13.712 -2.3301 -0.9171  2.6590
18906TIP3   OH278132   3.155   5.707   5.155  0.2532  0.1547  0.5180
18906TIP3    H178133   3.063   5.735   5.162 -0.7400 -2.7612 -0.1033
18906TIP3    H278134   3.180   5.728   5.065 -0.0166  0.3753  0.4944
18907TIP3   OH278135   6.031   1.161  11.919  0.0695 -0.2211 -0.1550
18907TIP3    H178136   6.097   1.231  11.921 -1.7789  1.5371  0.6081
18907TIP3    H278137   6.076   1.086  11.958  2.0260  0.5718 -0.7903
18908TIP3   OH278138   2.645   5.995   2.854 -1.0026  0.1186 -0.1220
18908TIP3    H178139   2.715   6.053   2.823  0.8496 -1.8783  0.2510
18908TIP3    H278140   2.629   5.935   2.781 -1.5012 -0.2077  0.2495
18909TIP3   OH278141   5.974   1.690  16.615  0.0882 -0.0134 -0.4181
18909TIP3    H178142   6.030   1.761  16.585  0.2577  0.4622  0.9838
18909TIP3    H278143   6.034   1.626  16.654 -0.3879  1.0046  2.0933
18910TIP3   OH278144   3.090   3.994  12.536 -0.6701  0.0810  0.3246
18910TIP3    H178145   3.103   3.915  12.483  1.5872  1.3483 -1.0803
18910TIP3    H278146   2.995   3.999  12.550 -1.0789 -1.4480 -1.7763
18911TIP3   OH278147   0.528   0.484  10.796  0.0548  0.1275 -0.2505
18911TIP3    H178148   0.558   0.548  10.861  0.2099 -0.6301  0.4350
18911TIP3    H278149   0.602   0.473  10.736  1.2068 -1.7509  1.4468
18912TIP3   OH278150   3.049   6.718   1.445  0.2429 -0.6434  0.0718
18912TIP3    H178151   3.004   6.653   1.391 -1.6911 -1.2486  2.3430
18912TIP3    H278152   3.135   6.729   1.403 -0.7724 -1.9206 -2.4421
18913TIP3   OH278153   5.645   6.637   1.660  0.2920 -0.6247  0.0389
18913TIP3    H178154   5.734   6.672   1.658  0.1723 -0.3523 -0.5563
18913TIP3    H278155   5.590   6.712   1.684  0.0870 -0.5000 -0.8013
18914TIP3   OH278156   1.235   2.182  13.337 -0.6445 -0.5250  0.0148
18914TIP3    H178157   1.293   2.107  13.326 -0.7113 -0.6684  0.6098
18914TIP3    H278158   1.181   2.182  13.258  0.2527 -0.3058 -0.6041
18915TIP3   OH278159   0.182   1.986   1.318 -0.2161  0.2117 -0.1107
18915TIP3    H178160   0.093   1.966   1.290  0.4769 -0.3047 -2.0189
18915TIP3    H278161   0.203   1.918   1.382 -1.0191  0.0830  0.0199
18916TIP3   OH278162   4.246   2.172   5.727 -0.2052  0.2211  0.1940
18916TIP3    H178163   4.189   2.097   5.742 -0.0294  0.4267  1.9826
18916TIP3    H278164   4.224   2.234   5.797 -0.7103  2.0582 -1.5553
18917TIP3   OH278165   0.124   1.071  16.434  0.7113  0.5968  0.4646
18917TIP3    H178166   0.134   0.989  16.483 -1.7507  0.5218  0.9011
18917TIP3    H278167   0.146   1.047  16.344 -0.5182 -0.7066  0.4807
18918TIP3   OH278168   0.888   5.621   1.374  1.0700  0.1808 -0.1516
18918TIP3    H178169   0.816   5.597   1.433  0.3702  1.0818 -0.6318
18918TIP3    H278170   0.847   5.623   1.288  1.9239 -0.3740 -0.5693
18919TIP3   OH278171   2.666   2.938   4.005  0.0059 -0.4297 -0.1737
18919TIP3    H178172   2.624   2.887   4.075  1.5673  0.8646  1.7508
18919TIP3    H278173   2.760   2.925   4.018  0.4286  2.5942  0.1234
18920TIP3   OH278174   4.361   4.203   6.611  0.0162 -0.3996 -0.2571
18920TIP3    H178175   4.309   4.134   6.653  0.8877 -0.1116  1.3036
18920TIP3    H278176   4.451   4.185   6.637  0.3016  1.1049 -0.1425
18921TIP3   OH278177   5.742   3.907  10.808  0.0190 -0.3536  0.4960
18921TIP3    H178178   5.699   3.936  10.728  1.0377  0.3809  0.2024
18921TIP3    H278179   5.672   3.864  10.859 -0.7470 -0.3404 -0.5346
18922TIP3   OH278180   5.593   2.685  15.013  0.6044  0.2614 -0.4260
18922TIP3    H178181   5.536   2.762  15.018  0.7058  0.3417 -0.5039
18922TIP3    H278182   5.651   2.704  14.939  1.2153  0.5016  0.1149
18923TIP3   OH278183   4.326   0.359   4.682 -0.4716 -0.2832  0.3067
18923TIP3    H178184   4.232   0.374   4.688 -0.6617 -1.5192  0.4698
18923TIP3    H278185   4.364   0.446   4.689 -1.6716  0.4334 -1.5077
18924TIP3   OH278186   0.066   2.838   1.867 -0.3710 -0.0019 -0.7606
18924TIP3    H178187   0.145   2.875   1.828  1.0167  1.3892  3.1070
18924TIP3    H278188   0.086   2.745   1.877  0.7519  0.3163  0.0817
18925TIP3   OH278189   3.409   3.500  14.711 -0.1189 -0.6778  0.6584
18925TIP3    H178190   3.336   3.444  14.738 -1.2748  0.7054  0.4525
18925TIP3    H278191   3.427   3.554  14.787 -1.5426  1.2952 -0.3574
18926TIP3   OH278192   5.705   2.406   4.667  0.1745 -0.4493  0.6108
18926TIP3    H178193   5.702   2.317   4.631  0.1732  0.0911 -0.7718
18926TIP3    H278194   5.619   2.419   4.706  0.4477 -1.3385  1.5324
18927TIP3   OH278195   1.423   1.768  12.084 -0.1490  0.4584 -1.1409
18927TIP3    H178196   1.328   1.756  12.077 -0.3267  1.6676 -0.9417
18927TIP3    H278197   1.434   1.841  12.145  0.8998  0.5347 -1.4011
18928TIP3   OH278198   2.021   4.035  14.080 -0.1286  0.2238  0.0725
18928TIP3    H178199   2.083   4.014  14.150 -0.1577 -0.3610 -0.0742
18928TIP3    H278200   2.066   4.008  14.000 -0.3007  0.4213 -0.0902
18929TIP3   OH278201   2.255   6.558   5.938 -0.2142 -0.3988 -0.5522
18929TIP3    H178202   2.345   6.570   5.968 -0.0239  1.2747 -1.7955
18929TIP3    H278203   2.263   6.528   5.848 -0.9338  2.2852 -1.5396
18930TIP3   OH278204   2.680   5.323  15.084  0.1526  0.1202 -0.1909
18930TIP3    H178205   2.711   5.406  15.122  0.4972  1.2301 -2.8185
18930TIP3    H278206   2.750   5.296  15.025 -0.3089 -1.6692  0.0581
18931TIP3   OH278207   0.208   1.963  10.501  0.4420 -0.2719  0.4906
18931TIP3    H178208   0.118   1.943  10.475  0.5971 -0.2193 -0.0766
18931TIP3    H278209   0.252   1.989  10.420  1.4117 -1.9280  0.4654
18932TIP3   OH278210   5.595   4.907   1.395  0.1842  0.4710 -0.3806
18932TIP3    H178211   5.633   4.823   1.371 -0.2655 -0.2672  1.3879
18932TIP3    H278212   5.582   4.953   1.312  0.2551 -1.2787 -1.3694
18933TIP3   OH278213   6.045   1.654  11.504  0.0900  0.5412  0.0604
18933TIP3    H178214   6.080   1.742  11.510 -0.8111  1.0870 -2.2779
18933TIP3    H278215   6.107   1.600  11.552  1.4141  2.2317  0.2719
18934TIP3   OH278216   0.454   0.156  11.830  0.5693  0.1772 -0.3538
18934TIP3    H178217   0.503   0.130  11.752 -0.6133 -1.5921 -0.5374
18934TIP3    H278218   0.521   0.190  11.890  1.9410 -1.5529 -0.8544
18935TIP3   OH278219   5.945   2.092   2.022  0.6202  0.1384 -0.4403
18935TIP3    H178220   5.865   2.042   2.003  0.7559 -0.1905 -0.1509
18935TIP3    H278221   5.962   2.141   1.942  0.8704 -0.8073 -0.9723
18936TIP3   OH278222   5.624   4.029   4.369  0.3843  0.3968 -0.3478
18936TIP3    H178223   5.585   4.115   4.353 -0.6377  0.3055  1.4459
18936TIP3    H278224   5.549   3.970   4.377  0.9653 -0.1814  1.0199
18937TIP3   OH278225   4.360   2.326   1.687  0.0434  0.3533  0.5350
18937TIP3    H178226   4.409   2.283   1.616  0.5808  2.9650 -0.7274
18937TIP3    H278227   4.427   2.348   1.752 -0.0840  0.1439  0.7357
18938TIP3   OH278228   5.841   5.521   0.566 -0.5123 -0.4608 -0.0789
18938TIP3    H178229   5.807   5.575   0.637 -1.1072 -0.6515 -0.2111
18938TIP3    H278230   5.781   5.538   0.493  0.7587  0.5947 -0.8773
18939TIP3   OH278231   0.849   5.816   5.097 -0.0626 -0.6701 -0.3130
18939TIP3    H178232   0.768   5.766   5.082  0.2522 -1.2913  0.0531
18939TIP3    H278233   0.834   5.862   5.180  0.7771 -2.4627  0.8622
18940TIP3   OH278234   5.333   2.923   3.722  0.6070  0.0857 -0.2646
18940TIP3    H178235   5.400   2.866   3.759  2.3654  2.6552  0.6336
18940TIP3    H278236   5.251   2.879   3.741  1.7700 -1.0264  2.4289
18941TIP3   OH278237   6.651   2.344   6.032 -0.0586 -0.0976 -0.6065
18941TIP3    H178238   6.670   2.297   5.951  1.3380 -0.2432 -0.2116
18941TIP3    H278239   6.595   2.417   6.005  0.1180 -0.3352 -1.6451
18942TIP3   OH278240   3.895   2.460  14.895 -0.5912 -0.2945 -0.1610
18942TIP3    H178241   3.955   2.462  14.821  0.0963 -1.5419  0.3459
18942TIP3    H278242   3.901   2.548  14.933 -2.1323  0.8583 -2.4778
18943TIP3   OH278243   5.147   6.512  15.786 -0.1071  0.2628 -0.3418
18943TIP3    H178244   5.208   6.491  15.857 -0.4890 -2.5763 -0.7903
18943TIP3    H278245   5.198   6.498  15.706 -0.5976  0.4010 -0.6757
18944TIP3   OH278246   5.313   0.028  15.354  0.8395 -0.0118 -0.2955
18944TIP3    H178247   5.349   0.039  15.442  0.4713 -2.5562  0.2269
18944TIP3    H278248   5.346  -0.057  15.325  1.0044  0.8187 -2.6504
18945TIP3   OH278249   0.628   2.668  16.175 -0.2680  0.1518 -0.3963
18945TIP3    H178250   0.660   2.747  16.131 -0.1125  0.2386 -0.1274
18945TIP3    H278251   0.557   2.699  16.231  0.8761  0.3547  0.9555
18946TIP3   OH278252   3.938   5.333  14.834 -0.2012  0.0316 -0.5598
18946TIP3    H178253   3.997   5.408  14.830  2.0062 -1.6814 -1.1230
18946TIP3    H278254   3.939   5.305  14.925  0.0812 -0.1795 -0.6280
18947TIP3   OH278255   0.706   0.292  17.151  0.2407  0.5285  0.3247
18947TIP3    H178256   0.756   0.248  17.219 -0.1728  0.9564  0.9067
18947TIP3    H278257   0.697   0.227  17.082  1.5224  0.4206  0.2518
18948TIP3   OH278258   0.774   6.764  13.716  0.4995  0.5644  0.1886
18948TIP3    H178259   0.703   6.709  13.751  1.7417 -0.3290  1.3825
18948TIP3    H278260   0.755   6.851  13.750 -0.9397  0.6806 -0.8809
18949TIP3   OH278261   4.013   5.156   2.120  0.8035 -0.1619 -0.1303
18949TIP3    H178262   4.082   5.122   2.177  0.5301  0.2104  0.4327
18949TIP3    H278263   4.055   5.226   2.070  0.7234  0.3838  0.5524
18950TIP3   OH278264   6.610   1.130   2.171 -0.0192 -0.1819 -0.0451
18950TIP3    H178265   6.664   1.209   2.164 -1.1357  0.8023  1.9670
18950TIP3    H278266   6.524   1.157   2.139 -0.7781 -0.1700  1.9588
18951TIP3   OH278267   2.286   1.323   6.371  0.0521  0.4350 -0.4738
18951TIP3    H178268   2.225   1.252   6.351  0.6406 -0.5394  1.1479
18951TIP3    H278269   2.299   1.318   6.466  1.8077  1.3229 -0.6543
18952TIP3   OH278270   1.848   5.267  14.315 -0.1966 -0.3773 -0.1315
18952TIP3    H178271   1.774   5.324  14.294  0.8531  0.7842 -0.7410
18952TIP3    H278272   1.918   5.328  14.342  0.7013 -1.4165 -0.0823
18953TIP3   OH278273   1.682   0.579   4.359 -0.1284  0.2748 -0.1812
18953TIP3    H178274   1.629   0.503   4.334  0.4690 -0.1075 -0.3085
18953TIP3    H278275   1.763   0.541   4.392 -0.2886  0.8318  0.8660
18954TIP3   OH278276   0.608   3.709   5.188  0.3169 -0.1047 -0.1041
18954TIP3    H178277   0.628   3.625   5.230 -0.6732 -0.6872 -0.7760
18954TIP3    H278278   0.639   3.775   5.250 -0.9369 -0.9467  1.4652
18955TIP3   OH278279   0.975   2.566  14.893 -0.1348  0.4668  0.3593
18955TIP3    H178280   0.951   2.584  14.984  0.1361  0.6942  0.3839
18955TIP3    H278281   0.985   2.471  14.889  0.3741  0.5109  0.6887
18956TIP3   OH278282   5.870   4.585  12.022  0.2678  0.2070  0.8699
18956TIP3    H178283   5.912   4.541  11.948  0.1847  0.7227  0.5148
18956TIP3    H278284   5.778   4.593  11.995  0.3890  1.0619  0.7232
18957TIP3   OH278285   5.022   0.892   2.417  0.1562  0.1048  0.1555
18957TIP3    H178286   5.101   0.851   2.383 -0.3614 -2.0408  1.4161
18957TIP3    H278287   5.052   0.972   2.460  1.4843 -0.0728 -0.4471
18958TIP3   OH278288   5.336   2.821   3.103  0.0853 -0.2820  0.2478
18958TIP3    H178289   5.259   2.859   3.060 -0.9458 -0.2071  2.0854
18958TIP3    H278290   5.386   2.781   3.032 -1.0363  0.7378 -1.1372
18959TIP3   OH278291   5.134   5.713   3.824 -0.3980 -0.4568  0.6077
18959TIP3    H178292   5.206   5.689   3.766 -1.2992 -1.0621 -0.2942
18959TIP3    H278293   5.099   5.629   3.855 -0.2708 -0.1497  1.5944
18960TIP3   OH278294   2.403   4.321   3.426  0.3262 -0.0722 -0.3244
18960TIP3    H178295   2.434   4.400   3.470  1.9854 -0.6009 -0.5062
18960TIP3    H278296   2.378   4.349   3.338 -2.9639  0.9871  0.8708
18961TIP3   OH278297   0.019   1.210  14.129 -0.6017 -0.1437 -0.5470
18961TIP3    H178298  -0.003   1.200  14.221  2.8714 -1.9911  0.1739
18961TIP3    H278299  -0.038   1.149  14.083  1.0565 -2.9497  0.9671
18962TIP3   OH278300   0.079   6.482  11.154 -0.7275 -0.2717  0.2041
18962TIP3    H178301   0.135   6.470  11.077  0.1116 -0.6811  0.8750
18962TIP3    H278302   0.015   6.411  11.149  0.7768 -1.7162  1.1440
18963TIP3   OH278303   4.890   5.195   4.953  0.4183 -0.0394  0.1765
18963TIP3    H178304   4.909   5.280   4.993 -1.2810  0.2741  0.3753
18963TIP3    H278305   4.955   5.186   4.883  1.5706  0.7283  1.1410
18964TIP3   OH278306   6.433   0.954  16.086 -0.0914  0.2928  0.3246
18964TIP3    H178307   6.411   1.042  16.117 -1.8736 -0.3671  1.0146
18964TIP3    H278308   6.398   0.895  16.153  1.4687 -0.9412  0.0932
18965TIP3   OH278309   2.455   4.197  11.811  0.0972 -0.2172  0.3038
18965TIP3    H178310   2.397   4.244  11.752 -0.2705 -0.4669  0.4633
18965TIP3    H278311   2.518   4.263  11.840  0.0546 -0.0092 -0.0767
18966TIP3   OH278312   2.830   4.711  13.761 -0.3448 -0.2869  0.3665
18966TIP3    H178313   2.736   4.728  13.758 -0.5794 -1.5984 -0.2578
18966TIP3    H278314   2.850   4.672  13.676  1.0373  1.2820 -0.0595
18967TIP3   OH278315   0.976   1.503   1.955 -0.4306 -0.2675 -0.3455
18967TIP3    H178316   1.042   1.459   1.901  0.2890 -1.1765  1.2590
18967TIP3    H278317   0.893   1.463   1.928  0.0883 -1.7740  0.2444
18968TIP3   OH278318   6.328   2.459   2.402  0.1751  0.4329  0.3526
18968TIP3    H178319   6.388   2.448   2.329  0.0281  0.5593  0.2107
18968TIP3    H278320   6.331   2.552   2.422 -1.6685  0.8600 -1.1384
18969TIP3   OH278321   1.714   0.417  10.610 -0.2507  0.3954 -0.3910
18969TIP3    H178322   1.671   0.442  10.528 -1.3255  1.5667  0.5072
18969TIP3    H278323   1.759   0.497  10.638  0.2016 -0.0313  0.1075
18970TIP3   OH278324   3.281   4.078  14.697 -0.4904 -0.6062  0.2255
18970TIP3    H178325   3.268   4.156  14.642  0.1439 -0.7865 -0.1896
18970TIP3    H278326   3.252   4.005  14.643  0.5947 -0.8346 -0.0717
18971TIP3   OH278327   2.136   1.508  16.012 -0.1206 -0.2723  0.2592
18971TIP3    H178328   2.195   1.481  15.941 -0.4204  1.6832 -0.7712
18971TIP3    H278329   2.052   1.525  15.968 -0.2754  1.0722  1.0486
18972TIP3   OH278330   5.504   4.880  13.644 -0.1303  0.3621  0.0412
18972TIP3    H178331   5.426   4.836  13.679  0.0982 -1.0287 -1.1466
18972TIP3    H278332   5.531   4.941  13.713 -0.2758 -1.6112  1.8700
18973TIP3   OH278333   1.170   5.028   5.948  0.1275 -0.1215  0.1848
18973TIP3    H178334   1.221   5.035   5.867 -1.2791 -0.6656 -0.7782
18973TIP3    H278335   1.080   5.046   5.921 -0.3397 -0.1765  1.6630
18974TIP3   OH278336   6.418   3.359   4.038  0.5102 -0.2890 -0.2402
18974TIP3    H178337   6.493   3.354   3.979  0.8445  2.4068 -0.1061
18974TIP3    H278338   6.447   3.316   4.118  1.2724 -0.8067 -0.7852
18975TIP3   OH278339   4.340   5.275   0.306 -0.7104  0.3429  0.2377
18975TIP3    H178340   4.294   5.239   0.231  0.5989 -1.4690  0.2687
18975TIP3    H278341   4.370   5.362   0.277 -2.5727  0.8008 -0.3670
18976TIP3   OH278342   0.717   5.882  12.319 -0.3330  0.1155  0.3493
18976TIP3    H178343   0.728   5.943  12.246 -0.8447 -0.0427  0.1397
18976TIP3    H278344   0.688   5.800  12.278 -2.1822  0.4759  0.8712
18977TIP3   OH278345   2.032   2.758  15.202 -0.3702 -0.3703  0.2396
18977TIP3    H178346   2.043   2.853  15.207  0.5257 -0.2004 -3.2009
18977TIP3    H278347   2.109   2.723  15.247 -0.9740  0.5259  1.9868
18978TIP3   OH278348   3.009   6.482   1.233  0.6832  0.0554  0.1573
18978TIP3    H178349   2.921   6.483   1.197  0.7050  1.2426  0.1113
18978TIP3    H278350   3.066   6.505   1.160  0.9006  0.6130  0.4953
18979TIP3   OH278351   0.040   5.883  14.854  1.0244 -0.4955  0.1489
18979TIP3    H178352   0.053   5.952  14.789 -0.4045 -2.3300 -2.1643
18979TIP3    H278353   0.012   5.806  14.803  0.9931 -2.3327  2.8077
18980TIP3   OH278354   5.265   4.403   2.916  0.2170  0.4306 -0.2207
18980TIP3    H178355   5.286   4.404   3.009 -0.2862 -0.4813 -0.0887
18980TIP3    H278356   5.252   4.310   2.896  1.9835  0.4631 -1.5711
18981TIP3   OH278357   2.429   4.066  16.266 -0.1405  0.0447 -0.1969
18981TIP3    H178358   2.521   4.056  16.238 -0.3217  0.6961 -1.0493
18981TIP3    H278359   2.384   4.099  16.188 -0.9627  0.4162  0.4322
18982TIP3   OH278360   0.646   1.756  16.154  0.4769  0.4153  0.3027
18982TIP3    H178361   0.568   1.811  16.150 -0.2241 -0.5734  0.2218
18982TIP3    H278362   0.646   1.721  16.244  1.3646  1.1796  0.6095
18983TIP3   OH278363   2.090   2.155   1.002 -0.3689 -0.4223  0.0012
18983TIP3    H178364   2.006   2.194   1.023  0.1431  0.0005  1.3406
18983TIP3    H278365   2.074   2.104   0.923 -2.0990 -1.0823  0.7470
18984TIP3   OH278366   6.141   6.234  11.775  0.2571 -0.3602  0.2908
18984TIP3    H178367   6.233   6.227  11.800 -0.5144 -1.4074  2.9810
18984TIP3    H278368   6.102   6.151  11.805 -1.8333  0.6457  0.4260
18985TIP3   OH278369   3.169   1.416   4.002  0.4873 -0.0328 -0.1908
18985TIP3    H178370   3.202   1.366   4.078 -0.2092  0.7898  0.6546
18985TIP3    H278371   3.231   1.488   3.993 -0.1599  0.5911  0.3840
18986TIP3   OH278372   3.274   0.489   4.618 -0.1826  0.0923 -0.4356
18986TIP3    H178373   3.187   0.479   4.580 -1.0410 -0.4944  1.6560
18986TIP3    H278374   3.264   0.462   4.709  1.8955  1.2690  0.1649
18987TIP3   OH278375   5.642   1.716  15.846  0.1920 -0.3037  0.0720
18987TIP3    H178376   5.667   1.624  15.836  3.8198  0.4431  1.4203
18987TIP3    H278377   5.701   1.764  15.787 -0.2587  1.3349  0.9126
18988TIP3   OH278378   6.210   0.110   3.836 -0.1040 -0.0080 -0.1346
18988TIP3    H178379   6.130   0.111   3.784 -0.5769 -2.0899  0.5279
18988TIP3    H278380   6.193   0.174   3.906 -0.8789  0.1351 -0.4482
18989TIP3   OH278381   0.673   6.061  13.899  0.1074 -0.4410  0.2757
18989TIP3    H178382   0.617   6.099  13.832 -0.4307 -0.4326  0.7275
18989TIP3    H278383   0.640   5.973  13.912  0.9809 -0.8648 -0.3374
18990TIP3   OH278384   3.690   5.834  13.725  0.5307 -0.5454 -0.0062
18990TIP3    H178385   3.713   5.753  13.770 -0.8474 -1.3113 -0.6409
18990TIP3    H278386   3.621   5.873  13.778  0.6215 -0.2022 -0.1394
18991TIP3   OH278387   6.597   4.579   0.788  0.1794  0.3537 -0.4358
18991TIP3    H178388   6.692   4.569   0.791  0.1217 -0.9247 -2.3092
18991TIP3    H278389   6.569   4.565   0.879  1.6844 -0.2889 -0.0585
18992TIP3   OH278390   5.125   2.728   4.810 -0.8127  0.1939  0.2100
18992TIP3    H178391   5.135   2.753   4.718  1.3486  0.9007  0.6105
18992TIP3    H278392   5.052   2.666   4.810 -0.2544 -0.5088 -2.1032
18993TIP3   OH278393   5.818   4.256   1.601 -0.6590  0.0797 -0.2282
18993TIP3    H178394   5.872   4.299   1.536 -1.1168 -1.1047 -1.4136
18993TIP3    H278395   5.762   4.197   1.551 -2.3734  0.5642  1.0709
18994TIP3   OH278396   0.009   6.349  13.940  0.4310  0.1441  0.4486
18994TIP3    H178397   0.040   6.433  13.905  0.9207  0.1830  0.9762
18994TIP3    H278398   0.060   6.336  14.020 -1.1450  0.3594  1.4899
18995TIP3   OH278399   1.946   4.368   3.073 -0.0451 -0.2132 -0.1625
18995TIP3    H178400   1.860   4.363   3.032  0.3513  1.0496 -1.1693
18995TIP3    H278401   1.970   4.460   3.069  0.9371 -0.3926  1.0085
18996TIP3   OH278402   3.578   4.834  12.188  0.0602  0.1640  0.2644
18996TIP3    H178403   3.549   4.784  12.265 -0.0101 -0.5621 -0.2325
18996TIP3    H278404   3.672   4.848  12.202  0.1742 -0.5162  0.1747
18997TIP3   OH278405   5.547   0.209   2.130 -0.2743 -0.2794  0.5997
18997TIP3    H178406   5.498   0.287   2.157 -0.9198 -0.6039  0.3751
18997TIP3    H278407   5.482   0.139   2.132  0.1436 -0.6741  0.1175
18998TIP3   OH278408   0.213   1.981   1.736  0.0672  0.2065 -0.6264
18998TIP3    H178409   0.223   2.075   1.721 -0.1185  0.1212 -1.2725
18998TIP3    H278410   0.120   1.965   1.724 -0.1377  0.1916  0.8938
18999TIP3   OH278411   3.462   2.785   1.221 -0.1491  0.6054  0.4031
18999TIP3    H178412   3.389   2.836   1.187  0.6478  1.3141 -0.2497
18999TIP3    H278413   3.465   2.708   1.164  1.5502  2.0687 -1.5343
19000TIP3   OH278414   2.766   5.596  16.253 -0.1980  0.0122  0.6675
19000TIP3    H178415   2.739   5.596  16.161 -1.0075  2.5570  0.8823
19000TIP3    H278416   2.704   5.537  16.296  0.1382 -1.1312 -0.3846
19001TIP3   OH278417   1.609   6.378   4.197 -0.4578 -0.1687 -0.3471
19001TIP3    H178418   1.696   6.340   4.211 -1.3415 -2.0092  0.3689
19001TIP3    H278419   1.597   6.373   4.102 -0.1374 -0.7629 -0.3646
19002TIP3   OH278420   1.740   3.662   5.629 -0.5222  0.1985  0.2834
19002TIP3    H178421   1.754   3.705   5.713 -1.9999  1.4007 -0.0741
19002TIP3    H278422   1.646   3.650   5.622 -0.4487  0.3512 -1.3078
19003TIP3   OH278423   2.121   0.947   3.885  0.1352  0.2530  0.1315
19003TIP3    H178424   2.150   0.996   3.962  0.9540  0.3955 -0.2691
19003TIP3    H278425   2.194   0.952   3.823  0.1322 -1.2467 -0.0206
19004TIP3   OH278426   5.789   3.938  11.956 -0.6229 -0.0590 -0.5762
19004TIP3    H178427   5.779   3.910  12.047  3.7234  0.1438  0.0548
19004TIP3    H278428   5.804   3.856  11.908 -0.8601  0.0249 -0.7936
19005TIP3   OH278429   6.092   1.180   0.980 -0.3591  0.0527 -0.3083
19005TIP3    H178430   6.158   1.206   0.916 -0.1311 -0.4912 -0.2884
19005TIP3    H278431   6.056   1.098   0.947  0.7807 -1.0016  1.0147
19006TIP3   OH278432   1.694   6.459  14.163 -0.7191 -0.2274  0.2135
19006TIP3    H178433   1.634   6.477  14.090 -1.7458 -1.5165  0.7348
19006TIP3    H278434   1.769   6.417  14.121 -1.9976 -2.4496  0.0567
19007TIP3   OH278435   0.860   5.386   4.269  0.1541  0.0581  0.4982
19007TIP3    H178436   0.826   5.302   4.300  1.3943  0.1326  2.1282
19007TIP3    H278437   0.805   5.451   4.312 -0.6518  0.1032 -0.5773
19008TIP3   OH278438   0.043   4.305   0.924  0.3889  0.3756 -0.3727
19008TIP3    H178439   0.065   4.217   0.954 -1.0978 -0.1121 -0.7088
19008TIP3    H278440  -0.052   4.304   0.912  0.7321  1.0714 -3.4970
19009TIP3   OH278441   2.729   6.714   4.516  0.5893  0.1980  0.5177
19009TIP3    H178442   2.799   6.763   4.473 -0.3687  0.7127 -0.4919
19009TIP3    H278443   2.733   6.627   4.475  0.0618  0.5067 -0.2111
19010TIP3   OH278444   1.748   6.372   6.003 -0.1967  0.1421 -0.2219
19010TIP3    H178445   1.726   6.458   5.968 -1.4531  0.3390  0.9935
19010TIP3    H278446   1.680   6.355   6.068 -1.4646 -2.9106 -2.2628
19011TIP3   OH278447   6.467   5.890   0.775 -0.1536 -0.0835  0.0692
19011TIP3    H178448   6.496   5.967   0.824  1.0427 -0.5323  0.0876
19011TIP3    H278449   6.427   5.834   0.841 -2.4059  1.1520 -0.1850
19012TIP3   OH278450   5.386   1.854  11.653 -0.2511 -0.0134 -0.1124
19012TIP3    H178451   5.470   1.896  11.639 -0.3432 -0.1892 -1.2265
19012TIP3    H278452   5.392   1.771  11.606 -1.1068  0.0569 -0.3636
19013TIP3   OH278453   5.375   0.372  11.981 -0.2270  0.0735  0.0378
19013TIP3    H178454   5.362   0.466  11.983  1.1067  0.3927 -3.1982
19013TIP3    H278455   5.440   0.354  12.049 -0.2287  1.5269  0.4236
19014TIP3   OH278456   0.023   6.371   1.285 -0.5167 -0.3608 -0.2916
19014TIP3    H178457   0.013   6.411   1.372 -0.8505 -2.2032  0.5296
19014TIP3    H278458   0.020   6.445   1.225 -2.6612  0.7460  1.0968
19015TIP3   OH278459   5.674   0.665   4.957 -0.0750 -0.0212 -0.0276
19015TIP3    H178460   5.729   0.633   4.886 -0.8835  0.0155 -0.6820
19015TIP3    H278461   5.587   0.631   4.937 -0.5473  0.9574  0.3177
19016TIP3   OH278462   4.858   3.818   0.165 -0.1574  0.5036  0.6467
19016TIP3    H178463   4.785   3.880   0.168 -2.2167 -1.8538  1.0728
19016TIP3    H278464   4.901   3.827   0.250 -1.1504  0.5125  1.1514
19017TIP3   OH278465   2.256   0.170  11.136 -0.2673  0.3138  0.2585
19017TIP3    H178466   2.190   0.237  11.118 -0.2718  0.4211  0.6789
19017TIP3    H278467   2.247   0.151  11.229 -1.5995 -1.7187 -0.2729
19018TIP3   OH278468   0.204   3.852   3.904 -0.0875  0.5200  0.5936
19018TIP3    H178469   0.197   3.778   3.963  0.6357  0.7631  0.9814
19018TIP3    H278470   0.265   3.912   3.947  0.6971  0.5537 -0.5511
19019TIP3   OH278471   3.890   4.204  10.471 -0.4138  0.0565  0.5982
19019TIP3    H178472   3.851   4.152  10.541 -0.0781 -1.1381 -0.0929
19019TIP3    H278473   3.825   4.273  10.454 -1.4323 -0.8668  0.6788
19020TIP3   OH278474   5.598   4.539   0.139 -0.2519 -0.3020  0.1642
19020TIP3    H178475   5.550   4.614   0.172  0.5859  1.0936 -1.6901
19020TIP3    H278476   5.536   4.493   0.082  0.2616  0.9275 -1.4198
19021TIP3   OH278477   4.810   4.989   5.111  0.1094  0.1121 -0.3061
19021TIP3    H178478   4.820   4.912   5.055 -1.4828 -0.0403 -0.3864
19021TIP3    H278479   4.825   5.064   5.053  0.4682 -0.1013 -0.4898
19022TIP3   OH278480   0.118   4.797  16.389  0.8325  0.1148  0.1153
19022TIP3    H178481   0.207   4.766  16.375  0.6074 -0.0118 -1.0732
19022TIP3    H278482   0.121   4.840  16.475  2.3477  1.2464 -0.4704
19023TIP3   OH278483   3.303   5.298   4.170 -0.5523  0.0197 -0.0916
19023TIP3    H178484   3.243   5.308   4.244 -0.9373  0.1593 -0.4224
19023TIP3    H278485   3.258   5.238   4.110 -0.6118  0.5696 -0.6017
19024TIP3   OH278486   6.354   5.948  13.758 -0.1407  0.3545 -0.2898
19024TIP3    H178487   6.280   5.917  13.809  0.3927  1.5583  1.2539
19024TIP3    H278488   6.344   6.043  13.756  1.3433  0.5276 -0.0757
19025TIP3   OH278489   3.727   0.178  14.301 -0.2865  0.4176  0.5887
19025TIP3    H178490   3.728   0.122  14.379 -0.9243  0.7986  0.8758
19025TIP3    H278491   3.803   0.235  14.312  0.6006 -0.6476  0.0945
19026TIP3   OH278492   5.427   3.237  14.094  0.1235 -0.3546  0.3891
19026TIP3    H178493   5.425   3.258  14.187 -0.2380  0.4921  0.1993
19026TIP3    H278494   5.369   3.161  14.085 -1.1777  0.5896  0.6168
19027TIP3   OH278495   5.566   1.859  17.122  0.5580 -0.0844 -0.0148
19027TIP3    H178496   5.575   1.795  17.052  1.0243 -1.0026  0.8598
19027TIP3    H278497   5.502   1.922  17.090  0.9845 -0.3379 -1.3620
19028TIP3   OH278498   2.189   0.929   4.194  0.3708 -0.6076 -0.2239
19028TIP3    H178499   2.186   0.915   4.289  0.5765  0.6685 -0.0249
19028TIP3    H278500   2.273   0.972   4.179  0.0529 -0.2180 -0.9053
19029TIP3   OH278501   4.665   0.285   5.868 -0.4750  0.7693 -0.8212
19029TIP3    H178502   4.705   0.309   5.952  0.7464  1.1543 -1.5087
19029TIP3    H278503   4.686   0.192   5.857  1.2708  1.2491 -1.7355
19030TIP3   OH278504   5.272   1.338   4.939  0.3985  0.4223 -0.0536
19030TIP3    H178505   5.218   1.303   4.869 -1.5370  0.6528  1.2832
19030TIP3    H278506   5.268   1.433   4.928  0.6582  0.4358 -0.0415
19031TIP3   OH278507   3.493   1.196   1.099  0.1114 -0.1798 -0.3936
19031TIP3    H178508   3.499   1.145   1.179 -1.7009  1.3321  0.7341
19031TIP3    H278509   3.571   1.252   1.100  0.4587 -0.6722 -0.0576
19032TIP3   OH278510   4.569   4.322   4.160 -0.5698  0.2171 -0.4352
19032TIP3    H178511   4.598   4.248   4.106 -0.1786  0.3640 -0.4280
19032TIP3    H278512   4.577   4.398   4.103  2.4480  0.7762  0.6500
19033TIP3   OH278513   3.638   3.896  12.111  0.2231  0.3366  0.7791
19033TIP3    H178514   3.675   3.895  12.023 -1.4663  1.4449  0.0290
19033TIP3    H278515   3.581   3.819  12.114 -0.0656  0.5478  0.7462
19034TIP3   OH278516   6.392   1.838   4.509  0.3152 -0.6005  0.5389
19034TIP3    H178517   6.427   1.924   4.531  0.1114  0.1771 -1.9922
19034TIP3    H278518   6.331   1.818   4.579 -0.3406  1.7572  0.6700
19035TIP3   OH278519   0.996   4.072   5.515  0.1341  0.3141 -0.4148
19035TIP3    H178520   0.948   4.142   5.470 -0.7419  1.0789  1.6300
19035TIP3    H278521   1.073   4.056   5.460  0.5578  3.1860 -0.7242
19036TIP3   OH278522   4.529   1.443  16.795  0.3285  0.0003  0.1962
19036TIP3    H178523   4.500   1.509  16.858 -0.5432  0.2242 -0.4275
19036TIP3    H278524   4.604   1.401  16.836  0.0943  0.5087  1.1470
19037TIP3   OH278525   1.527   1.769   5.003 -0.1999  0.4245  0.2393
19037TIP3    H178526   1.492   1.817   4.929 -0.5944  0.0686  0.1964
19037TIP3    H278527   1.565   1.690   4.965 -2.2082 -0.7590  0.6183
19038TIP3   OH278528   2.082   4.818   1.937 -0.2594 -0.3541  0.1928
19038TIP3    H178529   2.065   4.766   1.859 -0.3047 -0.4375  0.2575
19038TIP3    H278530   2.168   4.857   1.922 -0.5667  0.1725 -0.1873
19039TIP3   OH278531   6.698   0.170  13.823  0.4561 -0.8494  0.1023
19039TIP3    H178532   6.768   0.128  13.872  2.2889  2.0078  0.0329
19039TIP3    H278533   6.664   0.238  13.882  0.2738  0.2286 -1.2078
19040TIP3   OH278534   2.164   1.463   2.785  0.3081 -0.0780 -0.1645
19040TIP3    H178535   2.242   1.453   2.731  1.0268  2.5071  0.3477
19040TIP3    H278536   2.193   1.446   2.874 -0.4748 -2.4608 -0.3273
19041TIP3   OH278537   1.942   0.552   2.428 -0.3075  0.3584 -0.1747
19041TIP3    H178538   2.031   0.587   2.437  0.0247 -0.5926  0.3712
19041TIP3    H278539   1.926   0.550   2.334  0.3700  0.2434 -0.2890
19042TIP3   OH278540   2.906   4.145  14.203 -0.2820 -0.0794  0.4788
19042TIP3    H178541   2.876   4.162  14.113 -1.1432 -1.3352  0.5267
19042TIP3    H278542   2.908   4.050  14.210 -0.3162  0.0208  1.8376
19043TIP3   OH278543   5.237   3.453   0.623  0.2588  0.3301  0.3512
19043TIP3    H178544   5.267   3.430   0.711 -2.7621 -2.7024  0.7205
19043TIP3    H278545   5.297   3.406   0.564  0.1599 -0.4713  0.8857
19044TIP3   OH278546   1.289   2.357   1.266  0.3371  0.7400  1.0383
19044TIP3    H178547   1.377   2.349   1.229 -0.4822 -0.9698 -0.6461
19044TIP3    H278548   1.241   2.411   1.203 -0.6317 -0.8178  0.4338
19045TIP3   OH278549   1.523   5.238   5.698 -0.6138  0.2045  0.4189
19045TIP3    H178550   1.548   5.290   5.774  1.3400 -0.5108  0.2901
19045TIP3    H278551   1.464   5.171   5.733 -0.5154  0.4816  1.1311
19046TIP3   OH278552   1.543   3.194   2.215 -0.0975  0.2015 -0.3719
19046TIP3    H178553   1.562   3.110   2.173  2.5887  1.1601 -1.2361
19046TIP3    H278554   1.581   3.186   2.302 -0.2847  0.3411 -0.2779
19047TIP3   OH278555   0.131   3.810  12.401  0.1064  0.8288  0.4211
19047TIP3    H178556   0.073   3.799  12.476 -1.8575 -0.7872 -1.2715
19047TIP3    H278557   0.200   3.744  12.415  0.1804  1.0572  1.1762
19048TIP3   OH278558   1.884   0.051   2.959  0.3309  0.0443 -0.8281
19048TIP3    H178559   1.882   0.038   2.865  1.1979  0.1319 -0.8647
19048TIP3    H278560   1.964   0.007   2.988  0.7352  1.0977 -0.3070
19049TIP3   OH278561   0.827   6.413  14.531  0.5216  0.2191 -0.1321
19049TIP3    H178562   0.798   6.322  14.528  0.3691  0.2676 -0.0973
19049TIP3    H278563   0.923   6.407  14.526  0.4357  0.1653 -2.1504
19050TIP3   OH278564   5.819   2.907   2.195  0.2228 -0.2404 -0.2168
19050TIP3    H178565   5.823   2.913   2.100 -0.8777 -0.3194 -0.2708
19050TIP3    H278566   5.897   2.857   2.219  0.9209  0.4476 -1.0108
19051TIP3   OH278567   1.408   4.781  15.792 -0.1540  0.3604 -0.3232
19051TIP3    H178568   1.487   4.751  15.748  0.1068  1.4805 -0.6323
19051TIP3    H278569   1.406   4.875  15.775 -1.2735  0.4168  0.1245
19052TIP3   OH278570   2.109   6.440   6.189  0.1801  0.3449  0.3677
19052TIP3    H178571   2.035   6.490   6.224  0.5120  0.7488  0.4958
19052TIP3    H278572   2.179   6.453   6.253  1.1118  1.9052 -0.9247
19053TIP3   OH278573   2.043   6.268   5.012 -0.5076  0.0176 -0.3470
19053TIP3    H178574   2.036   6.324   5.090 -0.7706  0.1534 -0.4665
19053TIP3    H278575   2.020   6.181   5.043  0.5973 -0.1658  0.0017
19054TIP3   OH278576   2.748   6.603   1.257 -0.2993 -0.2250  0.0219
19054TIP3    H178577   2.725   6.602   1.350 -0.2635 -2.5668  0.0299
19054TIP3    H278578   2.664   6.600   1.211 -0.2246 -2.9725  0.0193
19055TIP3   OH278579   4.722   1.935  15.592  0.0510 -0.0674 -0.2928
19055TIP3    H178580   4.797   1.877  15.603 -1.2590 -1.9504 -1.0258
19055TIP3    H278581   4.651   1.892  15.638 -0.4249  2.1005  1.0694
19056TIP3   OH278582   5.292   6.280  14.894 -0.6847  0.0193  0.5471
19056TIP3    H178583   5.333   6.304  14.976 -0.4145  1.3420  0.0396
19056TIP3    H278584   5.331   6.196  14.871 -0.9090 -0.4441  1.8607
19057TIP3   OH278585   3.727   5.921  12.047 -0.7468 -0.0119 -0.5782
19057TIP3    H178586   3.811   5.965  12.040  0.4252 -2.1508 -0.5167
19057TIP3    H278587   3.731   5.852  11.980 -2.3633 -0.2626 -0.4366
19058TIP3   OH278588   3.140   4.852   0.563  0.1372  0.3132 -0.8203
19058TIP3    H178589   3.136   4.946   0.546 -0.0784  0.7347  1.4042
19058TIP3    H278590   3.233   4.831   0.556  0.1577  0.6308 -1.5870
19059TIP3   OH278591   3.138   5.802   3.429  0.7963  0.1732 -0.1766
19059TIP3    H178592   3.197   5.740   3.471 -1.3363 -0.4321  2.0079
19059TIP3    H278593   3.150   5.884   3.477  0.5490  0.2951 -0.3174
19060TIP3   OH278594   4.620   2.443  15.771 -0.0489  0.6450  0.0700
19060TIP3    H178595   4.581   2.445  15.858  0.0158 -0.4254  0.1333
19060TIP3    H278596   4.679   2.367  15.773 -1.0447 -0.1765 -1.3197
19061TIP3   OH278597   4.488   0.882   5.302 -0.2666 -0.2127 -0.1953
19061TIP3    H178598   4.536   0.884   5.385  1.3493  1.1082 -1.1285
19061TIP3    H278599   4.476   0.789   5.284  0.4261 -0.5284  0.9324
19062TIP3   OH278600   5.045   5.829   0.254  0.4969 -0.2585 -0.1041
19062TIP3    H178601   4.996   5.911   0.264  0.7129 -0.2496  0.9433
19062TIP3    H278602   5.009   5.771   0.321  0.2412 -1.0756 -0.9515
19063TIP3   OH278603   3.140   3.043  14.585 -0.4202  0.0220 -0.1992
19063TIP3    H178604   3.070   3.050  14.520  0.3892 -1.2356 -1.2135
19063TIP3    H278605   3.137   2.952  14.615 -0.1486  0.3355  0.8199
19064TIP3   OH278606   5.677   2.702   3.188  0.2387  0.5324 -0.6869
19064TIP3    H178607   5.698   2.733   3.099  2.3317 -1.3286 -0.8782
19064TIP3    H278608   5.638   2.778   3.231  1.3509  2.1685 -2.4709
19065TIP3   OH278609   1.382   3.976  15.497 -0.4241  0.5126 -0.0471
19065TIP3    H178610   1.469   3.945  15.524 -0.2658 -0.0213 -1.1650
19065TIP3    H278611   1.382   3.970  15.402 -1.6477  0.6264 -0.0668
19066TIP3   OH278612   5.745   4.985   5.330  0.5367  0.0702  0.3554
19066TIP3    H178613   5.680   4.987   5.259 -1.0979 -0.0644  1.8043
19066TIP3    H278614   5.771   4.893   5.336  1.2095  0.2018 -0.5362
19067TIP3   OH278615   0.591   1.178  11.230 -0.5144  0.2995 -0.1939
19067TIP3    H178616   0.559   1.267  11.213  0.6001  0.8583  0.5374
19067TIP3    H278617   0.647   1.188  11.307  0.4127 -0.8683 -0.7086
19068TIP3   OH278618   2.808   2.170   1.245  0.1503 -0.4707 -0.0551
19068TIP3    H178619   2.754   2.236   1.200  0.4368  0.1294  0.4873
19068TIP3    H278620   2.892   2.212   1.258  0.2640 -0.8705  0.5084
19069TIP3   OH278621   3.241   3.687  12.810 -0.1144  0.0590  0.4096
19069TIP3    H178622   3.254   3.746  12.884 -0.0693 -0.8158  1.1101
19069TIP3    H278623   3.287   3.729  12.737 -1.1553  1.5073  0.5726
19070TIP3   OH278624   3.035   5.327   3.641  0.2948  0.1127 -0.1248
19070TIP3    H178625   3.044   5.397   3.705 -2.8135 -0.5752  1.1416
19070TIP3    H278626   3.105   5.265   3.662  0.8150  1.0901  1.0405
19071TIP3   OH278627   3.007   5.889  13.038 -0.2970  0.4297  0.0676
19071TIP3    H178628   2.967   5.976  13.041 -0.1681  0.5540 -1.4153
19071TIP3    H278629   3.088   5.898  13.089 -0.0574  1.3049 -0.4538
19072TIP3   OH278630   2.332   2.702  11.952  0.1699  0.0385  0.2577
19072TIP3    H178631   2.276   2.728  11.878  1.2196  1.3743 -0.0944
19072TIP3    H278632   2.406   2.762  11.947  0.4221 -0.1025  2.1944
19073TIP3   OH278633   3.047   5.545   3.826 -0.4318  0.5463  0.0651
19073TIP3    H178634   3.038   5.620   3.767  0.9163  0.3071 -0.4742
19073TIP3    H278635   3.105   5.577   3.896 -0.2986  0.1779  0.1235
19074TIP3   OH278636   5.597   5.914  12.887  0.8354  0.8791 -0.3080
19074TIP3    H178637   5.584   5.838  12.831  0.8815  0.8065 -0.2220
19074TIP3    H278638   5.643   5.880  12.963 -0.1989  0.7773  0.2739
19075TIP3   OH278639   4.073   5.741  15.637 -0.1583  0.5223  0.0536
19075TIP3    H178640   4.125   5.805  15.684 -1.8467  1.1846  1.0624
19075TIP3    H278641   4.118   5.658  15.653  2.4295  1.5095 -1.8417
19076TIP3   OH278642   5.377   1.090   1.301  0.3490 -0.1094 -0.4647
19076TIP3    H178643   5.360   1.004   1.338 -0.2103  0.0923 -0.2378
19076TIP3    H278644   5.291   1.132   1.297  0.5692  0.3141 -0.8814
19077TIP3   OH278645   5.103   4.210  12.895 -0.1542 -0.4530 -0.1151
19077TIP3    H178646   5.037   4.146  12.922  0.5471 -1.2014 -0.1341
19077TIP3    H278647   5.070   4.245  12.812 -1.4417  0.5588  0.8190
19078TIP3   OH278648   6.543   4.006   1.751 -0.7635 -0.3087  0.3319
19078TIP3    H178649   6.455   4.039   1.766 -1.2370 -1.9325  1.2520
19078TIP3    H278650   6.531   3.916   1.721  0.5722 -0.5872  0.5726
19079TIP3   OH278651   3.648   5.303  16.433 -0.3325  0.3020 -0.0258
19079TIP3    H178652   3.597   5.223  16.442 -0.8390  0.6728  0.3614
19079TIP3    H278653   3.631   5.353  16.513 -1.3447  1.5623 -1.0187
19080TIP3   OH278654   6.042   0.005  14.994  0.6339 -0.4339 -0.0704
19080TIP3    H178655   6.104  -0.057  14.956 -0.1083 -0.8066 -0.6763
19080TIP3    H278656   6.023  -0.031  15.081 -1.1160 -2.0057 -1.0697
19081TIP3   OH278657   3.145   4.858  14.863  0.1748  0.2968  0.1648
19081TIP3    H178658   3.159   4.952  14.869 -2.9888  0.8848 -0.4627
19081TIP3    H278659   3.206   4.829  14.796  1.4169  1.8398  0.5953
19082TIP3   OH278660   6.562   5.347  16.765  0.0034  0.4154 -0.4766
19082TIP3    H178661   6.547   5.270  16.711  0.1013  0.9286 -1.2408
19082TIP3    H278662   6.491   5.346  16.829  0.5860 -0.8678  0.1595
19083TIP3   OH278663   4.391   3.119  15.091  0.4374 -0.1076 -0.4396
19083TIP3    H178664   4.412   3.061  15.019 -0.1781 -1.7440  0.6698
19083TIP3    H278665   4.308   3.161  15.065  2.2006  2.3031 -2.3998
19084TIP3   OH278666   0.181   1.796  13.689  0.4113 -0.1298 -0.1051
19084TIP3    H178667   0.142   1.864  13.745  2.1734  0.9092 -0.0932
19084TIP3    H278668   0.218   1.733  13.751  0.8192  0.1080 -0.1069
19085TIP3   OH278669   2.757   4.246  15.128 -0.1416 -0.1883  0.5249
19085TIP3    H178670   2.740   4.261  15.035 -1.0141 -1.0517  0.5458
19085TIP3    H278671   2.752   4.151  15.139 -0.3482 -0.0685  1.5159
19086TIP3   OH278672   1.137   2.385  16.140 -0.1323  0.1459  0.1541
19086TIP3    H178673   1.062   2.369  16.197  0.1759 -0.0070  0.5196
19086TIP3    H278674   1.117   2.339  16.059  0.9288 -2.4535  1.3221
19087TIP3   OH278675   3.713   5.406  12.101  0.4820 -0.1230  0.0089
19087TIP3    H178676   3.744   5.415  12.010  0.0167  0.8164 -0.0565
19087TIP3    H278677   3.749   5.482  12.146 -0.0559 -0.1042  0.4045
19088TIP3   OH278678   3.670   5.882  16.676  0.1411 -0.4414  0.3808
19088TIP3    H178679   3.658   5.897  16.582 -0.8302 -2.4870  0.1655
19088TIP3    H278680   3.752   5.834  16.682 -0.3423 -1.2744  0.4646
19089TIP3   OH278681   0.208   6.488  10.885 -0.3152 -0.4911  0.2243
19089TIP3    H178682   0.155   6.542  10.826  0.5505 -0.4013 -0.4805
19089TIP3    H278683   0.292   6.534  10.890  0.0907 -1.2558  0.4002
19090TIP3   OH278684   5.466   4.558  11.307  0.2133  0.1682 -0.1140
19090TIP3    H178685   5.542   4.615  11.296  0.1906 -0.0309 -1.3126
19090TIP3    H278686   5.391   4.616  11.293  0.1984 -0.2664 -1.9604
19091TIP3   OH278687   1.343   0.176   2.810  0.4087 -0.2812 -0.3316
19091TIP3    H178688   1.414   0.201   2.870  1.1300 -1.4644 -0.6776
19091TIP3    H278689   1.336   0.081   2.819  0.2227 -0.4200 -1.7900
19092TIP3   OH278690   1.118   2.100  11.127  0.1550 -0.4097 -0.3577
19092TIP3    H178691   1.073   2.182  11.108 -0.5757 -0.8994 -0.7583
19092TIP3    H278692   1.057   2.032  11.099 -0.6552 -1.1567  2.9802
19093TIP3   OH278693   3.053   5.325   6.047  0.3205 -0.2708  0.2496
19093TIP3    H178694   3.101   5.388   6.102  0.4202 -1.7173  1.8688
19093TIP3    H278695   3.121   5.270   6.008  0.2536  0.8084 -1.4167
19094TIP3   OH278696   4.803   0.644  14.333 -0.7868 -0.2224 -0.1222
19094TIP3    H178697   4.853   0.719  14.367 -0.2064  0.0376 -1.4796
19094TIP3    H278698   4.863   0.570  14.341 -0.8734 -0.2765  0.0135
19095TIP3   OH278699   2.469   0.849  14.372 -0.3973  0.2365 -0.6508
19095TIP3    H178700   2.409   0.808  14.435 -0.1428 -0.1983 -0.6917
19095TIP3    H278701   2.553   0.854  14.418 -1.1300  3.4908  0.4833
19096TIP3   OH278702   5.862   5.531   0.229  0.2508 -0.2214 -0.2640
19096TIP3    H178703   5.945   5.530   0.181  0.8447 -0.7860  0.7648
19096TIP3    H278704   5.865   5.452   0.284  0.0479  0.9920  1.5094
19097TIP3   OH278705   3.668   1.507  12.772 -0.1981 -0.3659 -0.5644
19097TIP3    H178706   3.575   1.513  12.749 -0.3077  0.4404  0.0855
19097TIP3    H278707   3.682   1.578  12.834  1.1236  0.2510 -1.5472
19098TIP3   OH278708   3.438   1.676  14.099 -0.5469 -0.1408 -0.2669
19098TIP3    H178709   3.343   1.672  14.106 -0.9143  4.0132 -1.5235
19098TIP3    H278710   3.456   1.646  14.009 -0.9405  1.3537 -0.8691
19099TIP3   OH278711   6.663   4.481   3.458  0.6302 -0.2466  0.3440
19099TIP3    H178712   6.697   4.489   3.547 -0.3564 -1.0507  0.8118
19099TIP3    H278713   6.740   4.475   3.402  1.2615 -2.6829  1.4416
19100TIP3   OH278714   5.547   4.047  11.028  0.5703  0.0490 -0.3474
19100TIP3    H178715   5.546   3.954  11.050  0.6271 -0.3020 -1.7919
19100TIP3    H278716   5.499   4.053  10.945  1.0868  1.2265 -0.5745
19101TIP3   OH278717   0.574   5.051   3.395 -0.6149  0.6754  0.0090
19101TIP3    H178718   0.645   5.113   3.409 -1.4859  1.8498 -0.7469
19101TIP3    H278719   0.614   4.978   3.348  0.4575  0.5475  1.1023
19102TIP3   OH278720   1.068   2.840   0.652  0.1437 -0.2916  0.6783
19102TIP3    H178721   1.021   2.761   0.625  1.1687 -1.5951  2.6085
19102TIP3    H278722   1.133   2.854   0.583  0.2402 -1.3799  0.5415
19103TIP3   OH278723   2.781   5.648   2.426  0.3606 -0.8588 -0.8622
19103TIP3    H178724   2.747   5.720   2.479 -0.3126  0.1232 -2.6014
19103TIP3    H278725   2.821   5.690   2.350 -2.1938 -2.3663 -3.1401
19104TIP3   OH278726   0.021   5.254  13.236 -0.0061  0.0366 -0.6680
19104TIP3    H178727   0.045   5.170  13.273  0.1756  0.5090  0.2957
19104TIP3    H278728  -0.071   5.243  13.209 -0.3089 -0.1501  0.4048
19105TIP3   OH278729   1.534   2.602  16.014 -0.7947 -0.4210  0.2096
19105TIP3    H178730   1.468   2.661  16.050  0.4732  0.6358  0.8271
19105TIP3    H278731   1.501   2.514  16.033 -1.9019  0.0970  0.7212
19106TIP3   OH278732   5.288   2.656  14.597  0.0652  0.5400 -0.6516
19106TIP3    H178733   5.298   2.587  14.531 -1.0949  0.0899 -0.3791
19106TIP3    H278734   5.321   2.735  14.555 -0.1031  0.1385 -1.5511
19107TIP3   OH278735   3.616   6.240   4.081  0.5993  0.2466 -0.7963
19107TIP3    H178736   3.680   6.308   4.062  1.0650 -0.9265 -3.6340
19107TIP3    H278737   3.599   6.198   3.997  1.3373 -4.0410  1.0146
19108TIP3   OH278738   0.882   0.049  15.103  0.6431  0.1163 -0.4934
19108TIP3    H178739   0.906   0.097  15.024  0.4909 -1.4117 -1.4943
19108TIP3    H278740   0.841   0.114  15.159  2.0677  1.5429 -1.0609
19109TIP3   OH278741   1.401   1.696   5.256  0.5827 -0.4139  0.1467
19109TIP3    H178742   1.422   1.740   5.174  1.0511 -0.2295  0.3618
19109TIP3    H278743   1.344   1.757   5.302  0.2632 -0.5474 -0.0723
19110TIP3   OH278744   1.874   3.209   1.608 -0.3914 -0.3711  0.1645
19110TIP3    H178745   1.895   3.238   1.520  0.9372 -1.9431 -0.0623
19110TIP3    H278746   1.790   3.251   1.628 -0.2298  0.7671 -1.4550
19111TIP3   OH278747   5.268   4.541  14.176 -0.6809  0.4046  0.0756
19111TIP3    H178748   5.281   4.524  14.270 -1.5340 -1.1498 -0.0844
19111TIP3    H278749   5.186   4.592  14.173 -2.4128 -2.3171 -0.0561
19112TIP3   OH278750   2.317   1.233  11.536  0.0064 -0.9811  0.2334
19112TIP3    H178751   2.315   1.275  11.622 -1.0092 -1.8172  0.6380
19112TIP3    H278752   2.409   1.211  11.522  0.4251  0.6393  0.3679
19113TIP3   OH278753   4.134   4.003   0.689  0.1738  0.6207 -0.0306
19113TIP3    H178754   4.192   3.934   0.723  1.5238  0.5152 -2.4634
19113TIP3    H278755   4.194   4.072   0.660 -1.0655  1.6696 -0.1102
19114TIP3   OH278756   5.485   3.868  15.296 -0.3749  0.1325  0.2428
19114TIP3    H178757   5.562   3.813  15.279 -1.3750 -0.5895 -2.1415
19114TIP3    H278758   5.500   3.946  15.242 -2.2991 -0.9582 -1.9355
19115TIP3   OH278759   2.864   2.149   3.718 -0.6048 -0.4583 -0.1232
19115TIP3    H178760   2.909   2.072   3.752  0.0607  0.0965  0.2594
19115TIP3    H278761   2.930   2.194   3.664 -0.4267  0.8123  1.1263
19116TIP3   OH278762   1.032   0.319   3.331 -0.0260  0.1355  0.0817
19116TIP3    H178763   1.033   0.284   3.420 -0.3902 -0.6609 -0.2185
19116TIP3    H278764   0.945   0.296   3.297 -0.2602  1.3236 -0.1356
19117TIP3   OH278765   5.238   3.082   4.756  0.2536  0.3713 -1.0270
19117TIP3    H178766   5.287   3.134   4.692  0.5995  0.4610 -0.6843
19117TIP3    H278767   5.297   3.012   4.782  0.1055  0.3216 -0.8171
19118TIP3   OH278768   6.530   0.166  11.605 -0.7900 -0.1115 -0.2326
19118TIP3    H178769   6.567   0.079  11.623  0.0872 -0.0554 -1.7167
19118TIP3    H278770   6.533   0.174  11.510  0.7759  2.2884 -0.0134
19119TIP3   OH278771   4.685   3.060  13.154 -0.5058 -0.0074  0.1292
19119TIP3    H178772   4.724   3.112  13.224 -1.5102 -0.4466  1.0375
19119TIP3    H278773   4.591   3.059  13.175 -0.6909 -0.9431 -0.6931
19120TIP3   OH278774   1.701   2.012   3.939 -0.4724 -0.0592 -0.6220
19120TIP3    H178775   1.734   2.016   4.029  1.3666 -0.3545 -1.2628
19120TIP3    H278776   1.615   2.053   3.943  0.0380  0.8881  1.0790
19121TIP3   OH278777   2.056   2.542   2.866  0.0034  1.0849  0.3515
19121TIP3    H178778   1.978   2.496   2.897  0.3159  0.7873  0.7157
19121TIP3    H278779   2.071   2.507   2.778  0.1961  0.5358  0.5986
19122TIP3   OH278780   2.944   1.574   5.721  0.2068 -0.0460  0.3968
19122TIP3    H178781   2.989   1.648   5.762 -0.1412  2.5155 -3.6391
19122TIP3    H278782   2.851   1.588   5.741  0.1470  0.6348 -0.3133
19123TIP3   OH278783   1.984   0.639   3.800 -1.1547  0.4305  0.2227
19123TIP3    H178784   1.941   0.586   3.732 -0.5606  1.1343 -0.7072
19123TIP3    H278785   1.957   0.598   3.882 -2.3587 -0.0771 -0.4090
19124TIP3   OH278786   6.028   6.623   0.135  0.1144  0.1426  0.3824
19124TIP3    H178787   5.969   6.698   0.130 -0.5940 -0.3298  1.6901
19124TIP3    H278788   5.971   6.547   0.145  0.8290 -0.5804 -0.8970
19125TIP3   OH278789   1.587   2.914   3.345  0.2143  0.1050  0.1337
19125TIP3    H178790   1.527   2.865   3.402 -0.2717  2.1428  1.4211
19125TIP3    H278791   1.567   2.882   3.257 -1.3840 -0.6788  0.7524
19126TIP3   OH278792   3.640   3.600   4.871  0.3330 -0.0201 -0.3869
19126TIP3    H178793   3.593   3.658   4.931  0.4635 -1.2064  0.8867
19126TIP3    H278794   3.572   3.562   4.815 -0.0791 -0.7025  0.5637
19127TIP3   OH278795   4.373   3.678  11.621  0.1256  0.0433  0.5540
19127TIP3    H178796   4.301   3.628  11.582  1.0235 -1.0427  0.2595
19127TIP3    H278797   4.375   3.650  11.713 -0.3461  0.6794  0.7580
19128TIP3   OH278798   3.899   3.045  16.139  0.4049  0.4533 -0.2953
19128TIP3    H178799   3.886   2.950  16.139 -0.5214  0.5714 -1.1129
19128TIP3    H278800   3.909   3.068  16.231 -1.3684 -0.1665  0.0769
19129TIP3   OH278801   6.268   6.072  13.260  0.0197 -0.1900  0.1796
19129TIP3    H178802   6.331   6.021  13.209 -0.7698 -0.5044 -0.5007
19129TIP3    H278803   6.317   6.148  13.291  0.5234 -0.0243 -1.0165
19130TIP3   OH278804   6.540   5.787  14.196 -0.2159 -0.2024 -0.0341
19130TIP3    H178805   6.597   5.809  14.122  0.1883 -1.1281 -0.0120
19130TIP3    H278806   6.593   5.728  14.250 -0.5194  0.4501  0.9825
19131TIP3   OH278807   2.849   3.699  11.568 -0.2249  0.2501 -0.0406
19131TIP3    H178808   2.873   3.787  11.540 -0.1012  0.0923 -0.4273
19131TIP3    H278809   2.822   3.710  11.660 -0.9759  0.8259 -0.3200
19132TIP3   OH278810   0.997   2.668   1.137 -0.0031 -0.0769 -0.3508
19132TIP3    H178811   0.909   2.646   1.106  0.6094 -0.7184 -1.7021
19132TIP3    H278812   1.003   2.763   1.128 -0.7204  0.0170  0.1829
19133TIP3   OH278813   2.951   4.615   3.101  0.2425  0.0119 -0.4660
19133TIP3    H178814   3.042   4.639   3.119  0.6045 -0.7872 -1.2023
19133TIP3    H278815   2.917   4.688   3.049  1.1292 -0.6854 -2.0821
19134TIP3   OH278816   5.442   3.387   1.758 -0.0712  0.0605 -0.2289
19134TIP3    H178817   5.376   3.423   1.818  0.8130  1.3551 -0.0061
19134TIP3    H278818   5.494   3.328   1.812 -1.4966 -1.5568 -0.5809
19135TIP3   OH278819   0.690   1.260   5.963  0.1121 -0.0025 -0.2071
19135TIP3    H178820   0.717   1.339   5.917 -1.0289 -0.5986 -1.9713
19135TIP3    H278821   0.623   1.290   6.025  0.9090  0.6547  0.3423
19136TIP3   OH278822   4.463   2.650   2.074 -0.3189 -0.3434 -0.0162
19136TIP3    H178823   4.411   2.581   2.033 -1.8906  0.7843  0.0005
19136TIP3    H278824   4.398   2.715   2.101  0.9784  0.3214  1.5514
19137TIP3   OH278825   3.256   6.128   2.387 -0.2149 -0.6273 -0.3363
19137TIP3    H178826   3.335   6.128   2.441  0.0799 -1.3698 -0.7675
19137TIP3    H278827   3.243   6.036   2.363 -1.9368 -0.7120  0.8080
19138TIP3   OH278828   0.393   0.996   4.281  0.2789 -0.5565  0.5702
19138TIP3    H178829   0.412   0.952   4.364  1.4021 -0.2573  0.4799
19138TIP3    H278830   0.466   0.972   4.223  0.7887  1.2038  0.4446
19139TIP3   OH278831   4.318   0.421   2.217  0.3188  0.0877 -0.3602
19139TIP3    H178832   4.235   0.374   2.219 -1.1987  2.7147  1.2977
19139TIP3    H278833   4.304   0.495   2.157  1.5410  0.3895 -0.3031
19140TIP3   OH278834   3.570   4.797  15.031  0.0125 -0.0024 -0.0822
19140TIP3    H178835   3.621   4.727  14.992  0.2154  0.3107 -0.3800
19140TIP3    H278836   3.522   4.755  15.103  0.3792 -0.3743 -0.0568
19141TIP3   OH278837   6.026   4.488  14.491 -0.2012 -0.7633 -0.4243
19141TIP3    H178838   6.027   4.559  14.427  3.3290 -1.1000 -0.8401
19141TIP3    H278839   6.091   4.513  14.556 -0.3092 -2.6804  0.4604
19142TIP3   OH278840   4.565   1.077  11.972 -0.1366 -0.3700  0.2545
19142TIP3    H178841   4.592   1.123  12.051  0.3963  0.1113 -0.2081
19142TIP3    H278842   4.547   1.146  11.908  1.7076 -0.7961 -0.7736
19143TIP3   OH278843   2.255   6.629  11.575  0.4539  0.0985 -0.3885
19143TIP3    H178844   2.218   6.626  11.664 -0.5936  0.8322 -0.7846
19143TIP3    H278845   2.208   6.560  11.528  0.5855  0.1064 -0.5295
19144TIP3   OH278846   6.164   4.856  12.755 -0.5862  0.5200  0.4045
19144TIP3    H178847   6.122   4.887  12.675  0.5793  0.8164 -0.0991
19144TIP3    H278848   6.237   4.916  12.769 -0.5324  0.2213  1.4635
19145TIP3   OH278849   0.171   2.260   2.738 -0.8410 -0.4746  0.5613
19145TIP3    H178850   0.253   2.281   2.694 -1.2275  0.1465  0.1424
19145TIP3    H278851   0.194   2.189   2.798  0.8197  2.1335  3.1400
19146TIP3   OH278852   4.890   4.400  11.153 -0.6556  0.0998 -0.3255
19146TIP3    H178853   4.883   4.392  11.058  2.2764 -2.2503 -0.4126
19146TIP3    H278854   4.840   4.326  11.188 -1.6386  0.8964 -0.0348
19147TIP3   OH278855   2.859   5.980  12.456  0.0658  0.2883 -0.1597
19147TIP3    H178856   2.862   6.074  12.473 -1.4917 -0.0687  2.3581
19147TIP3    H278857   2.886   5.940  12.538 -0.2947 -1.4917 -0.8806
19148TIP3   OH278858   3.854   6.494   3.862  0.1190 -0.1820  0.6242
19148TIP3    H178859   3.899   6.411   3.847 -2.2011 -1.3058 -0.4636
19148TIP3    H278860   3.879   6.549   3.789 -0.2980 -0.8296 -0.0151
19149TIP3   OH278861   5.256   5.399  13.726 -0.3863 -0.0317  0.9337
19149TIP3    H178862   5.238   5.471  13.666 -0.5772  0.2311  1.3107
19149TIP3    H278863   5.323   5.347  13.681  0.8340  1.1917  1.3301
19150TIP3   OH278864   2.476   3.000   5.320  0.1456 -0.1646  0.2637
19150TIP3    H178865   2.409   2.983   5.387  0.8522  0.0064  1.0222
19150TIP3    H278866   2.559   2.979   5.363  0.4079 -3.2019 -1.5896
19151TIP3   OH278867   3.549   3.184   1.186 -0.0198 -0.5643  0.1358
19151TIP3    H178868   3.498   3.265   1.190  1.6511  0.4923  0.5710
19151TIP3    H278869   3.594   3.179   1.270  1.0087 -1.1910 -0.4395
19152TIP3   OH278870   0.059   5.613   0.811 -0.4968 -0.0805 -0.6656
19152TIP3    H178871   0.135   5.581   0.858 -0.0982  0.7288 -0.7503
19152TIP3    H278872   0.006   5.535   0.794 -0.9639 -0.3182  1.6756
19153TIP3   OH278873   4.820   3.344  13.892 -0.3399  0.1707  0.8213
19153TIP3    H178874   4.916   3.345  13.895 -0.2804  2.2239 -0.8385
19153TIP3    H278875   4.797   3.251  13.897  1.9185 -0.6700 -2.8589
19154TIP3   OH278876   1.075   3.220  15.608  0.4264  0.0598  0.1372
19154TIP3    H178877   1.048   3.155  15.543  1.1760 -0.3272  0.2114
19154TIP3    H278878   1.146   3.268  15.565 -0.3338  1.0451 -0.0411
19155TIP3   OH278879   3.054   2.969   5.531 -0.6965 -0.3880 -0.0641
19155TIP3    H178880   3.076   2.995   5.620  0.2374 -1.5769  0.0676
19155TIP3    H278881   3.055   3.051   5.481 -0.5680  0.1944  0.8752
19156TIP3   OH278882   6.556   1.229   5.449 -0.0122  0.5534  0.4977
19156TIP3    H178883   6.467   1.202   5.425  0.5708  0.7049 -1.8967
19156TIP3    H278884   6.613   1.164   5.409  1.1504  2.5660 -1.1839
19157TIP3   OH278885   2.291   6.748   6.641  0.0747 -0.6731  0.4290
19157TIP3    H178886   2.350   6.684   6.600  1.3309 -0.6980  2.1758
19157TIP3    H278887   2.205   6.727   6.606  0.8812 -1.5908 -1.0781
19158TIP3   OH278888   2.932   2.204  16.585 -0.1868 -0.2858 -0.0908
19158TIP3    H178889   2.943   2.291  16.622  1.4729 -0.6555  0.3546
19158TIP3    H278890   2.852   2.170  16.626  1.2737 -0.4606  2.7464
19159TIP3   OH278891   5.622   2.135   6.383  0.1006  0.2090  0.5454
19159TIP3    H178892   5.620   2.093   6.297 -0.2262 -0.0493  0.6806
19159TIP3    H278893   5.538   2.181   6.389  0.0667  0.1162  0.7822
19160TIP3   OH278894   5.837   1.374   5.641 -0.2371 -0.1986  0.4315
19160TIP3    H178895   5.776   1.413   5.703 -1.4027  0.2290 -0.9459
19160TIP3    H278896   5.924   1.390   5.679 -0.8528  1.2798  1.2611
19161TIP3   OH278897   0.218   2.343  13.895 -0.4108  0.2973 -0.7241
19161TIP3    H178898   0.167   2.403  13.840 -1.7117  0.1051  0.2566
19161TIP3    H278899   0.193   2.366  13.985  1.4866  0.4249 -0.2006
19162TIP3   OH278900   6.525   0.065  15.283  0.1526 -0.4580  0.6403
19162TIP3    H178901   6.513  -0.021  15.325 -0.4653 -0.0234  1.3572
19162TIP3    H278902   6.604   0.054  15.230 -0.2873 -1.6783  0.1983
19163TIP3   OH278903   4.999   3.161   4.388 -0.7473 -0.3366 -0.6107
19163TIP3    H178904   4.950   3.221   4.332 -0.8117 -1.0870 -1.3697
19163TIP3    H278905   4.942   3.147   4.464  0.2435  2.3479  0.6840
19164TIP3   OH278906   5.845   2.340  16.826  0.0589 -0.3008 -0.3426
19164TIP3    H178907   5.781   2.384  16.771  2.0889  0.9556 -1.7586
19164TIP3    H278908   5.853   2.395  16.904 -0.3413 -0.2819 -0.3169
19165TIP3   OH278909   0.668   6.440  15.464  0.1543 -0.5256 -0.1722
19165TIP3    H178910   0.658   6.373  15.397  1.6341 -0.2683 -0.6694
19165TIP3    H278911   0.759   6.469  15.457 -0.6535  2.1215 -0.5158
19166TIP3   OH278912   0.821   0.341   6.420  0.0818 -0.0462  0.5006
19166TIP3    H178913   0.891   0.401   6.444 -0.4389  0.7135  0.1460
19166TIP3    H278914   0.751   0.397   6.386  1.1605 -1.1016 -3.7767
19167TIP3   OH278915   0.312   1.595   1.348 -0.0026  0.8727  0.2471
19167TIP3    H178916   0.401   1.609   1.380  0.6207 -0.7049 -0.7255
19167TIP3    H278917   0.316   1.511   1.302 -1.9180  0.9428 -0.0940
19168TIP3   OH278918   4.589   6.388  11.147 -0.3968  0.0392 -0.2626
19168TIP3    H178919   4.566   6.461  11.204 -1.1150 -1.0795  0.8991
19168TIP3    H278920   4.542   6.407  11.065  0.4470  1.5225 -0.4113
19169TIP3   OH278921   4.269   5.085  13.440  0.0737 -0.0553  0.1991
19169TIP3    H178922   4.207   5.128  13.381  1.7312  1.8912 -0.1694
19169TIP3    H278923   4.222   5.079  13.523 -0.7216  1.1077 -0.1509
19170TIP3   OH278924   1.635   1.675  14.352  0.0409 -0.0635 -0.4868
19170TIP3    H178925   1.664   1.760  14.385 -0.5812  0.8534 -2.2512
19170TIP3    H278926   1.625   1.621  14.431  1.8297  1.0453  0.5369
19171TIP3   OH278927   4.429   1.689  12.336  0.2912  0.3916  0.2274
19171TIP3    H178928   4.433   1.596  12.360  1.2633  0.4673  0.4074
19171TIP3    H278929   4.505   1.728  12.380 -1.1220  1.6185  1.6646
19172TIP3   OH278930   5.959   4.237  14.469  0.0959 -0.5305  0.5671
19172TIP3    H178931   5.990   4.327  14.457  1.1283 -0.9641 -0.1022
19172TIP3    H278932   5.914   4.217  14.387  1.5925 -1.2972 -0.0904
19173TIP3   OH278933   2.836   0.477  15.260  0.3312  0.2280  0.3760
19173TIP3    H178934   2.797   0.393  15.285 -1.4571  0.2156 -2.3152
19173TIP3    H278935   2.917   0.453  15.216  0.3033 -0.0180  0.4566
19174TIP3   OH278936   1.710   2.894  12.839 -0.2292 -0.1402 -0.2774
19174TIP3    H178937   1.666   2.845  12.770  0.2977  1.2300 -1.6198
19174TIP3    H278938   1.645   2.959  12.866 -0.8715 -1.4459  1.3887
19175TIP3   OH278939   3.472   1.093   3.066 -0.2078 -0.1974 -0.1002
19175TIP3    H178940   3.565   1.086   3.045  0.2000  2.1947  0.7514
19175TIP3    H278941   3.470   1.112   3.160 -1.5459 -0.0392 -0.1470
19176TIP3   OH278942   3.330   3.294   2.052 -0.1743 -0.6285  0.3117
19176TIP3    H178943   3.259   3.352   2.082 -0.6797 -1.4268  0.6774
19176TIP3    H278944   3.328   3.220   2.112 -1.6879 -2.6299 -2.0908
19177TIP3   OH278945   0.591   0.035   1.175  0.1584 -0.8787  0.2622
19177TIP3    H178946   0.579   0.115   1.226  0.2882 -0.8801  0.2958
19177TIP3    H278947   0.671  -0.004   1.210  0.4427 -0.6955 -0.1779
19178TIP3   OH278948   4.159   3.743   4.473  0.1671  0.2071 -0.2118
19178TIP3    H178949   4.131   3.833   4.455 -2.3995 -0.6888 -0.8807
19178TIP3    H278950   4.113   3.719   4.554 -0.7526 -1.1480 -1.1034
19179TIP3   OH278951   3.976   6.380  13.869  0.1955 -0.1167 -0.3909
19179TIP3    H178952   4.026   6.458  13.894 -0.6573  0.0280  0.9595
19179TIP3    H278953   3.934   6.402  13.786 -2.2661  1.9284  1.3214
19180TIP3   OH278954   6.720   6.333  17.013  0.0856  0.6260  0.1775
19180TIP3    H178955   6.661   6.378  17.074  1.4314  2.5415  0.1177
19180TIP3    H278956   6.697   6.241  17.021 -2.1438  1.2139  0.9989
19181TIP3   OH278957   5.646   1.331  16.336  0.4969 -0.3507  0.0887
19181TIP3    H178958   5.575   1.277  16.369  1.1838 -1.1672  0.2364
19181TIP3    H278959   5.724   1.302  16.384  0.7388  1.2975  0.7445
19182TIP3   OH278960   2.976   0.586  12.883  0.3213 -0.1804 -0.0942
19182TIP3    H178961   3.040   0.544  12.825  0.2644 -0.5792  0.1270
19182TIP3    H278962   2.931   0.513  12.925 -1.5716  0.0646 -1.6333
19183TIP3   OH278963   0.748   5.212   0.608 -0.1995 -0.2889 -0.0121
19183TIP3    H178964   0.780   5.277   0.546 -0.1305  0.0358  0.3613
19183TIP3    H278965   0.742   5.131   0.557  0.9713 -0.2939 -0.1443
19184TIP3   OH278966   4.971   3.921   0.413  0.5135 -0.4951  0.0337
19184TIP3    H178967   5.023   4.001   0.408 -0.1108 -0.1130 -0.4841
19184TIP3    H278968   4.961   3.904   0.506 -1.6720  1.5747  0.2231
19185TIP3   OH278969   0.715   0.742   3.075 -0.0203  0.2356 -0.0198
19185TIP3    H178970   0.748   0.676   3.014 -1.7179 -0.3566 -0.3164
19185TIP3    H278971   0.779   0.744   3.146  0.3739 -1.2499 -0.3308
19186TIP3   OH278972   3.148   4.552  15.287  0.5008  0.2826 -0.5167
19186TIP3    H178973   3.100   4.604  15.223 -0.2205 -0.2124 -0.3757
19186TIP3    H278974   3.119   4.462  15.273  0.8361  0.0779  0.0611
19187TIP3   OH278975   0.872   1.841  16.403 -0.1365 -0.3607  0.3650
19187TIP3    H178976   0.813   1.908  16.369 -0.2673 -0.6347  0.0522
19187TIP3    H278977   0.815   1.766  16.422 -0.2180  0.0868  2.0422
19188TIP3   OH278978   4.155   0.898   1.582  0.2221  0.4777  0.2205
19188TIP3    H178979   4.231   0.920   1.636  0.8144 -1.2982  0.1166
19188TIP3    H278980   4.081   0.937   1.629  0.8835  0.0617  1.6534
19189TIP3   OH278981   3.388   4.386  11.424 -0.0356  0.0438  0.3829
19189TIP3    H178982   3.410   4.463  11.477  0.9008  1.2938 -1.7483
19189TIP3    H278983   3.438   4.397  11.344 -0.0472 -2.7279 -0.0579
19190TIP3   OH278984   3.608   0.426  17.092  0.0775  0.0121 -0.1303
19190TIP3    H178985   3.620   0.340  17.051  0.0462  0.8326 -1.9279
19190TIP3    H278986   3.513   0.435  17.100 -0.1286  1.2385 -3.0786
19191TIP3   OH278987   4.143   1.695  14.764  0.1401 -0.1225 -0.5102
19191TIP3    H178988   4.159   1.652  14.848  1.5909  1.1850 -0.1094
19191TIP3    H278989   4.065   1.651  14.730 -0.1101 -1.0774  1.2309
19192TIP3   OH278990   1.437   3.696  11.867  0.3082 -0.1760  0.1589
19192TIP3    H178991   1.377   3.769  11.854  1.3642  0.7264  0.2969
19192TIP3    H278992   1.387   3.619  11.840  0.1648  0.8899 -2.7604
19193TIP3   OH278993   2.621   6.722  13.812 -0.2868  0.3905 -0.2781
19193TIP3    H178994   2.628   6.810  13.773 -1.0051  0.8810  0.6783
19193TIP3    H278995   2.554   6.679  13.760 -1.4806  1.1570  0.6009
19194TIP3   OH278996   5.536   0.673  12.979  0.0356 -0.0199 -0.4797
19194TIP3    H178997   5.588   0.720  13.044 -0.3586 -0.4959  0.1817
19194TIP3    H278998   5.496   0.743  12.926 -0.0135  0.3825  0.0788
19195TIP3   OH278999   4.654   0.085  13.926  0.4181 -0.3205 -0.3733
19195TIP3    H179000   4.602   0.148  13.975 -0.4090 -0.3976 -1.1275
19195TIP3    H279001   4.722   0.137  13.884 -0.6928  0.1851 -1.5724
19196TIP3   OH279002   1.997   6.032   2.970 -0.1074 -0.0872 -0.1953
19196TIP3    H179003   2.088   6.062   2.982 -0.0442  0.1482 -1.2183
19196TIP3    H279004   1.985   6.031   2.875 -0.4196 -2.4316 -0.1462
19197TIP3   OH279005   0.316   0.605  16.811 -0.0642  0.4772  0.9489
19197TIP3    H179006   0.267   0.531  16.773  0.2050  0.3236  0.8957
19197TIP3    H279007   0.330   0.664  16.737  0.0847  0.3822  0.8991
19198TIP3   OH279008   2.656   5.336  11.471 -0.1787 -0.0296 -0.0274
19198TIP3    H179009   2.751   5.339  11.477 -0.2087 -1.0717  1.2173
19198TIP3    H279010   2.638   5.295  11.386  0.4839 -0.2120 -0.0820
19199TIP3   OH279011   1.223   0.612  11.884  0.2469  0.3397  0.3184
19199TIP3    H179012   1.132   0.638  11.897  0.3860  1.0504 -0.0878
19199TIP3    H279013   1.239   0.626  11.790  0.9964  0.9731  0.5272
19200TIP3   OH279014   1.948   5.782  14.118  0.1902  0.2689  0.0762
19200TIP3    H179015   1.920   5.869  14.147 -0.8652 -0.4878  1.4022
19200TIP3    H279016   1.988   5.797  14.032  1.0410  2.2127  0.7815
19201TIP3   OH279017   3.969   3.401   3.997 -0.5657  0.1714 -0.3387
19201TIP3    H179018   3.957   3.307   3.988  0.7270  0.0599 -0.9988
19201TIP3    H279019   3.938   3.421   4.086  0.5424 -1.1061  0.3485
19202TIP3   OH279020   6.328   4.516  14.013  0.2872  0.7102 -0.1687
19202TIP3    H179021   6.327   4.493  14.106 -0.2559  0.1203 -0.3161
19202TIP3    H279022   6.401   4.467  13.977  0.1199  0.4571 -0.1693
19203TIP3   OH279023   0.086   5.296   2.666 -0.6725  0.3739 -0.0027
19203TIP3    H179024   0.115   5.205   2.675 -0.2761  0.7722  3.4341
19203TIP3    H279025  -0.008   5.290   2.647  0.1058 -0.7662 -3.9324
19204TIP3   OH279026   1.532   3.808   2.950  0.0039  0.0363  0.1906
19204TIP3    H179027   1.520   3.853   3.034  2.5903  0.8854  0.1539
19204TIP3    H279028   1.624   3.780   2.951 -0.1232 -0.5355 -2.0671
19205TIP3   OH279029   5.350   1.079   3.774  0.0591 -0.3959 -0.6864
19205TIP3    H179030   5.364   1.119   3.688  0.3249 -0.3144 -0.6045
19205TIP3    H279031   5.438   1.068   3.811 -0.1330  1.1201  0.2725
19206TIP3   OH279032   5.053   4.284  12.130  0.2138  0.1518  0.1635
19206TIP3    H179033   5.011   4.249  12.052 -0.0825  0.1349  0.3273
19206TIP3    H279034   5.005   4.246  12.203 -0.1042  0.8849  0.3436
19207TIP3   OH279035   4.155   1.405   5.748  0.2352  0.3015  0.0381
19207TIP3    H179036   4.193   1.347   5.682 -0.7398  1.2046 -1.3467
19207TIP3    H279037   4.206   1.486   5.740 -0.2385  0.5984  0.0100
19208TIP3   OH279038   6.454   1.428   1.335 -0.0341 -0.0244 -0.1480
19208TIP3    H179039   6.377   1.467   1.377 -0.1125  0.8218 -1.0750
19208TIP3    H279040   6.518   1.420   1.406 -1.1059 -1.1091  0.7236
19209TIP3   OH279041   4.909   3.086  11.109 -0.6022  0.1614 -0.1859
19209TIP3    H179042   4.993   3.098  11.153  0.9012 -2.0375 -2.3487
19209TIP3    H279043   4.847   3.069  11.180  0.7797  1.7150  1.4289
19210TIP3   OH279044   3.341   5.190  14.521 -0.2306 -0.3360  0.2968
19210TIP3    H179045   3.429   5.227  14.521  0.1921 -1.3181  1.1675
19210TIP3    H279046   3.321   5.175  14.429 -0.6560  2.5972 -0.1405
19211TIP3   OH279047   5.987   5.851   4.595  0.0690  0.3667 -0.4476
19211TIP3    H179048   5.937   5.867   4.515 -0.6705  3.5006  0.5780
19211TIP3    H279049   5.928   5.876   4.666  0.6865 -2.4513  1.1092
19212TIP3   OH279050   1.713   4.414  14.277 -0.4567 -0.3474  0.1815
19212TIP3    H179051   1.729   4.501  14.313 -0.9245 -1.1901  2.5024
19212TIP3    H279052   1.618   4.407  14.271 -0.4874 -1.2456  1.4488
19213TIP3   OH279053   4.761   6.678  12.444  0.4564 -0.7503  0.4933
19213TIP3    H179054   4.795   6.590  12.430  0.7267 -0.4094 -1.0968
19213TIP3    H279055   4.756   6.716  12.356 -0.2260  0.6081  1.1035
19214TIP3   OH279056   6.297   3.500   5.601  0.1681  0.0673 -0.3339
19214TIP3    H179057   6.262   3.432   5.659  0.7989 -1.1929 -1.4046
19214TIP3    H279058   6.273   3.582   5.643  2.0767 -0.8034  2.6375
19215TIP3   OH279059   0.921   1.475  16.982  0.4255  0.2394  0.0094
19215TIP3    H179060   0.946   1.419  17.055  0.9329  1.8317  1.0745
19215TIP3    H279061   0.826   1.482  16.989  0.5532  1.0103  0.9788
19216TIP3   OH279062   5.585   0.676  12.004 -0.1274 -0.0977  0.2047
19216TIP3    H179063   5.643   0.617  11.956  0.3575  1.0626 -0.6619
19216TIP3    H279064   5.616   0.764  11.982 -0.8709  0.4909  1.4333
19217TIP3   OH279065   4.887   4.800  14.859 -0.2733  0.3789 -0.4945
19217TIP3    H179066   4.868   4.728  14.919 -1.5996  0.5557 -0.6850
19217TIP3    H279067   4.862   4.766  14.772 -1.3951  1.2313 -0.5182
19218TIP3   OH279068   2.093   2.528   3.983  0.2923  0.1184 -0.2360
19218TIP3    H179069   2.048   2.612   3.975 -0.4527 -0.3069 -0.5580
19218TIP3    H279070   2.168   2.546   4.039 -0.7627  0.6403  1.0434
19219TIP3   OH279071   4.222   2.749   1.245  0.8314 -0.0994  0.7262
19219TIP3    H179072   4.235   2.836   1.206  0.8467 -0.2937  0.2999
19219TIP3    H279073   4.281   2.748   1.321 -0.8272  1.1054  2.0752
19220TIP3   OH279074   4.175   1.498   5.308 -0.3344 -0.1101  0.7341
19220TIP3    H179075   4.234   1.447   5.365 -1.6714 -1.3814  1.0049
19220TIP3    H279076   4.106   1.529   5.366  1.0282  2.9988  0.7870
19221TIP3   OH279077   3.540   4.432   2.949  0.3254 -0.9314 -0.0717
19221TIP3    H179078   3.486   4.369   2.996  1.9136 -0.6154  2.2365
19221TIP3    H279079   3.602   4.378   2.899 -0.8427 -1.2534 -1.1896
19222TIP3   OH279080   1.544   2.014   1.339 -0.1345  0.5352  0.0649
19222TIP3    H179081   1.575   1.979   1.422  0.7639 -1.3363 -1.0129
19222TIP3    H279082   1.604   1.977   1.274 -2.2340  0.0473 -1.6482
19223TIP3   OH279083   2.485   4.211   4.239 -0.6974 -0.2597  0.6156
19223TIP3    H179084   2.460   4.299   4.267 -1.5541 -0.2659 -0.0926
19223TIP3    H279085   2.448   4.153   4.305 -2.4304 -0.2538 -0.3122
19224TIP3   OH279086   5.652   4.856  14.777 -0.9021  0.1892 -0.9310
19224TIP3    H179087   5.664   4.874  14.870  0.0132  1.2354 -1.2380
19224TIP3    H279088   5.734   4.815  14.750 -1.0403  0.1716 -1.3369
19225TIP3   OH279089   1.312   4.286  14.821  0.1469 -0.0308 -0.5194
19225TIP3    H179090   1.229   4.319  14.787  0.8149  1.6842 -0.5578
19225TIP3    H279091   1.358   4.364  14.851  2.0822 -0.8631 -1.2283
19226TIP3   OH279092   1.710   4.878   6.099 -0.3588  0.2321 -0.3083
19226TIP3    H179093   1.635   4.923   6.139  0.3305  1.8318 -0.7969
19226TIP3    H279094   1.741   4.818   6.167 -1.4239  0.3244  0.2677
19227TIP3   OH279095   4.124   5.068  15.129  0.5978 -0.0481  0.7933
19227TIP3    H179096   4.183   5.020  15.070  1.4676  0.9273  0.8629
19227TIP3    H279097   4.180   5.133  15.171 -0.7478  1.5720  0.1037
19228TIP3   OH279098   5.673   3.418   6.090 -0.4906 -0.1940 -0.8124
19228TIP3    H179099   5.684   3.436   6.183 -1.0141  1.4522 -1.0692
19228TIP3    H279100   5.738   3.350   6.071 -0.2578 -0.3995  0.7009
19229TIP3   OH279101   2.304   5.712  15.789 -0.1000 -0.3678  0.0676
19229TIP3    H179102   2.247   5.709  15.866 -1.1675  1.1122 -0.6451
19229TIP3    H279103   2.307   5.804  15.765  0.7471 -0.7386 -1.2856
19230TIP3   OH279104   0.387   3.943   3.485 -0.0566 -0.1258 -0.4831
19230TIP3    H179105   0.470   3.978   3.518  0.0604  0.2699 -1.1803
19230TIP3    H279106   0.374   3.862   3.534 -0.2692  0.8344  1.0647
19231TIP3   OH279107   5.451   5.914  11.876 -0.2504  0.5671  0.0021
19231TIP3    H179108   5.463   5.821  11.894 -0.9691  0.0667 -1.9103
19231TIP3    H279109   5.521   5.937  11.815 -0.7082  1.0112 -0.3708
19232TIP3   OH279110   0.285   0.637   3.990 -0.1741  0.2271 -0.2864
19232TIP3    H179111   0.361   0.690   4.012 -0.6866  1.1398 -0.7128
19232TIP3    H279112   0.315   0.582   3.917  0.1030  0.5037 -0.3802
19233TIP3   OH279113   4.733   0.104  12.238  0.1352  0.0725 -0.2767
19233TIP3    H179114   4.792   0.081  12.166 -0.2315  1.6331 -1.1071
19233TIP3    H279115   4.713   0.197  12.224  0.5790  0.5980  2.2040
19234TIP3   OH279116   3.925   0.759   0.313 -0.1205 -0.0202  0.7105
19234TIP3    H179117   3.876   0.836   0.340  1.6035  1.6599 -0.7518
19234TIP3    H279118   3.986   0.743   0.384 -0.5645 -0.0989  1.0723
19235TIP3   OH279119   0.747   2.279  12.074  0.6964 -0.5082  0.4411
19235TIP3    H179120   0.658   2.293  12.106  0.3032  2.2867 -1.6858
19235TIP3    H279121   0.737   2.238  11.989  1.5218 -1.8647  0.9831
19236TIP3   OH279122   4.223   0.944  14.147  0.0127  0.1249 -0.6495
19236TIP3    H179123   4.307   0.981  14.175  0.0200 -1.4291  1.4818
19236TIP3    H279124   4.216   0.968  14.054  1.3333  2.9559 -0.0617
19237TIP3   OH279125   3.317   0.974   1.578 -0.3458  0.1276 -0.4267
19237TIP3    H179126   3.233   1.016   1.558 -0.2341 -0.0858 -1.3373
19237TIP3    H279127   3.364   1.039   1.630 -2.8344 -1.3975  4.0833
19238TIP3   OH279128   5.495   6.556   5.938 -0.2322 -0.2464 -0.1461
19238TIP3    H179129   5.522   6.639   5.977  1.3732 -0.3721 -0.9809
19238TIP3    H279130   5.442   6.514   6.006  1.6441  0.0173  1.5092
19239TIP3   OH279131   6.190   4.367  12.394  0.9019 -0.3239 -0.5885
19239TIP3    H179132   6.117   4.314  12.362  0.8356 -0.7761  0.2795
19239TIP3    H279133   6.153   4.455  12.403  0.3975 -0.5851  0.0087
19240TIP3   OH279134   0.913   2.334  16.357  0.1962  0.3720 -0.6043
19240TIP3    H179135   0.876   2.374  16.435 -2.5543 -0.0844 -1.5962
19240TIP3    H279136   0.888   2.394  16.286  2.6426  0.7795 -1.1782
19241TIP3   OH279137   1.110   3.208   3.941  0.2093 -0.6306 -0.6174
19241TIP3    H179138   1.179   3.191   3.877 -1.5274 -3.2220 -1.8575
19241TIP3    H279139   1.127   3.145   4.011 -0.0656 -0.3037 -0.2604
19242TIP3   OH279140   2.636   5.746   5.421  0.7286  0.0410 -0.1105
19242TIP3    H179141   2.549   5.756   5.384  0.3734 -0.7159  0.5154
19242TIP3    H279142   2.651   5.826   5.470  0.5327  0.3301 -0.5266
19243TIP3   OH279143   3.147   0.901  15.709 -0.0161  0.2308 -0.1085
19243TIP3    H179144   3.073   0.845  15.733 -0.2879  0.6422  0.0306
19243TIP3    H279145   3.209   0.842  15.667 -0.1897 -0.2209  0.2584
19244TIP3   OH279146   5.322   5.253   3.507  0.7151  0.4465 -0.0252
19244TIP3    H179147   5.395   5.207   3.465  2.4451  3.1950 -0.1341
19244TIP3    H279148   5.320   5.218   3.596 -1.6489 -3.8921 -1.5944
19245TIP3   OH279149   5.514   6.744  13.344 -0.1942  0.2400  0.4706
19245TIP3    H179150   5.423   6.753  13.315 -0.0298  0.1852 -0.0693
19245TIP3    H279151   5.553   6.681  13.283 -0.3993 -1.4904  2.1113
19246TIP3   OH279152   3.321   5.311  16.262  0.0535 -0.0340 -0.5236
19246TIP3    H179153   3.404   5.268  16.241 -1.1752 -1.6691 -2.1645
19246TIP3    H279154   3.283   5.333  16.178 -2.4502 -1.7841  0.0963
19247TIP3   OH279155   2.801   5.916   1.680 -0.2975 -0.1677  1.0376
19247TIP3    H179156   2.851   5.835   1.691 -0.9170 -0.6760  0.1556
19247TIP3    H279157   2.716   5.888   1.648 -0.1838  0.8952 -0.2346
19248TIP3   OH279158   2.732   0.976   5.768  0.3610 -0.0072 -0.2187
19248TIP3    H179159   2.712   0.910   5.835  3.2434  0.2321  0.9377
19248TIP3    H279160   2.806   0.939   5.719 -0.0184  0.9906 -1.5807
19249TIP3   OH279161   1.091   0.585  13.658  0.4468 -0.1989  0.3082
19249TIP3    H179162   1.153   0.637  13.710 -0.1521  0.9058 -0.0729
19249TIP3    H279163   1.010   0.635  13.660  0.2520 -0.4169 -1.2320
19250TIP3   OH279164   3.872   3.357   2.567  0.2202 -0.1692 -0.2646
19250TIP3    H179165   3.777   3.373   2.568  0.4432  1.2075  1.1333
19250TIP3    H279166   3.888   3.306   2.646  0.6384 -0.4653 -0.5424
19251TIP3   OH279167   2.865   4.130  12.777  0.2761  0.2547 -0.6547
19251TIP3    H179168   2.827   4.173  12.853  0.2596 -2.1110  0.7112
19251TIP3    H279169   2.827   4.042  12.777  3.8389 -1.3638 -0.6873
19252TIP3   OH279170   2.011   3.631   1.048  0.2193 -0.4646  0.2038
19252TIP3    H179171   2.054   3.692   1.109  0.2036 -1.0780  0.8317
19252TIP3    H279172   2.028   3.668   0.962  0.1044  0.5072  0.5881
19253TIP3   OH279173   6.311   4.160   1.801  0.0166 -0.5366  0.3648
19253TIP3    H179174   6.236   4.135   1.854 -0.1235  1.9118  1.3715
19253TIP3    H279175   6.369   4.206   1.861 -0.2668  2.5823 -1.5839
19254TIP3   OH279176   1.312   1.347  13.036  0.1991 -0.1283 -0.2365
19254TIP3    H179177   1.388   1.321  13.088 -1.4663 -2.9003  0.8834
19254TIP3    H279178   1.282   1.428  13.077 -0.2490 -1.5365  2.3251
19255TIP3   OH279179   6.626   3.369   2.956 -0.0471 -0.0264  0.0107
19255TIP3    H179180   6.699   3.413   3.001 -0.6356 -0.0651  1.0214
19255TIP3    H279181   6.624   3.409   2.869  0.8194  0.3855  0.1712
19256TIP3   OH279182   3.183   0.427   0.082  0.1658 -0.0119  0.0008
19256TIP3    H179183   3.254   0.366   0.100  1.5100  0.8317 -2.2281
19256TIP3    H279184   3.118   0.409   0.149  2.0037 -1.5725  1.4084
19257TIP3   OH279185   2.177   2.243   3.576  0.1421 -0.3136 -0.2239
19257TIP3    H179186   2.182   2.274   3.486  1.4457 -0.7809 -0.3271
19257TIP3    H279187   2.263   2.204   3.593 -0.9756 -2.6658  0.3372
19258TIP3   OH279188   0.416   3.711  10.913  0.2800  0.0567 -0.2109
19258TIP3    H179189   0.354   3.748  10.851  0.9020  0.5245 -0.5581
19258TIP3    H279190   0.473   3.784  10.936  1.3931 -0.6423 -0.7478
19259TIP3   OH279191   0.168   1.851   3.861  0.5830  0.0263 -0.5052
19259TIP3    H179192   0.239   1.797   3.894 -0.0786 -0.8466 -0.4873
19259TIP3    H279193   0.129   1.799   3.791 -0.9911 -0.1746  0.4927
19260TIP3   OH279194   0.528   2.518  13.900  0.3663 -0.0976  0.2205
19260TIP3    H179195   0.605   2.494  13.951  2.0945  1.4079 -1.5756
19260TIP3    H279196   0.498   2.436  13.861  0.8987 -0.7450  1.1585
19261TIP3   OH279197   4.816   6.211  12.460 -0.4894 -0.4529 -0.5923
19261TIP3    H179198   4.743   6.185  12.516 -1.0310  2.0759 -0.0642
19261TIP3    H279199   4.890   6.160  12.493 -0.8901  0.6514  2.1593
19262TIP3   OH279200   5.685   1.043   0.899 -0.0153 -0.4099  0.6124
19262TIP3    H179201   5.777   1.054   0.921  0.4492 -2.4538 -0.2312
19262TIP3    H279202   5.643   1.016   0.981  0.5378 -1.5725  0.5242
19263TIP3   OH279203   4.154   6.785   2.293 -0.2563  0.3174 -0.3198
19263TIP3    H179204   4.097   6.814   2.365 -0.5915 -0.1700 -0.3910
19263TIP3    H279205   4.160   6.690   2.304 -0.1872  0.2602 -0.8506
19264TIP3   OH279206   4.351   5.007  10.964  0.1685  0.1487  0.5357
19264TIP3    H179207   4.346   5.103  10.964 -0.1123  0.1441  1.5458
19264TIP3    H279208   4.425   4.987  10.908  1.0268  1.0150  1.3303
19265TIP3   OH279209   6.462   2.553  14.064  0.0423 -0.0182 -0.2666
19265TIP3    H179210   6.437   2.542  14.155 -1.5806 -0.7035 -0.7773
19265TIP3    H279211   6.439   2.644  14.044  0.2460  0.0827 -0.0439
19266TIP3   OH279212   3.649   1.058   2.410 -0.0171 -0.1137 -0.5884
19266TIP3    H179213   3.697   1.040   2.491 -0.4321 -0.9615 -0.5274
19266TIP3    H279214   3.556   1.049   2.435 -0.1373 -0.6051 -1.2136
19267TIP3   OH279215   6.376   3.703  12.078  0.6749  0.1616 -0.2184
19267TIP3    H179216   6.414   3.759  12.146  0.8531 -1.5575  1.1191
19267TIP3    H279217   6.451   3.672  12.027  1.0251 -2.4839  1.8469
19268TIP3   OH279218   6.398   2.969  13.129 -0.6751  0.3025  0.5325
19268TIP3    H179219   6.450   3.015  13.194 -0.9220  0.2630  0.7612
19268TIP3    H279220   6.328   3.030  13.106 -0.1114  0.6363 -0.3135
19269TIP3   OH279221   1.094   1.711   6.357 -0.5579  0.0510  0.4074
19269TIP3    H179222   1.008   1.687   6.391  0.2588 -1.3273  1.5446
19269TIP3    H279223   1.156   1.675   6.420  0.8089  3.0306  0.8309
19270TIP3   OH279224   2.728   4.092   4.784 -0.1912 -0.1332 -0.4426
19270TIP3    H179225   2.683   4.166   4.744  0.8131  2.2039  2.4760
19270TIP3    H279226   2.759   4.039   4.711 -2.6363  1.2809 -2.5661
19271TIP3   OH279227   4.114   1.240   0.401 -0.8464  0.5051  0.0484
19271TIP3    H179228   4.075   1.328   0.401 -1.7289  0.1255  0.4542
19271TIP3    H279229   4.056   1.189   0.344 -1.2587 -0.2091  1.0962
19272TIP3   OH279230   6.746   0.414   2.406  0.2450  0.2194 -0.3526
19272TIP3    H179231   6.695   0.334   2.394 -0.0764  0.4954 -0.8223
19272TIP3    H279232   6.837   0.384   2.406  0.1833  0.0306 -1.9777
19273TIP3   OH279233   5.993   4.011  15.325  0.2060  0.5644 -0.1180
19273TIP3    H179234   6.026   3.971  15.244  1.4227 -0.9497  1.1061
19273TIP3    H279235   5.984   4.104  15.304 -1.2929 -0.0719 -2.5749
19274TIP3   OH279236   1.940   1.898   1.960  0.2075  0.5886  0.4516
19274TIP3    H179237   1.866   1.840   1.940 -0.4301  1.4005  0.4112
19274TIP3    H279238   2.017   1.843   1.949 -0.3516 -0.0759 -0.2568
19275TIP3   OH279239   2.556   0.405   5.042  0.0082  0.2457  0.0161
19275TIP3    H179240   2.549   0.311   5.022  1.1416  0.7518 -3.0288
19275TIP3    H279241   2.469   0.440   5.023  0.5330  0.3723 -2.3051
19276TIP3   OH279242   2.773   2.064   5.363  0.3362 -0.0158 -0.1868
19276TIP3    H179243   2.746   2.057   5.272  1.5714 -0.4115 -0.5402
19276TIP3    H279244   2.699   2.103   5.408 -0.1326  0.5437 -1.4381
19277TIP3   OH279245   5.873   5.810  14.809  0.0277 -0.0035  0.3953
19277TIP3    H179246   5.897   5.771  14.725  0.6744 -0.5287  0.8216
19277TIP3    H279247   5.852   5.735  14.865 -1.8460  0.3947  0.2793
19278TIP3   OH279248   0.252   1.845  11.907  0.3051 -0.4102  0.1378
19278TIP3    H179249   0.232   1.885  11.821  0.1511  0.0333  0.3768
19278TIP3    H279250   0.329   1.893  11.938  1.2251 -1.5407 -0.3911
19279TIP3   OH279251   2.516   2.745  11.680  0.5716 -0.4478  0.0700
19279TIP3    H179252   2.486   2.677  11.741  1.0299 -0.2314  0.5469
19279TIP3    H279253   2.550   2.697  11.605 -0.8257 -0.6928 -0.4014
19280TIP3   OH279254   6.733   2.500  12.756 -0.2703  0.1640  0.0817
19280TIP3    H179255   6.696   2.507  12.668 -0.2409 -0.9900 -0.0421
19280TIP3    H279256   6.750   2.406  12.767 -0.1692  0.3109  1.2786
19281TIP3   OH279257   0.115   0.948   5.673 -0.0353  0.4651  0.2487
19281TIP3    H179258   0.184   0.882   5.672  0.1401  0.6151  1.4083
19281TIP3    H279259   0.062   0.929   5.596 -0.0228 -1.0639  0.6096
19282TIP3   OH279260   5.951   3.128  11.676 -0.6813  0.0538  0.4819
19282TIP3    H179261   5.943   3.197  11.742 -1.9077  0.5421 -0.1681
19282TIP3    H279262   5.862   3.111  11.648 -0.3116 -1.2503  0.0586
19283TIP3   OH279263   1.533   1.988  12.975  0.2034 -0.1519 -0.3072
19283TIP3    H179264   1.523   2.082  12.987  0.8269 -0.1934  0.5747
19283TIP3    H279265   1.625   1.971  12.993  0.0193 -0.9835 -0.1065
19284TIP3   OH279266   1.824   6.391   0.076 -0.2464 -0.1103  0.3510
19284TIP3    H179267   1.738   6.413   0.112 -0.3818 -0.4178  0.2198
19284TIP3    H279268   1.817   6.298   0.055 -0.3206  0.1746 -0.9002
19285TIP3   OH279269   5.374   3.599  14.038 -0.1880 -0.3569 -0.1580
19285TIP3    H179270   5.375   3.569  14.129  0.6658  0.0418 -0.0350
19285TIP3    H279271   5.292   3.648  14.030  0.3722  0.7607  0.7829
19286TIP3   OH279272   5.413   3.283   3.096 -0.3114 -0.2307 -0.2391
19286TIP3    H179273   5.470   3.337   3.152  0.5457 -0.8545 -0.5021
19286TIP3    H279274   5.425   3.194   3.129  0.1582 -0.5994 -1.3766
19287TIP3   OH279275   1.547   1.916  13.544 -0.4345 -0.4235  0.0269
19287TIP3    H179276   1.553   1.854  13.616  1.1251  0.0639  0.3261
19287TIP3    H279277   1.637   1.930  13.516 -0.7921  1.4390 -0.2640
19288TIP3   OH279278   1.691   5.711  10.681 -0.5732  0.0085 -0.8496
19288TIP3    H179279   1.759   5.690  10.617  0.9706  1.8580  0.1238
19288TIP3    H279280   1.614   5.735  10.629  0.0361 -0.5138 -1.9821
19289TIP3   OH279281   5.784   4.710  15.564  0.0643  0.0185  0.2776
19289TIP3    H179282   5.771   4.744  15.652  1.8530 -0.1964  0.6510
19289TIP3    H279283   5.781   4.787  15.507  1.9251  0.5729  0.8815
19290TIP3   OH279284   2.586   6.287  14.271  0.3075  0.1845  0.3646
19290TIP3    H179285   2.655   6.351  14.290  1.6834 -0.8573 -1.0043
19290TIP3    H279286   2.556   6.259  14.357  1.9400  0.2960  0.9943
19291TIP3   OH279287   4.184   1.389  13.914  0.0330  0.4365 -0.3757
19291TIP3    H179288   4.276   1.378  13.889 -0.1294 -0.6110 -0.5129
19291TIP3    H279289   4.187   1.405  14.008  0.1582 -2.8451  0.2472
19292TIP3   OH279290   4.029   6.302   3.124  0.1070 -0.1398  0.1668
19292TIP3    H179291   4.033   6.359   3.048 -1.0788 -0.8802 -0.4571
19292TIP3    H279292   4.030   6.361   3.199  0.2493  0.6333 -0.4412
19293TIP3   OH279293   5.250   4.158  13.105  0.1481  0.2021  0.1254
19293TIP3    H179294   5.343   4.156  13.080  0.6898 -4.1761  2.0369
19293TIP3    H279295   5.203   4.157  13.022  1.7472  2.7516 -0.8784
19294TIP3   OH279296   6.382   1.318   4.799 -0.8619 -0.0050 -0.1015
19294TIP3    H179297   6.384   1.227   4.770 -0.8998  0.6016 -2.0808
19294TIP3    H279298   6.466   1.354   4.769 -1.4809  0.9944 -0.6271
19295TIP3   OH279299   1.419   3.407  13.540 -0.0015  0.1232 -0.0465
19295TIP3    H179300   1.455   3.335  13.591  0.7011  0.9186  0.6072
19295TIP3    H279301   1.480   3.418  13.467 -1.1158 -1.1453 -1.1816
19296TIP3   OH279302   4.746   6.105  15.035  0.3246  0.9613  0.3965
19296TIP3    H179303   4.835   6.106  14.999  0.4455  1.8195  0.7288
19296TIP3    H279304   4.721   6.197  15.041 -0.7641  0.7105 -0.1255
19297TIP3   OH279305   1.378   0.725  14.067 -0.0186 -0.3640 -0.0035
19297TIP3    H179306   1.347   0.677  14.144 -0.4675 -0.1733 -0.0610
19297TIP3    H279307   1.470   0.745  14.085  0.6503 -2.7002 -0.6994
19298TIP3   OH279308   3.472   0.348  14.597 -0.3952  0.0476  0.0828
19298TIP3    H179309   3.511   0.262  14.606 -0.2097  0.2146  0.9300
19298TIP3    H279310   3.438   0.350  14.508  0.2828 -0.6119 -0.1906
19299TIP3   OH279311   5.494   5.376   4.889 -0.1823  0.3438 -0.5685
19299TIP3    H179312   5.556   5.444   4.914  0.3049  0.0089 -0.8734
19299TIP3    H279313   5.543   5.317   4.831 -0.8793  0.2755 -1.0985
19300TIP3   OH279314   1.165   5.777   0.112 -0.4485  0.4760  0.3925
19300TIP3    H179315   1.149   5.793   0.019 -0.0399  1.5717  0.5000
19300TIP3    H279316   1.161   5.682   0.121 -0.7253  0.3757 -0.7020
19301TIP3   OH279317   5.666   4.272  11.442  0.1200 -0.4540  0.3482
19301TIP3    H179318   5.688   4.267  11.535  1.0161 -0.1937  0.1527
19301TIP3    H279319   5.697   4.358  11.415 -0.4119 -0.4102 -0.1308
19302TIP3   OH279320   4.477   6.347   3.196 -0.1444 -0.3677  0.5516
19302TIP3    H179321   4.412   6.389   3.139 -0.8612  1.7281  2.8216
19302TIP3    H279322   4.561   6.375   3.160 -0.5875  0.7874  0.3962
19303TIP3   OH279323   2.231   2.702   6.501 -0.7598  0.7671 -0.6654
19303TIP3    H179324   2.290   2.634   6.534  0.0727  0.3474 -2.9599
19303TIP3    H279325   2.288   2.763   6.454 -1.3743  3.5357  2.0201
19304TIP3   OH279326   2.401   5.778  12.652 -0.2055 -0.2118  0.0208
19304TIP3    H179327   2.400   5.830  12.572  1.1773 -0.9820 -0.5067
19304TIP3    H279328   2.492   5.783  12.683 -0.2696 -1.5305  0.4692
19305TIP3   OH279329   3.994   4.944  15.365  0.2981  0.2604 -0.0456
19305TIP3    H179330   4.037   4.934  15.280  1.3316 -0.8534  0.5944
19305TIP3    H279331   4.040   5.016  15.407  1.1662 -0.5273  0.3859
19306TIP3   OH279332   4.091   3.572  13.714  0.3068 -0.4587  0.6322
19306TIP3    H179333   4.111   3.483  13.744  0.4062 -0.0510  1.8153
19306TIP3    H279334   4.176   3.615  13.709  0.3051 -0.5746 -0.4259
19307TIP3   OH279335   3.504   4.125   0.683 -0.5342 -0.3120  0.3330
19307TIP3    H179336   3.583   4.077   0.658 -0.9634 -0.4930 -0.7242
19307TIP3    H279337   3.535   4.212   0.708 -0.1184  0.0312 -1.3039
19308TIP3   OH279338   6.004   5.829   0.663 -0.3835  0.3850 -0.3688
19308TIP3    H179339   5.975   5.843   0.753 -1.5880 -0.1990 -0.6595
19308TIP3    H279340   6.044   5.912   0.637  0.5977  0.3338  0.9294
19309TIP3   OH279341   5.896   4.187  14.731 -1.0514  0.2337  0.0117
19309TIP3    H179342   5.898   4.197  14.636 -1.2536  0.8562  0.0736
19309TIP3    H279343   5.984   4.156  14.754 -1.0178  0.0362 -0.3833
19310TIP3   OH279344   3.604   0.095  14.571  0.0117  0.4756 -0.3724
19310TIP3    H179345   3.538   0.028  14.551 -0.8027  0.5075  2.0085
19310TIP3    H279346   3.659   0.055  14.638 -0.4838  2.1611  1.0699
19311TIP3   OH279347   3.658   4.488   5.939 -0.9082  0.1227 -0.3926
19311TIP3    H179348   3.565   4.490   5.962 -0.1549 -1.4620  3.0687
19311TIP3    H279349   3.686   4.399   5.961  1.7507  1.0260  0.0360
19312TIP3   OH279350   4.342   2.248  14.602  0.2422  0.6559 -0.1102
19312TIP3    H179351   4.318   2.341  14.608  0.1502  0.5977  0.4748
19312TIP3    H279352   4.381   2.239  14.515 -0.2706  1.1223 -0.3982
19313TIP3   OH279353   4.833   5.825  13.603  0.0380  0.6704 -0.7166
19313TIP3    H179354   4.761   5.874  13.643 -1.9878 -2.7360 -0.0062
19313TIP3    H279355   4.887   5.798  13.677  0.5133  0.8162 -1.0068
19314TIP3   OH279356   0.098   6.536   6.726 -0.0408  0.3789  0.4295
19314TIP3    H179357   0.091   6.624   6.689 -1.9021 -0.5574 -1.5198
19314TIP3    H279358   0.013   6.520   6.766  0.9023  0.1397  2.4052
19315TIP3   OH279359   0.931   0.381  11.356 -0.5841  0.0238 -0.0424
19315TIP3    H179360   0.915   0.471  11.329 -2.0336 -0.0621  0.4402
19315TIP3    H279361   1.026   0.372  11.358 -0.4415  1.2849 -0.9186
19316TIP3   OH279362   1.087   4.646  11.198 -0.1826 -0.5382  0.1321
19316TIP3    H179363   1.031   4.724  11.194  0.6530  0.0847  0.6155
19316TIP3    H279364   1.176   4.679  11.185  0.3931 -1.1390  2.3167
19317TIP3   OH279365   3.931   5.225  13.503 -0.1752 -0.1765 -0.1019
19317TIP3    H179366   3.918   5.172  13.425 -1.2178 -0.6431  0.3770
19317TIP3    H279367   3.993   5.174  13.556 -0.3704 -0.4104 -0.1012
19318TIP3   OH279368   1.236   2.748  15.907  0.0378  0.2711 -0.3112
19318TIP3    H179369   1.193   2.759  15.993  0.5009  2.2759 -0.2970
19318TIP3    H279370   1.163   2.735  15.846 -0.4577  1.1512  0.0742
19319TIP3   OH279371   0.072   5.908  16.215 -0.0576 -0.3557  0.1625
19319TIP3    H179372   0.038   5.851  16.147  0.0608  1.3095 -1.3360
19319TIP3    H279373   0.149   5.949  16.176  0.8706 -0.4833  1.8254
19320TIP3   OH279374   1.268   2.007   3.810  0.2058 -0.3765 -0.2566
19320TIP3    H179375   1.308   1.943   3.869  1.3949  0.9682  0.4094
19320TIP3    H279376   1.226   2.070   3.867  1.5582  1.0577 -0.7980
19321TIP3   OH279377   0.794   1.570   6.119  0.3576 -0.6494 -0.3239
19321TIP3    H179378   0.714   1.542   6.165 -1.3452 -0.7719 -3.2017
19321TIP3    H279379   0.817   1.653   6.159 -0.6747 -1.0612  1.1793
19322TIP3   OH279380   4.899   4.277   2.279 -0.2484 -0.5854  0.2381
19322TIP3    H179381   4.811   4.316   2.281 -0.3409 -0.7146 -0.7911
19322TIP3    H279382   4.917   4.265   2.186  1.3915  0.5814  0.3998
19323TIP3   OH279383   2.665   5.483   5.411  0.8157  0.0055 -0.4568
19323TIP3    H179384   2.591   5.476   5.351 -0.1889 -0.5745  0.8224
19323TIP3    H279385   2.684   5.577   5.414 -0.1857  0.2203 -0.4264
19324TIP3   OH279386   0.663   1.866   5.357 -0.7911 -0.0061 -0.6219
19324TIP3    H179387   0.692   1.893   5.270  0.6387 -0.5019 -0.3153
19324TIP3    H279388   0.638   1.948   5.400 -0.2169  0.3883 -1.0340
19325TIP3   OH279389   5.666   6.519  15.730  0.5459 -0.0897  0.0153
19325TIP3    H179390   5.694   6.432  15.703  1.9015  0.1407  0.6510
19325TIP3    H279391   5.630   6.507  15.818 -2.4809 -0.5767 -1.2046
19326TIP3   OH279392   0.209   6.379   2.439  0.2818  0.0523 -0.9891
19326TIP3    H179393   0.255   6.458   2.467 -0.7566  0.6782 -1.0326
19326TIP3    H279394   0.158   6.353   2.516  0.0043 -0.1197 -1.2311
19327TIP3   OH279395   6.512   5.502   2.273  0.2540 -0.0527  0.1768
19327TIP3    H179396   6.433   5.524   2.225  0.6601  0.6341 -0.1914
19327TIP3    H279397   6.536   5.582   2.319 -0.0686 -0.6781  1.4469
19328TIP3   OH279398   6.202   6.646   2.531  0.0300  0.1800 -0.4521
19328TIP3    H179399   6.298   6.654   2.532  0.1229 -0.8642 -0.4494
19328TIP3    H279400   6.184   6.577   2.466 -0.8858  2.2958 -2.5135
19329TIP3   OH279401   1.014   6.703   1.030  0.4378 -0.3156 -0.0997
19329TIP3    H179402   0.933   6.725   1.076  0.1042  1.5246 -1.4930
19329TIP3    H279403   1.068   6.782   1.036 -0.0773  0.4387 -3.7627
19330TIP3   OH279404   3.725   1.042  11.229 -0.0522 -0.0798 -0.0571
19330TIP3    H179405   3.647   1.042  11.174  0.7086  0.3588 -1.1561
19330TIP3    H279406   3.694   1.072  11.314 -1.3697 -1.4033 -0.0444
19331TIP3   OH279407   4.153   5.589  17.146 -0.0888 -0.0183  0.1049
19331TIP3    H179408   4.180   5.522  17.083  0.1757  0.4479 -0.2764
19331TIP3    H279409   4.062   5.609  17.121 -0.5659 -1.0560  0.9359
19332TIP3   OH279410   3.993   4.674   1.588 -0.3060  0.4096  0.0831
19332TIP3    H179411   4.027   4.724   1.514 -1.7482 -0.4706 -1.2116
19332TIP3    H279412   3.969   4.589   1.550 -4.3879  1.1577  0.7733
19333TIP3   OH279413   3.994   1.278   5.196 -0.1824 -0.3186 -0.4196
19333TIP3    H179414   3.984   1.333   5.119 -2.9604  0.2274  0.2733
19333TIP3    H279415   4.050   1.329   5.255 -0.9079  0.8040 -0.6867
19334TIP3   OH279416   3.522   0.763  15.763  0.3117  0.1245  0.4512
19334TIP3    H179417   3.520   0.855  15.791 -0.6357  0.1665  0.2660
19334TIP3    H279418   3.442   0.752  15.712  2.1517  0.1023 -2.5096
19335TIP3   OH279419   1.047   4.268  12.427  0.0832 -0.3997 -0.0754
19335TIP3    H179420   1.064   4.178  12.454  1.5467  0.5461  2.2774
19335TIP3    H279421   1.062   4.320  12.505 -0.6218  1.9260 -1.4357
19336TIP3   OH279422   4.224   4.728   2.442  0.7517  0.4503  0.9835
19336TIP3    H179423   4.159   4.796   2.425  0.9033  0.1858 -0.8141
19336TIP3    H279424   4.308   4.770   2.421  0.7811 -0.4947 -0.9180
19337TIP3   OH279425   4.725   2.179  15.776 -0.2089  0.1830  0.0994
19337TIP3    H179426   4.702   2.089  15.754 -0.0739 -0.0594  0.9416
19337TIP3    H279427   4.818   2.186  15.753 -0.6117  0.5879 -1.4668
19338TIP3   OH279428   1.513   0.313   3.995  0.0055  0.6818 -0.9850
19338TIP3    H179429   1.603   0.285   3.976  0.1716  0.9088 -0.5615
19338TIP3    H279430   1.516   0.338   4.088 -0.3143  1.4033 -1.1695
19339TIP3   OH279431   5.028   6.201  15.585  0.6145  0.0366 -0.2238
19339TIP3    H179432   5.024   6.135  15.516  1.2014  1.0956 -1.2817
19339TIP3    H279433   5.104   6.175  15.637  0.0644 -0.8666  0.1479
19340TIP3   OH279434   3.147   1.476  13.513 -0.2055 -0.5988  0.5490
19340TIP3    H179435   3.059   1.455  13.544 -1.1450  0.1751 -1.5540
19340TIP3    H279436   3.152   1.571  13.517 -0.0282 -0.5451 -0.8385
19341TIP3   OH279437   4.568   5.620  16.977 -0.0902  0.2898 -0.2254
19341TIP3    H179438   4.498   5.663  16.928 -0.0136  2.6555  1.6431
19341TIP3    H279439   4.643   5.679  16.967  0.2163  0.2742  1.7948
19342TIP3   OH279440   2.010   1.058   4.653 -0.1194  0.0187 -0.2810
19342TIP3    H179441   1.940   1.116   4.683 -0.6126 -1.1411  0.8298
19342TIP3    H279442   1.971   0.971   4.650  1.1350 -0.5664 -0.1351
19343TIP3   OH279443   0.633   1.575   0.105  0.2808  0.3922 -0.5560
19343TIP3    H179444   0.714   1.624   0.119  0.3647  0.1780 -0.2825
19343TIP3    H279445   0.566   1.628   0.148 -0.0680  1.6115 -2.5374
19344TIP3   OH279446   2.759   0.360   4.827 -0.1786 -0.0297  0.0345
19344TIP3    H179447   2.678   0.335   4.783 -0.1444 -0.9794  0.5006
19344TIP3    H279448   2.758   0.312   4.910 -0.1547  1.5958  1.0156
19345TIP3   OH279449   5.912   1.920  14.197  0.0301 -0.1951 -0.2655
19345TIP3    H179450   5.964   2.000  14.186 -0.0100 -0.0066  0.8552
19345TIP3    H279451   5.976   1.850  14.202  0.2785  0.1730  2.3898
19346TIP3   OH279452   3.349   4.670  12.803 -0.2482 -0.1073 -0.2556
19346TIP3    H179453   3.289   4.604  12.837  1.2398 -0.1789  2.3811
19346TIP3    H279454   3.295   4.724  12.745 -2.4975 -1.0616  0.8807
19347TIP3   OH279455   2.370   3.419  16.848 -0.4174 -0.1621  0.4993
19347TIP3    H179456   2.423   3.363  16.905  0.5357  1.3631  1.1598
19347TIP3    H279457   2.322   3.476  16.908 -2.9453 -1.6200 -0.0979
19348TIP3   OH279458   3.606   6.373  13.340 -0.0475  0.4982 -0.0186
19348TIP3    H179459   3.676   6.438  13.347 -1.0462  1.5251  0.5548
19348TIP3    H279460   3.527   6.419  13.370 -0.9043 -0.7485 -0.3240
19349TIP3   OH279461   2.692   4.343  12.968 -0.1443  0.1446  0.2635
19349TIP3    H179462   2.628   4.300  13.026  0.6924 -2.2856 -0.5426
19349TIP3    H279463   2.638   4.389  12.905 -1.0754  2.5127  2.6888
19350TIP3   OH279464   4.435   3.928   2.358  0.0856 -0.3192 -0.0704
19350TIP3    H179465   4.514   3.945   2.410  0.9013  1.1365 -1.7269
19350TIP3    H279466   4.457   3.851   2.306  0.9868  0.8945 -1.5539
19351TIP3   OH279467   4.660   3.007   2.707 -0.0827 -0.3039 -0.1011
19351TIP3    H179468   4.637   3.092   2.744 -3.3438 -0.4380 -1.6917
19351TIP3    H279469   4.706   3.029   2.625  0.6603 -0.0966  0.3613
19352TIP3   OH279470   2.038   0.375   0.702  0.4111 -0.3335  0.0833
19352TIP3    H179471   2.104   0.441   0.725  1.3077 -1.4051  0.6328
19352TIP3    H279472   1.954   0.417   0.720  0.9703  0.7801  0.1106
19353TIP3   OH279473   2.880   4.161   1.784 -0.1669 -0.4580 -0.4858
19353TIP3    H179474   2.787   4.144   1.771 -0.1234 -0.6940 -0.4903
19353TIP3    H279475   2.921   4.140   1.700 -0.2339  0.5806 -0.7894
19354TIP3   OH279476   4.251   0.508  13.288 -0.2486  0.7403 -0.2694
19354TIP3    H179477   4.259   0.507  13.384  0.5143  0.8621 -0.3258
19354TIP3    H279478   4.250   0.415  13.264 -0.4669  0.7091 -0.1390
19355TIP3   OH279479   5.771   0.906  15.073 -0.2688 -0.4145 -0.5604
19355TIP3    H179480   5.717   0.947  15.141  0.1067  0.5485 -0.8407
19355TIP3    H279481   5.818   0.836  15.119  0.9569  1.0421  0.4519
19356TIP3   OH279482   4.627   3.074  11.875 -0.3477 -0.2478 -0.0869
19356TIP3    H179483   4.539   3.113  11.876 -0.6719 -0.9552  0.5314
19356TIP3    H279484   4.640   3.046  11.785 -0.7690 -0.1595 -0.1769
19357TIP3   OH279485   5.449   3.858   0.942  0.0419  0.6003 -0.1814
19357TIP3    H179486   5.400   3.936   0.915  0.4886  1.4629  1.4573
19357TIP3    H279487   5.541   3.885   0.938  0.2350 -0.0656 -0.2661
19358TIP3   OH279488   2.666   6.220   0.763  0.2248 -0.3055 -0.0744
19358TIP3    H179489   2.677   6.126   0.750 -0.9359 -0.6126  1.1598
19358TIP3    H279490   2.755   6.255   0.756  0.9902 -1.7817  1.7714
19359TIP3   OH279491   4.854   4.727  16.621 -0.6289 -0.2987  0.0272
19359TIP3    H179492   4.939   4.687  16.638 -0.0751  1.0309  0.3849
19359TIP3    H279493   4.861   4.759  16.531 -1.4811 -2.0313 -0.6737
19360TIP3   OH279494   3.858   2.694  12.988  0.0080 -0.0321 -0.0772
19360TIP3    H179495   3.783   2.654  13.032 -0.1105  1.7345  1.3963
19360TIP3    H279496   3.919   2.714  13.059  1.4523 -0.5629 -1.1638
19361TIP3   OH279497   4.969   0.121  16.645  0.0707  0.3218 -0.3032
19361TIP3    H179498   5.031   0.175  16.693 -0.1874 -0.0284  0.4302
19361TIP3    H279499   5.023   0.063  16.592  0.4325 -1.6294  2.1269
19362TIP3   OH279500   3.805   5.066   5.174 -0.4173  0.1350 -0.6428
19362TIP3    H179501   3.831   5.072   5.082  0.9163  0.0483 -0.2732
19362TIP3    H279502   3.807   4.972   5.193 -1.5584  0.0807 -0.7646
19363TIP3   OH279503   3.750   6.415   2.495 -0.8831 -0.2132 -0.8796
19363TIP3    H179504   3.764   6.459   2.411  1.3837 -1.6488 -1.3114
19363TIP3    H279505   3.809   6.460   2.556 -1.1716 -0.3613 -0.4876
19364TIP3   OH279506   6.041   0.892  12.386  0.4436 -0.3024  0.2219
19364TIP3    H179507   6.104   0.836  12.430 -0.4902 -0.0239  1.9722
19364TIP3    H279508   6.049   0.977  12.429  0.6558  0.4526 -1.2626
19365TIP3   OH279509   1.702   3.378  15.048  0.3138 -0.1271 -0.3271
19365TIP3    H179510   1.741   3.296  15.078  0.7494 -0.8294 -2.7233
19365TIP3    H279511   1.723   3.441  15.117  1.2509 -1.6868  0.8421
19366TIP3   OH279512   2.211   2.880  16.788 -0.2538  0.6420 -0.4445
19366TIP3    H179513   2.300   2.913  16.785 -0.1631  0.4786  0.4445
19366TIP3    H279514   2.199   2.835  16.704 -0.6994  3.6868 -2.0672
19367TIP3   OH279515   4.501   1.395   1.558  0.0647  0.3180 -0.6227
19367TIP3    H179516   4.528   1.486   1.570  0.7951 -0.1353  1.3051
19367TIP3    H279517   4.504   1.382   1.463  2.5932  1.5079 -0.7631
19368TIP3   OH279518   6.619   5.923  13.808 -0.5671 -0.4934 -0.2930
19368TIP3    H179519   6.640   5.970  13.888  0.3342  0.1100 -0.8707
19368TIP3    H279520   6.528   5.947  13.789 -0.0083  1.3179 -0.7758
19369TIP3   OH279521   6.542   4.305   0.901  0.4929  0.0436 -0.2268
19369TIP3    H179522   6.475   4.246   0.937  2.2786 -3.4395 -2.3204
19369TIP3    H279523   6.537   4.292   0.807  2.1703  1.9367 -0.6014
19370TIP3   OH279524   2.897   3.783   3.846 -0.0966  0.2131  0.4674
19370TIP3    H179525   2.822   3.756   3.794  0.3257  1.9259 -1.0955
19370TIP3    H279526   2.973   3.768   3.789  0.6739 -0.7121  1.7106
19371TIP3   OH279527   2.452   0.755   3.524 -0.3062  0.1437  1.0181
19371TIP3    H179528   2.537   0.732   3.488  0.7317  1.7076  2.3757
19371TIP3    H279529   2.453   0.850   3.529 -3.3170  0.4122 -1.7043
19372TIP3   OH279530   3.503   5.202  13.547 -0.1663 -0.0886 -0.2287
19372TIP3    H179531   3.527   5.156  13.467  0.4103 -2.5521  1.3261
19372TIP3    H279532   3.581   5.196  13.602 -0.4977  1.7490  0.4775
19373TIP3   OH279533   5.941   4.183  16.930  0.0113 -0.0316  0.7456
19373TIP3    H179534   5.906   4.117  16.990  0.6880 -0.9543  0.1403
19373TIP3    H279535   6.036   4.171  16.934  0.0475 -0.3502 -0.7724
19374TIP3   OH279536   2.633   3.939   1.453  0.3396  0.4883  0.1098
19374TIP3    H179537   2.700   3.925   1.519  2.1345 -1.4755 -2.0252
19374TIP3    H279538   2.660   3.884   1.379 -4.0600 -1.0444 -0.5335
19375TIP3   OH279539   6.333   0.064   1.075  0.0107 -0.5873 -0.2235
19375TIP3    H179540   6.323  -0.031   1.068  2.6730 -0.7813 -2.0825
19375TIP3    H279541   6.310   0.097   0.989 -0.5584  0.4246  0.3123
19376TIP3   OH279542   1.450   0.990   6.109  0.6447 -0.4901 -0.6274
19376TIP3    H179543   1.544   1.006   6.113  0.8653 -1.9372  0.1525
19376TIP3    H279544   1.415   1.035   6.186  1.0730 -2.4559  0.7266
19377TIP3   OH279545   4.721   1.173   4.265  0.4768  0.5491  0.2445
19377TIP3    H179546   4.698   1.124   4.187  1.3344  1.1386 -0.3793
19377TIP3    H279547   4.683   1.260   4.251 -0.3099  0.3341  0.9716
19378TIP3   OH279548   6.432   6.239   5.837  0.8356 -0.0854  0.1659
19378TIP3    H179549   6.485   6.289   5.776 -1.1671 -1.3123 -2.6568
19378TIP3    H279550   6.480   6.157   5.849  1.3492  0.2536  0.4159
19379TIP3   OH279551   1.488   2.678   5.584  0.4138  0.0814  0.1515
19379TIP3    H179552   1.467   2.731   5.661 -3.2167 -1.1028  0.0574
19379TIP3    H279553   1.471   2.736   5.510 -1.7226 -0.5226  0.1174
19380TIP3   OH279554   0.474   1.361  12.267  0.5594 -0.6942  0.2276
19380TIP3    H179555   0.413   1.314  12.324  1.3773 -1.4254  0.5149
19380TIP3    H279556   0.561   1.328  12.292  1.1690  1.0667  0.5238
19381TIP3   OH279557   6.255   1.328   3.213 -0.2751 -0.3752  0.3671
19381TIP3    H179558   6.269   1.341   3.119 -0.4725 -1.1218  0.2344
19381TIP3    H279559   6.197   1.400   3.239  0.2400  0.1565  0.0304
19382TIP3   OH279560   2.641   1.066   0.957 -0.3975  0.2980 -0.3086
19382TIP3    H179561   2.621   1.010   0.882 -0.6987  1.5798 -1.2034
19382TIP3    H279562   2.611   1.016   1.033 -2.9745  0.2843 -1.2886
19383TIP3   OH279563   1.391   5.559  12.387 -0.2916 -0.5789  0.1174
19383TIP3    H179564   1.442   5.517  12.457  0.7649 -1.5097 -1.1984
19383TIP3    H279565   1.325   5.611  12.434  0.6087 -0.9249  1.8170
19384TIP3   OH279566   1.004   2.027   1.698  0.2193 -0.0754  0.8994
19384TIP3    H179567   1.070   2.037   1.629 -0.3006 -0.4852  0.3383
19384TIP3    H279568   0.924   2.002   1.652  0.1063 -1.3275  1.7330
19385TIP3   OH279569   3.219   0.099   2.294 -0.2468 -0.0481  0.2978
19385TIP3    H179570   3.308   0.101   2.258 -0.3124 -1.4146  0.0519
19385TIP3    H279571   3.229   0.130   2.384  0.6166 -1.0448  0.5495
19386TIP3   OH279572   1.440   6.473  16.819 -0.0700 -0.5121  0.3660
19386TIP3    H179573   1.418   6.397  16.765  3.6778 -1.7964  0.5408
19386TIP3    H279574   1.386   6.462  16.898 -2.7849 -0.6137 -1.4306
19387TIP3   OH279575   1.309   1.971   2.148 -0.1220  0.2662  0.1803
19387TIP3    H179576   1.297   1.914   2.224 -0.6296 -0.5498 -0.5163
19387TIP3    H279577   1.220   1.987   2.116  0.0914  0.6530 -0.2252
19388TIP3   OH279578   3.033   4.881   1.711 -0.8806 -0.6336 -0.5356
19388TIP3    H179579   2.983   4.962   1.717  0.2758  0.0028  0.9091
19388TIP3    H279580   2.984   4.827   1.649 -2.1428  0.8173 -0.8352
19389TIP3   OH279581   4.903   6.446   2.068  0.5405 -0.1433 -0.4704
19389TIP3    H179582   4.852   6.404   2.000 -0.6794 -0.5226  0.6616
19389TIP3    H279583   4.840   6.468   2.136  1.6024  0.9695  0.1919
19390TIP3   OH279584   4.853   6.143   3.111  0.1896  0.0207 -0.2557
19390TIP3    H179585   4.773   6.103   3.146  0.6596 -1.6035 -0.9720
19390TIP3    H279586   4.826   6.183   3.029 -0.0403  0.0872 -0.1466
19391TIP3   OH279587   5.000   1.696   1.100  0.0762  0.4165 -0.1437
19391TIP3    H179588   5.079   1.750   1.097 -0.7107  1.4960 -4.4461
19391TIP3    H279589   5.006   1.639   1.024 -3.1195  0.3121 -0.4137
19392TIP3   OH279590   6.214   2.374   3.247 -0.6631 -0.1024 -0.3146
19392TIP3    H179591   6.286   2.310   3.250 -1.1862 -0.6980 -0.1759
19392TIP3    H279592   6.135   2.320   3.244 -1.1757  0.5223  1.2244
19393TIP3   OH279593   3.795   0.646   6.755  0.5247  0.7124  0.1588
19393TIP3    H179594   3.837   0.722   6.794  1.2952  0.7599 -0.7683
19393TIP3    H279595   3.749   0.604   6.828 -1.1870  2.9102  0.3982
19394TIP3   OH279596   4.249   4.899   5.801  0.3177  0.0861  0.0364
19394TIP3    H179597   4.224   4.919   5.891  0.5734  0.0042  0.1273
19394TIP3    H279598   4.342   4.875   5.807 -0.2565 -2.1963  0.1106
19395TIP3   OH279599   2.998   2.700   5.981 -0.0156  0.4536  0.4230
19395TIP3    H179600   3.029   2.742   5.901 -1.1036  0.1981 -0.1417
19395TIP3    H279601   2.904   2.718   5.983 -0.4730 -1.8255  0.2498
19396TIP3   OH279602   6.493   6.192  10.944 -0.5175 -0.5201  0.1676
19396TIP3    H179603   6.523   6.210  10.855 -2.3630  1.8618 -0.0422
19396TIP3    H279604   6.461   6.102  10.941  1.4049 -1.1935 -1.0017
19397TIP3   OH279605   1.614   1.014   1.870  0.2495  0.4986  0.0940
19397TIP3    H179606   1.633   0.961   1.948  0.0583  1.1603  0.5922
19397TIP3    H279607   1.698   1.024   1.827  0.1926 -0.7336 -0.3418
19398TIP3   OH279608   1.004   0.890  16.613 -0.2758  0.5474  0.1323
19398TIP3    H179609   0.981   0.948  16.540  0.3044  1.5090  0.7069
19398TIP3    H279610   0.963   0.807  16.590 -0.1454  0.8468 -1.2748
19399TIP3   OH279611   6.783   2.146   0.596 -0.1644 -0.4308 -0.5870
19399TIP3    H179612   6.863   2.105   0.628 -0.8439 -0.9881  0.4035
19399TIP3    H279613   6.752   2.088   0.527  1.6230  1.0765 -2.7564
19400TIP3   OH279614   1.990   5.690   2.719  0.4802 -0.0935 -0.2869
19400TIP3    H179615   1.915   5.634   2.698  0.8734 -0.1679 -1.5224
19400TIP3    H279616   1.961   5.742   2.794 -0.4916 -0.7539 -0.2013
19401TIP3   OH279617   0.499   2.926  15.800  0.5273  0.0901 -0.3043
19401TIP3    H179618   0.569   2.867  15.830 -0.0645 -0.3586  0.2161
19401TIP3    H279619   0.512   3.006  15.850  0.2490 -0.2422  0.3045
19402TIP3   OH279620   3.874   6.220   1.160  0.5861  0.5923  0.5524
19402TIP3    H179621   3.897   6.313   1.165  1.7335  0.3386 -0.0408
19402TIP3    H279622   3.949   6.178   1.119 -0.7253 -0.3109 -1.0184
19403TIP3   OH279623   0.398   1.790   0.586 -0.5371 -0.0879 -0.4315
19403TIP3    H179624   0.420   1.723   0.521 -0.8559 -0.7839  0.1705
19403TIP3    H279625   0.436   1.871   0.551  0.9348 -0.8172 -0.5520
19404TIP3   OH279626   5.832   4.113   3.065 -0.4858 -0.5259  0.0590
19404TIP3    H179627   5.851   4.030   3.022 -0.3925 -0.3792 -0.1832
19404TIP3    H279628   5.843   4.095   3.159 -0.9781 -0.9257  0.0464
19405TIP3   OH279629   2.941   1.156   0.252 -0.1887 -0.3022  0.4156
19405TIP3    H179630   2.871   1.220   0.261 -1.2189 -1.0450 -1.9580
19405TIP3    H279631   2.984   1.179   0.169 -0.6695 -2.7179 -0.5445
19406TIP3   OH279632   4.462   1.615   0.527 -0.1366  0.5453 -0.0782
19406TIP3    H179633   4.371   1.604   0.556  0.4250 -0.5756  1.3171
19406TIP3    H279634   4.469   1.708   0.508 -1.9684  0.4209 -1.5724
19407TIP3   OH279635   1.213   0.791   5.305 -0.0113  0.4588  0.4649
19407TIP3    H179636   1.196   0.885   5.303 -0.0254  0.4444 -1.8692
19407TIP3    H279637   1.306   0.782   5.285 -0.6884 -0.1144 -2.7434
19408TIP3   OH279638   1.314   6.276  13.841 -0.0121 -0.3680 -0.4255
19408TIP3    H179639   1.220   6.291  13.843  0.1618  0.6247  1.1912
19408TIP3    H279640   1.346   6.331  13.770 -0.5472 -0.0438 -0.4164
19409TIP3   OH279641   0.868   1.118  15.551  0.4905  0.0157 -0.5331
19409TIP3    H179642   0.931   1.079  15.612 -0.9884 -1.4897  0.0722
19409TIP3    H279643   0.800   1.052  15.542 -1.2528  1.8048 -0.8085
19410TIP3   OH279644   3.961   1.427  14.190  0.0269 -0.1022  0.3259
19410TIP3    H179645   3.892   1.396  14.249 -2.8185 -1.6525 -3.5978
19410TIP3    H279646   3.914   1.458  14.112  3.5447  3.1795 -0.6675
19411TIP3   OH279647   0.356   5.818   2.349 -0.5892 -0.4636  0.2870
19411TIP3    H179648   0.288   5.856   2.405 -0.2490  1.3199 -0.4656
19411TIP3    H279649   0.313   5.745   2.306 -2.0336  0.6074 -0.1227
19412TIP3   OH279650   6.233   6.400   1.946  0.1902 -0.5993  0.2664
19412TIP3    H179651   6.266   6.381   1.858 -0.3495 -2.6185  0.4802
19412TIP3    H279652   6.262   6.490   1.964  4.0439 -1.6674 -0.2337
19413TIP3   OH279653   1.103   0.429  13.405 -0.5799 -0.4550  0.0491
19413TIP3    H179654   1.027   0.371  13.409 -2.2252  1.6631  1.0688
19413TIP3    H279655   1.104   0.472  13.491  0.9909  0.4954 -0.4309
19414TIP3   OH279656   0.819   6.628   5.040 -0.0333 -0.4366  0.1743
19414TIP3    H179657   0.768   6.615   4.960 -0.9087 -1.7301  0.9161
19414TIP3    H279658   0.880   6.554   5.043 -1.9224 -1.9923  2.0922
19415TIP3   OH279659   2.021   6.050  12.744  0.3065  0.0009  0.5020
19415TIP3    H179660   2.041   6.079  12.833  0.0910 -0.4298  0.6882
19415TIP3    H279661   2.073   5.970  12.732  2.2327  1.3761 -0.6084
19416TIP3   OH279662   2.146   1.394  12.640 -0.0401 -0.3728 -0.1367
19416TIP3    H179663   2.102   1.324  12.687 -0.7627 -0.0351 -0.3115
19416TIP3    H279664   2.130   1.376  12.548 -0.0539 -0.0956 -0.1892
19417TIP3   OH279665   1.191   1.306  16.850  0.3006  0.5067  0.2157
19417TIP3    H179666   1.215   1.299  16.757  2.4635  1.2110  0.6881
19417TIP3    H279667   1.117   1.246  16.860 -0.4882  1.0361 -2.1281
19418TIP3   OH279668   4.855   0.275  13.816 -0.1594  0.3469 -0.0209
19418TIP3    H179669   4.869   0.348  13.876  0.5008 -1.4508  2.0654
19418TIP3    H279670   4.873   0.312  13.730  1.0307  2.4148  1.0618
19419TIP3   OH279671   5.122   2.926  14.242 -0.1563 -1.2223  0.1513
19419TIP3    H179672   5.182   2.945  14.170  0.0305 -1.7974  0.1532
19419TIP3    H279673   5.172   2.945  14.321  0.3564 -2.6375  0.1777
19420TIP3   OH279674   6.500   6.404  15.540  0.3161 -0.3279 -0.0985
19420TIP3    H179675   6.534   6.487  15.571  0.3703 -0.7976  1.1161
19420TIP3    H279676   6.412   6.424  15.508  1.0172  0.5387 -1.5730
19421TIP3   OH279677   5.720   1.105  15.755  0.3804  0.0987  0.2176
19421TIP3    H179678   5.641   1.158  15.741  1.3922  0.8182 -3.5486
19421TIP3    H279679   5.788   1.169  15.777  0.2702 -0.3560  1.9269
19422TIP3   OH279680   5.278   4.968   3.270 -0.1862 -0.1560  0.4360
19422TIP3    H179681   5.248   4.941   3.183 -1.1684  0.3129  0.6250
19422TIP3    H279682   5.252   5.060   3.277 -1.4800 -0.6048  1.8196
19423TIP3   OH279683   5.878   6.152   0.866  0.6607 -0.5803 -0.7380
19423TIP3    H179684   5.917   6.209   0.932  0.8593  1.2310 -2.3966
19423TIP3    H279685   5.791   6.190   0.851  0.3788 -1.3526 -1.0683
19424TIP3   OH279686   5.215   3.425  12.637 -0.3176  0.1962 -0.7022
19424TIP3    H179687   5.178   3.429  12.548 -1.1236 -0.9550 -0.4382
19424TIP3    H279688   5.301   3.386  12.625  0.8608  2.9288 -1.3320
19425TIP3   OH279689   4.241   4.272  14.554 -0.3546 -0.2242 -0.3767
19425TIP3    H179690   4.333   4.296  14.565 -1.0350  1.5910  1.5653
19425TIP3    H279691   4.193   4.352  14.572 -2.3875 -1.4307 -0.3087
19426TIP3   OH279692   2.430   0.714  15.653  0.0699  0.6803  0.3250
19426TIP3    H179693   2.494   0.741  15.718 -1.6703  2.1193  1.4797
19426TIP3    H279694   2.379   0.645  15.696 -2.1022  2.7094  1.1438
19427TIP3   OH279695   2.834   0.235  14.791  0.1323 -0.2834 -0.7147
19427TIP3    H179696   2.919   0.275  14.768 -0.2012 -0.3131 -2.0301
19427TIP3    H279697   2.848   0.141  14.779  0.5454 -0.4784  1.1719
19428TIP3   OH279698   6.218   5.521   0.969  0.4366 -0.1911  0.1373
19428TIP3    H179699   6.289   5.464   1.000 -2.0547 -2.2091  2.3106
19428TIP3    H279700   6.140   5.466   0.972 -1.4234  2.2868 -1.2845
19429TIP3   OH279701   3.602   3.690   1.165  0.5104 -0.1883  0.2165
19429TIP3    H179702   3.675   3.736   1.207  1.1300  0.2405 -1.3124
19429TIP3    H279703   3.525   3.719   1.214  1.2055  0.4560  0.9371
19430TIP3   OH279704   6.084   3.215  15.630 -0.7286  0.2548  0.0461
19430TIP3    H179705   6.167   3.217  15.582 -0.9072  0.3469 -0.2616
19430TIP3    H279706   6.059   3.122  15.630  0.2878 -0.0336  1.7239
19431TIP3   OH279707   3.804   3.594  11.809  0.5286  0.5306 -0.1610
19431TIP3    H179708   3.779   3.686  11.810  1.2177  0.7223 -0.5836
19431TIP3    H279709   3.883   3.590  11.863 -0.6931 -0.1675  1.6376
19432TIP3   OH279710   2.906   0.552  11.008  0.3340 -0.1568 -0.0829
19432TIP3    H179711   3.001   0.545  11.012  0.3044 -1.1829 -0.9440
19432TIP3    H279712   2.876   0.465  10.980 -0.8448  0.1737  0.1022
19433TIP3   OH279713   2.556   2.388   5.989 -0.0366 -0.4413  0.1281
19433TIP3    H179714   2.504   2.317   6.029  2.6275 -1.9918  0.9611
19433TIP3    H279715   2.571   2.450   6.060 -0.5610 -0.1032 -0.0562
19434TIP3   OH279716   3.631   0.862   6.000  0.2431 -0.6753  0.4342
19434TIP3    H179717   3.661   0.950   5.981  0.7418 -0.9356  0.0138
19434TIP3    H279718   3.705   0.819   6.042 -0.9533 -0.0005  3.3864
19435TIP3   OH279719   0.867   0.753  15.981 -0.0184  0.1328 -0.2213
19435TIP3    H179720   0.915   0.829  16.013 -0.6882  1.1070 -1.4721
19435TIP3    H279721   0.934   0.686  15.966  0.7309  0.9169 -0.3601
19436TIP3   OH279722   5.924   3.170   0.721 -0.0829  0.5549 -1.0316
19436TIP3    H179723   5.879   3.145   0.641 -1.1147 -0.2729 -0.2198
19436TIP3    H279724   5.878   3.121   0.790  1.2684  0.6580 -0.0390
19437TIP3   OH279725   3.265   3.045  15.832  0.0348 -0.1130  0.5240
19437TIP3    H179726   3.356   3.063  15.808 -0.0347  1.2913  1.2684
19437TIP3    H279727   3.270   3.011  15.921 -0.1918  0.2644  0.6807
19438TIP3   OH279728   2.543   3.713   0.666 -0.2591  0.1962  0.0352
19438TIP3    H179729   2.492   3.674   0.595 -0.1985 -0.7872  0.5207
19438TIP3    H279730   2.481   3.723   0.738  0.2632 -1.1815  0.6889
19439TIP3   OH279731   4.726   4.396   2.001 -0.2925 -0.3994  0.1886
19439TIP3    H179732   4.719   4.302   1.982  0.6789 -0.8233  1.7496
19439TIP3    H279733   4.638   4.423   2.026 -0.8766 -0.5645 -1.6397
19440TIP3   OH279734   2.475   5.615  16.162  0.0172  0.3636  0.6275
19440TIP3    H179735   2.477   5.700  16.118 -0.5892  0.2885  0.4455
19440TIP3    H279736   2.470   5.635  16.255  1.3670  0.5255  0.6752
19441TIP3   OH279737   3.559   5.095  10.449 -0.4523 -0.4052  0.3277
19441TIP3    H179738   3.566   5.180  10.493  1.4941 -0.2875 -0.1372
19441TIP3    H279739   3.467   5.087  10.425 -0.8579  1.0951  1.3116
19442TIP3   OH279740   1.129   1.933  12.555  0.3129 -0.2813 -0.4571
19442TIP3    H179741   1.051   1.941  12.500 -0.5949  0.4788  0.9105
19442TIP3    H279742   1.116   1.998  12.624  2.1336 -0.1989 -0.1790
19443TIP3   OH279743   4.162   1.854   4.546  0.2691 -0.7052  0.2988
19443TIP3    H179744   4.209   1.813   4.473 -0.0168 -2.1922  0.9215
19443TIP3    H279745   4.209   1.825   4.624  0.3191  0.5318  0.7371
19444TIP3   OH279746   0.227   5.045   4.747  0.3234  0.6091  0.5485
19444TIP3    H179747   0.299   5.097   4.711  0.6689  0.1582  0.5751
19444TIP3    H279748   0.217   5.076   4.837 -1.2074  2.4308 -0.2487
19445TIP3   OH279749   6.748   6.302   4.520 -0.5623  0.7551  0.0535
19445TIP3    H179750   6.680   6.299   4.588  0.2234  0.6642  0.8475
19445TIP3    H279751   6.804   6.375   4.546  0.7833 -0.4286  0.5164
19446TIP3   OH279752   5.767   1.671   6.230  0.4218 -0.3072  0.1096
19446TIP3    H179753   5.684   1.716   6.248 -0.3601 -1.6948  0.0416
19446TIP3    H279754   5.745   1.606   6.164  0.8920 -2.7526  2.3015
19447TIP3   OH279755   0.678   4.398  16.891 -0.2033 -0.2758  0.1825
19447TIP3    H179756   0.612   4.454  16.932  0.7084  0.0157  1.2700
19447TIP3    H279757   0.629   4.348  16.825 -1.0457  1.7381 -0.7725
19448TIP3   OH279758   3.800   3.517   1.425 -0.6069 -0.9400 -0.3027
19448TIP3    H179759   3.841   3.498   1.341 -1.7212  0.1235 -1.1047
19448TIP3    H279760   3.873   3.529   1.486  0.1952 -2.0062 -1.0440
19449TIP3   OH279761   5.906   2.868  10.484  0.2188 -0.3852 -0.2315
19449TIP3    H179762   5.836   2.873  10.419  0.1671 -1.6864 -0.2908
19449TIP3    H279763   5.861   2.857  10.568  0.3199 -0.0218 -0.1301
19450TIP3   OH279764   5.655   0.248   0.424 -0.0625  0.2288  0.7237
19450TIP3    H179765   5.602   0.294   0.360 -1.1099 -0.3574  1.1494
19450TIP3    H279766   5.639   0.295   0.506  1.6665  1.2891  0.4757
19451TIP3   OH279767   0.718   3.860  11.142  0.0119  0.0599  0.0308
19451TIP3    H179768   0.790   3.804  11.116  0.2600  0.6035 -0.4583
19451TIP3    H279769   0.666   3.871  11.063  0.0236  0.6048  0.0965
19452TIP3   OH279770   6.753   6.257   0.591 -0.3773  0.4748 -0.5748
19452TIP3    H179771   6.835   6.283   0.548  0.3782 -1.2285 -0.1969
19452TIP3    H279772   6.701   6.337   0.594  0.8281  1.3232 -1.8261
19453TIP3   OH279773   0.935   2.301   2.401 -0.2604  0.5102  0.0205
19453TIP3    H179774   0.993   2.354   2.346  1.1274 -1.0417 -0.0423
19453TIP3    H279775   0.974   2.213   2.399 -1.5540 -0.1133  1.5331
19454TIP3   OH279776   1.256   5.958   5.082 -0.2574  0.3876 -0.3602
19454TIP3    H179777   1.173   5.994   5.051 -0.1064 -0.1551 -1.3989
19454TIP3    H279778   1.239   5.865   5.095 -0.1656  0.5040  0.6756
19455TIP3   OH279779   2.577   4.813  15.630  0.2428  0.5143 -0.0614
19455TIP3    H179780   2.592   4.897  15.673 -1.1235 -0.2522  1.9830
19455TIP3    H279781   2.665   4.776  15.621  0.8041  1.8992 -0.4487
19456TIP3   OH279782   1.782   3.903  13.904 -0.4985  0.3063  0.0294
19456TIP3    H179783   1.763   3.978  13.848  0.7906 -0.8721 -2.0342
19456TIP3    H279784   1.865   3.925  13.946 -0.0121 -0.0429 -0.7394
19457TIP3   OH279785   1.216   6.742  16.167 -0.0125 -0.1434 -0.0076
19457TIP3    H179786   1.217   6.795  16.247 -1.8049  0.2701 -0.2416
19457TIP3    H279787   1.224   6.652  16.198  0.6664  0.1006  0.5464
19458TIP3   OH279788   0.366   1.577  14.697  0.4087 -0.2033  0.0767
19458TIP3    H179789   0.389   1.666  14.724 -2.0817  0.9092 -1.2870
19458TIP3    H279790   0.443   1.545  14.650 -0.0795  2.7117 -2.8417
19459TIP3   OH279791   0.489   3.436   4.934 -0.1459  0.2296 -0.0709
19459TIP3    H179792   0.438   3.370   4.983  1.2707  0.0542  1.2009
19459TIP3    H279793   0.548   3.385   4.879  0.3973  0.4336  0.3203
19460TIP3   OH279794   1.070   6.274   3.150  0.2363 -0.4755 -0.0121
19460TIP3    H179795   1.022   6.305   3.226 -0.3068  0.0445 -0.5650
19460TIP3    H279796   1.003   6.235   3.094  0.2678  1.3264 -1.3360
19461TIP3   OH279797   0.279   2.701  15.951 -0.3742  0.2405 -0.3514
19461TIP3    H179798   0.263   2.635  16.018 -0.7349  0.9549  0.2537
19461TIP3    H279799   0.213   2.768  15.965 -0.1505  0.6341 -1.1164
19462TIP3   OH279800   3.339   5.459   3.921 -0.9087 -0.3684 -0.0328
19462TIP3    H179801   3.288   5.538   3.935  1.0797  0.5805  2.0759
19462TIP3    H279802   3.305   5.396   3.985 -0.7795 -0.4055 -0.0006
19463TIP3   OH279803   0.728   0.695   3.520 -0.6273  0.0695 -0.1190
19463TIP3    H179804   0.739   0.759   3.590  0.4768 -0.0804 -0.1544
19463TIP3    H279805   0.635   0.701   3.496 -0.7391  0.9623  0.5367
19464TIP3   OH279806   0.074   4.796  14.234  0.4260 -0.1780 -0.1466
19464TIP3    H179807   0.022   4.726  14.194 -0.8204  0.3338  0.5537
19464TIP3    H279808   0.087   4.859  14.164  1.8341 -1.2468 -0.8801
19465TIP3   OH279809   1.892   4.652   4.027  0.4686  0.4326 -0.3665
19465TIP3    H179810   1.865   4.604   4.106 -0.5922  1.0533 -0.3387
19465TIP3    H279811   1.838   4.615   3.957  0.4672  0.7962 -0.5555
19466TIP3   OH279812   1.264   4.981  12.816  0.4797 -0.2764  0.1287
19466TIP3    H179813   1.359   4.989  12.825  0.4966  0.6370 -0.6956
19466TIP3    H279814   1.241   5.048  12.752 -0.4845 -1.6811 -1.0349
19467TIP3   OH279815   0.502   2.595   5.265 -0.1371  0.6219  0.0792
19467TIP3    H179816   0.463   2.508   5.271  0.3149  0.3921 -0.3270
19467TIP3    H279817   0.428   2.655   5.278 -0.4340  0.1842  0.4547
19468TIP3   OH279818   5.395   6.445   4.682  0.0636 -0.1593  0.0197
19468TIP3    H179819   5.468   6.450   4.620 -1.2329  1.7067 -1.4327
19468TIP3    H279820   5.351   6.362   4.660  1.1619 -0.8286  0.2797
19469TIP3   OH279821   1.421   0.486   3.769  0.0580  0.1773 -0.5519
19469TIP3    H179822   1.349   0.429   3.742  0.7620 -0.6351 -0.7162
19469TIP3    H279823   1.477   0.430   3.823  0.8358  0.6790 -0.8380
19470TIP3   OH279824   1.303   3.703   1.894 -0.6613  0.1254  0.1967
19470TIP3    H179825   1.392   3.726   1.920 -0.2803 -0.7100 -0.3254
19470TIP3    H279826   1.251   3.781   1.914  0.0148  0.2986  1.3547
19471TIP3   OH279827   1.145   4.887   3.621 -0.2441  0.1510  0.4274
19471TIP3    H179828   1.167   4.857   3.710 -0.8446  0.0947  0.5590
19471TIP3    H279829   1.219   4.859   3.567 -1.0274 -2.0232  0.4606
19472TIP3   OH279830   3.689   4.200   5.168  0.1157 -0.0964  0.1534
19472TIP3    H179831   3.682   4.116   5.123  1.8236  0.7912 -1.8620
19472TIP3    H279832   3.641   4.261   5.113 -1.7403  0.1565  1.9915
19473TIP3   OH279833   2.177   1.979   4.071  0.1769 -0.4795  0.3080
19473TIP3    H179834   2.245   1.912   4.065  0.3342 -0.2705 -0.2410
19473TIP3    H279835   2.120   1.963   3.996  1.2285  1.1119 -0.8712
19474TIP3   OH279836   2.200   0.127   4.911  0.1542  0.3594 -0.4776
19474TIP3    H179837   2.210   0.131   5.007 -0.3877 -0.8347 -0.3554
19474TIP3    H279838   2.150   0.047   4.896 -1.1558  1.3812 -1.6732
19475TIP3   OH279839   5.387   6.123  12.869  0.1561  0.0770  0.3171
19475TIP3    H179840   5.448   6.051  12.877  0.9613  0.7435  0.2306
19475TIP3    H279841   5.428   6.196  12.915 -1.5153 -0.0419  2.0541
19476TIP3   OH279842   6.661   1.740   3.738 -0.0251  0.2565  0.0478
19476TIP3    H179843   6.610   1.675   3.787 -0.1243  0.1659 -0.1776
19476TIP3    H279844   6.737   1.691   3.705 -0.3619  0.1402 -0.5528
19477TIP3   OH279845   4.115   6.097  15.189  0.7034  0.7242  0.4306
19477TIP3    H179846   4.166   6.023  15.220  2.1886  2.0779  1.3030
19477TIP3    H279847   4.157   6.173  15.228 -2.4287  1.8657  1.7543
19478TIP3   OH279848   3.082   0.205  13.717 -0.3129  0.0370 -0.0175
19478TIP3    H179849   3.149   0.272  13.726 -0.5976  0.2790  0.3243
19478TIP3    H279850   3.083   0.182  13.624  2.2210 -2.0325  0.4681
19479TIP3   OH279851   2.777   3.621  17.118 -0.1552 -0.3208  0.0657
19479TIP3    H179852   2.813   3.576  17.196  1.4042 -0.9547 -0.9788
19479TIP3    H279853   2.749   3.706  17.151  2.3752  0.2299  0.9897
19480TIP3   OH279854   6.091   3.602  15.242 -0.5219  0.4094  0.2357
19480TIP3    H179855   6.011   3.595  15.190  0.0596 -0.6406 -0.5495
19480TIP3    H279856   6.136   3.678  15.205  0.6497 -1.2795 -1.9249
19481TIP3   OH279857   3.497   2.253  13.740 -0.3666  0.2353 -0.0458
19481TIP3    H179858   3.480   2.159  13.741 -0.2604  0.1956 -1.2241
19481TIP3    H279859   3.551   2.269  13.817  2.1889 -1.1937 -1.4584
19482TIP3   OH279860   3.686   1.335   0.341  0.1714 -0.8083 -0.4866
19482TIP3    H179861   3.615   1.356   0.281 -1.3187 -0.0301  1.4828
19482TIP3    H279862   3.656   1.257   0.388  0.6160 -0.4954  0.3373
19483TIP3   OH279863   4.584   3.764   3.763 -0.0972  0.0168 -0.2989
19483TIP3    H179864   4.592   3.713   3.682  2.3178 -2.2667  1.2659
19483TIP3    H279865   4.492   3.757   3.787 -0.1622 -2.2752 -1.0478
19484TIP3   OH279866   0.462   1.554  12.985  0.1244  0.3436 -0.1053
19484TIP3    H179867   0.541   1.501  12.978 -0.5195 -0.5794 -0.5274
19484TIP3    H279868   0.493   1.645  12.985  1.1858 -0.0195 -0.0855
19485TIP3   OH279869   1.461   3.192  16.947 -0.2596 -0.1964  0.1641
19485TIP3    H179870   1.466   3.235  16.861  0.4019  1.4327  0.9813
19485TIP3    H279871   1.540   3.139  16.952 -1.1310 -1.6187 -0.9026
19486TIP3   OH279872   2.406   4.103   3.615 -0.4200  0.0459 -0.6037
19486TIP3    H179873   2.395   4.184   3.565 -0.5061 -0.0271 -0.7042
19486TIP3    H279874   2.346   4.114   3.689  0.3045  0.5012 -0.0819
19487TIP3   OH279875   4.078   2.926  12.505 -0.3576  0.4480  0.4467
19487TIP3    H179876   4.009   2.958  12.564 -1.9031  0.0885 -1.1064
19487TIP3    H279877   4.031   2.902  12.425  1.4945 -0.5445 -0.3701
19488TIP3   OH279878   4.529   5.502  14.394 -0.7016  0.2035 -0.4767
19488TIP3    H179879   4.594   5.494  14.464 -0.4348  0.6352 -0.6718
19488TIP3    H279880   4.491   5.589  14.406 -1.3242 -0.0884 -0.2958
19489TIP3   OH279881   5.899   4.803  13.233  0.1455  0.0154 -0.3525
19489TIP3    H179882   5.909   4.798  13.138 -0.1458  0.4338 -0.4072
19489TIP3    H279883   5.853   4.723  13.257 -1.6371  0.8745 -0.8205
19490TIP3   OH279884   4.384   1.408   3.625 -0.2039 -0.0743  0.3850
19490TIP3    H179885   4.430   1.400   3.709 -1.6618 -0.2086  1.1841
19490TIP3    H279886   4.307   1.461   3.645 -0.8987 -0.6507 -0.7402
19491TIP3   OH279887   5.508   2.497   0.314  0.5877 -0.0181 -0.1106
19491TIP3    H179888   5.583   2.457   0.357 -1.0176 -0.6765  2.2227
19491TIP3    H279889   5.432   2.462   0.362 -1.2926 -0.5351 -3.3212
19492TIP3   OH279890   5.109   0.482   5.526 -1.0286  0.4691 -0.4448
19492TIP3    H179891   5.195   0.503   5.489 -0.8460 -0.0840 -0.3435
19492TIP3    H279892   5.047   0.516   5.461 -0.7411  1.0082 -0.4466
19493TIP3   OH279893   5.147   2.405  12.073  0.3241  0.1975 -0.0231
19493TIP3    H179894   5.202   2.481  12.057  1.3477 -0.1761  1.5364
19493TIP3    H279895   5.091   2.430  12.146 -0.8524  0.1993 -0.9093
19494TIP3   OH279896   6.619   0.543  12.852  0.9678 -0.2168 -0.3765
19494TIP3    H179897   6.614   0.447  12.852  1.1289 -0.2776  2.1747
19494TIP3    H279898   6.712   0.562  12.845  0.9339 -0.2499 -0.9120
19495TIP3   OH279899   5.095   5.677   5.778  0.1461  0.2155  0.6588
19495TIP3    H179900   5.049   5.700   5.859 -1.3828  1.4548 -0.5271
19495TIP3    H279901   5.033   5.620   5.731  0.2603  0.9785 -0.4487
19496TIP3   OH279902   1.182   1.699  14.762 -0.3779  0.4790  0.5650
19496TIP3    H179903   1.274   1.673  14.756 -0.0588  1.6194  0.3454
19496TIP3    H279904   1.148   1.688  14.673 -0.3982  0.2622  0.6002
19497TIP3   OH279905   3.308   3.609  17.155 -0.0433 -0.0226  0.4316
19497TIP3    H179906   3.253   3.627  17.232 -0.4330 -1.0610  0.4022
19497TIP3    H279907   3.313   3.513  17.151  0.2578  0.0333 -0.6401
19498TIP3   OH279908   1.791   5.457   0.483 -0.2916 -0.1036  0.9185
19498TIP3    H179909   1.798   5.540   0.435  0.2591 -0.3245  0.6190
19498TIP3    H279910   1.697   5.449   0.501 -0.6668 -0.5820 -1.1288
19499TIP3   OH279911   0.976   1.801  15.126 -0.0644  0.0590  0.0406
19499TIP3    H179912   1.004   1.850  15.048  1.2614 -3.1901 -1.6369
19499TIP3    H279913   1.057   1.776  15.169 -0.7351 -0.4377  1.0378
19500TIP3   OH279914   5.261   0.606  15.541 -0.5040 -0.3968 -0.1406
19500TIP3    H179915   5.344   0.563  15.565  0.7735  2.2423  0.3779
19500TIP3    H279916   5.240   0.660  15.617 -1.7156  0.4113 -1.0403
19501TIP3   OH279917   6.416   5.690  17.079  0.4402 -0.8941 -0.5756
19501TIP3    H179918   6.387   5.642  17.002 -1.8368 -1.9133  0.8618
19501TIP3    H279919   6.352   5.760  17.089  2.0922  0.7222 -0.9680
19502TIP3   OH279920   5.135   0.572  14.995 -0.0351 -0.4844 -0.0853
19502TIP3    H179921   5.045   0.559  15.023  0.1417 -0.6243  0.4305
19502TIP3    H279922   5.130   0.586  14.901 -0.8421  2.0150  0.2822
19503TIP3   OH279923   5.446   1.289   1.751  0.3898  0.1415  0.1353
19503TIP3    H179924   5.369   1.346   1.748 -0.5087 -1.1472 -2.7327
19503TIP3    H279925   5.413   1.208   1.790  0.8088  0.3150  0.8532
19504TIP3   OH279926   3.301   6.243   1.763 -0.5330  0.4329  0.1224
19504TIP3    H179927   3.343   6.263   1.679 -2.2275 -0.8615 -1.0653
19504TIP3    H279928   3.362   6.181   1.805  1.2567  2.5373  0.7426
19505TIP3   OH279929   0.526   6.516  12.509  0.0971  0.4161  0.3623
19505TIP3    H179930   0.440   6.478  12.489 -0.2248  0.8362  0.9236
19505TIP3    H279931   0.551   6.476  12.592  0.8034 -0.2867 -0.1756
19506TIP3   OH279932   3.355   2.338  15.964 -0.2544  0.0562 -0.0444
19506TIP3    H179933   3.344   2.250  15.929 -1.8778  0.6777 -1.1800
19506TIP3    H279934   3.368   2.394  15.887 -1.5639  1.1099  0.4689
19507TIP3   OH279935   2.434   2.252   6.558  1.0764 -0.1616 -0.1310
19507TIP3    H179936   2.523   2.278   6.535  1.5668 -0.9049  0.9134
19507TIP3    H279937   2.414   2.179   6.498  1.2687 -0.1695 -0.1856
19508TIP3   OH279938   3.715   2.550   3.206 -0.2351  0.3173  0.5187
19508TIP3    H179939   3.698   2.578   3.296 -0.1712  0.3266  0.5277
19508TIP3    H279940   3.795   2.597   3.181 -0.1526  0.1758  0.5188
19509TIP3   OH279941   3.325   5.134  16.874  0.1020  0.1541 -0.1215
19509TIP3    H179942   3.391   5.073  16.907  1.1699  0.7395 -1.1452
19509TIP3    H279943   3.241   5.091  16.892  0.7605 -0.6907  0.9991
19510TIP3   OH279944   2.230   3.619  15.074  0.6784 -0.4485 -0.2310
19510TIP3    H179945   2.223   3.569  15.156 -1.0618  1.7223  1.0059
19510TIP3    H279946   2.186   3.563  15.009 -2.0657 -0.2114  1.3244
19511TIP3   OH279947   2.111   4.145  11.595  0.3334 -0.1587 -0.0155
19511TIP3    H179948   2.039   4.107  11.545  0.0382 -0.6418  0.7669
19511TIP3    H279949   2.167   4.070  11.616  1.9549  0.4493 -2.0597
19512TIP3   OH279950   2.913   0.115  15.397 -0.0532 -0.1638 -0.6157
19512TIP3    H179951   2.996   0.147  15.433  0.0173  0.4957 -1.3479
19512TIP3    H279952   2.938   0.066  15.319 -0.5259  2.2633 -2.3432
19513TIP3   OH279953   2.146   0.766   2.805  0.0117 -0.1214  0.1854
19513TIP3    H179954   2.204   0.756   2.881 -0.1361 -0.1391  0.2967
19513TIP3    H279955   2.168   0.852   2.770 -0.1911  0.0542  0.4823
19514TIP3   OH279956   0.266   1.825  11.195  0.6501 -0.0591 -0.5081
19514TIP3    H179957   0.310   1.900  11.154 -1.1233  0.9678 -0.5552
19514TIP3    H279958   0.264   1.758  11.126 -0.3735  0.8946 -1.4276
19515TIP3   OH279959   6.710   6.122   3.382  0.1140 -0.2373 -0.1123
19515TIP3    H179960   6.791   6.170   3.363  0.4398 -1.3411 -1.5536
19515TIP3    H279961   6.650   6.148   3.313 -0.5478  0.0396  0.5619
19516TIP3   OH279962   6.417   4.707   5.132 -0.1817 -0.2059  0.0838
19516TIP3    H179963   6.420   4.622   5.089 -0.0956 -0.6116  0.8884
19516TIP3    H279964   6.354   4.758   5.081 -1.8938 -1.4751  0.8951
19517TIP3   OH279965   4.411   4.971  14.730  0.4944  0.0710  0.4655
19517TIP3    H179966   4.330   4.924  14.708  0.7593  0.0818 -0.5763
19517TIP3    H279967   4.409   5.049  14.675  2.0959 -0.8547 -0.9966
19518TIP3   OH279968   4.749   0.267  12.615 -0.3338  0.1290  0.0841
19518TIP3    H179969   4.827   0.211  12.623 -0.6754 -0.2392  0.9507
19518TIP3    H279970   4.706   0.237  12.535  1.3784  1.5696 -1.4257
19519TIP3   OH279971   0.115   6.418   4.298  0.2281  0.0140  0.3352
19519TIP3    H179972   0.097   6.388   4.209  0.8052 -1.0948  0.5930
19519TIP3    H279973   0.058   6.365   4.354  0.8613 -0.2463  0.7422
19520TIP3   OH279974   0.213   6.140  10.974  0.4877 -0.4415 -0.3605
19520TIP3    H179975   0.278   6.207  10.997 -0.1256  0.1582 -0.3487
19520TIP3    H279976   0.262   6.058  10.974  0.8908 -0.2100  1.2915
19521TIP3   OH279977   5.170   4.554   3.601 -0.4020 -0.0042  0.3476
19521TIP3    H179978   5.109   4.617   3.564 -1.0037 -0.1529  1.0692
19521TIP3    H279979   5.216   4.602   3.669 -1.6394 -0.6118  1.6581
19522TIP3   OH279980   0.190   4.139   1.580 -0.4458 -0.0242 -0.7133
19522TIP3    H179981   0.176   4.101   1.493 -0.4936  0.4607 -0.9198
19522TIP3    H279982   0.103   4.158   1.613 -0.3846  0.8461 -1.0362
19523TIP3   OH279983   3.182   5.207   4.553 -0.5410  0.0796 -0.3482
19523TIP3    H179984   3.277   5.221   4.545 -0.6507  0.6298 -0.6585
19523TIP3    H279985   3.144   5.257   4.481 -1.1504  0.7842  0.4568
19524TIP3   OH279986   4.520   2.105  13.468 -0.3795  0.3657  0.2610
19524TIP3    H179987   4.461   2.086  13.394  0.9410 -0.9911 -0.4743
19524TIP3    H279988   4.568   2.183  13.440  0.2660 -0.2690 -0.4039
19525TIP3   OH279989   4.562   2.796  14.210  0.9909  0.7230  0.0916
19525TIP3    H179990   4.524   2.833  14.130 -0.5841 -1.0500 -0.0095
19525TIP3    H279991   4.542   2.861  14.278 -0.9964  0.4900 -0.2432
19526TIP3   OH279992   4.221   1.154   4.323  0.4868 -0.6951 -0.4527
19526TIP3    H179993   4.231   1.084   4.388 -1.0053 -0.1823  0.3709
19526TIP3    H279994   4.165   1.116   4.255  0.1751 -0.4940 -0.3073
19527TIP3   OH279995   2.914   6.315   0.869 -0.4132  0.2724 -0.0644
19527TIP3    H179996   2.986   6.293   0.927 -0.7361 -0.5231  0.0460
19527TIP3    H279997   2.906   6.410   0.874 -0.5412  0.1929  1.3084
19528TIP3   OH279998   1.110   2.219  16.489  0.2149 -0.1573  0.5927
19528TIP3    H179999   1.102   2.305  16.530  1.3639 -0.1836  0.8822
19528TIP3    H280000   1.026   2.205  16.446  0.1978  1.3274  0.1273
19529TIP3   OH280001   5.102   4.809  14.055  0.1777 -0.0959 -0.0172
19529TIP3    H180002   5.088   4.816  13.961  2.0985 -0.1811 -0.3384
19529TIP3    H280003   5.195   4.829  14.067 -0.5071  2.2083  2.1044
19530TIP3   OH280004   4.920   4.386  12.721 -0.1768 -0.2944 -0.6123
19530TIP3    H180005   4.928   4.480  12.740 -0.0689 -0.5054  0.4372
19530TIP3    H280006   4.960   4.375  12.635 -1.1611  0.7901 -1.2154
19531TIP3   OH280007   0.231   4.469   2.893 -0.7422  0.0755 -0.5704
19531TIP3    H180008   0.183   4.398   2.935 -0.4515 -0.2364 -0.7703
19531TIP3    H280009   0.267   4.520   2.966  0.3830 -0.8874 -0.4420
19532TIP3   OH280010   2.239   2.624  15.340 -0.1668 -0.2268 -0.0590
19532TIP3    H180011   2.184   2.630  15.418 -0.7343 -1.2646 -0.3700
19532TIP3    H280012   2.237   2.531  15.316  1.4871 -0.2242 -0.2477
19533TIP3   OH280013   0.818   4.459   3.477 -0.9584 -0.0544  0.4168
19533TIP3    H180014   0.906   4.424   3.466 -1.3927 -0.9834 -0.1692
19533TIP3    H280015   0.825   4.521   3.549 -0.5751 -2.7821  2.7982
19534TIP3   OH280016   4.026   4.842  14.052 -0.1562 -0.3135 -0.1287
19534TIP3    H180017   4.057   4.782  13.984  0.5641  0.5237 -0.5465
19534TIP3    H280018   4.084   4.827  14.126 -0.5895 -0.8255  0.1094
19535TIP3   OH280019   1.489   2.445   2.406  0.2208  0.8653 -0.0386
19535TIP3    H180020   1.581   2.473   2.399 -0.1371  1.9027 -0.5746
19535TIP3    H280021   1.439   2.515   2.364 -0.8244  0.3114  0.2765
19536TIP3   OH280022   0.291   1.054  13.598  0.0266  0.0965  0.4796
19536TIP3    H180023   0.229   1.127  13.605 -0.0886 -0.1017  1.5932
19536TIP3    H280024   0.237   0.975  13.607  0.6680 -0.0534  3.6054
19537TIP3   OH280025   4.838   5.605  12.399  0.1978 -0.0945 -0.7793
19537TIP3    H180026   4.816   5.698  12.397  1.7405  0.2767 -1.5141
19537TIP3    H280027   4.787   5.569  12.471  1.5827  1.8505  1.2246
19538TIP3   OH280028   5.129   3.425   5.806 -1.0032  0.0777 -0.0973
19538TIP3    H180029   5.106   3.355   5.746 -0.6427  0.5200 -0.7535
19538TIP3    H280030   5.098   3.505   5.763  0.3278  0.5181 -0.2520
19539TIP3   OH280031   6.079   4.919   0.326  0.4055  0.1973  0.5216
19539TIP3    H180032   6.054   4.960   0.243  2.1331 -0.6235 -0.4424
19539TIP3    H280033   6.000   4.873   0.355  0.1435 -0.5523 -1.3172
19540TIP3   OH280034   5.603   1.160   4.549 -0.0611 -0.3235  0.0757
19540TIP3    H180035   5.573   1.248   4.568 -0.4729 -0.8106  1.7375
19540TIP3    H280036   5.698   1.169   4.536 -0.0900  0.3380  0.3424
19541TIP3   OH280037   2.734   2.127   6.100  0.6845 -0.0884  0.0143
19541TIP3    H180038   2.639   2.140   6.097  0.9484  2.1925  0.6826
19541TIP3    H280039   2.761   2.130   6.008  0.2100  0.0345 -0.1230
19542TIP3   OH280040   0.306   1.882   2.567  0.1840  0.4415  0.6123
19542TIP3    H180041   0.346   1.795   2.564  2.4787  1.4638  0.3929
19542TIP3    H280042   0.241   1.877   2.637 -0.1848 -1.6401  0.1260
19543TIP3   OH280043   1.099   5.882  15.056 -0.0926 -0.0428  0.5063
19543TIP3    H180044   1.101   5.949  14.987 -0.9236  0.2843  0.8008
19543TIP3    H280045   1.044   5.920  15.125 -1.2159 -1.3507  0.3454
19544TIP3   OH280046   3.522   3.726   4.116 -0.4558 -0.2505  0.3497
19544TIP3    H180047   3.611   3.709   4.148  0.7656  2.6835 -1.2435
19544TIP3    H280048   3.531   3.729   4.021 -1.9122  1.7975  0.2501
19545TIP3   OH280049   4.870   3.692  12.510  0.2998  0.2827  0.2573
19545TIP3    H180050   4.895   3.734  12.591 -1.3901  0.7036  0.5879
19545TIP3    H280051   4.864   3.599  12.532  0.9178  0.2589  0.3309
19546TIP3   OH280052   0.051   2.228   1.181  0.4293  0.0441  0.0653
19546TIP3    H180053   0.091   2.142   1.165 -1.0093 -0.6032 -0.1903
19546TIP3    H280054   0.123   2.283   1.210  1.5492 -1.0103 -0.6561
19547TIP3   OH280055   6.215   1.671   0.952 -0.1543 -0.0314  0.1704
19547TIP3    H180056   6.258   1.613   0.889  0.3926 -0.9417  1.3351
19547TIP3    H280057   6.185   1.612   1.022 -0.6848  0.9511  0.7838
19548TIP3   OH280058   5.650   0.072   4.921  0.4258  0.0259 -0.5093
19548TIP3    H180059   5.709   0.013   4.874 -1.9328 -0.8534 -2.4659
19548TIP3    H280060   5.635   0.030   5.005  3.8666  1.0931  0.7264
19549TIP3   OH280061   2.188   3.060  12.387  0.2022  0.2360  0.7703
19549TIP3    H180062   2.139   3.095  12.462  0.2143 -0.2311  1.0027
19549TIP3    H280063   2.164   2.967  12.385 -1.6046  0.7160 -1.2245
19550TIP3   OH280064   3.257   0.126   6.106 -0.2787 -0.2719  0.3016
19550TIP3    H180065   3.294   0.190   6.167  0.5829 -2.3962  2.0563
19550TIP3    H280066   3.180   0.092   6.151 -2.0250  1.0863 -1.5700
19551TIP3   OH280067   5.940   1.494  10.445  0.1273 -0.0467  0.1408
19551TIP3    H180068   5.909   1.584  10.454  1.1888  0.1441  2.1116
19551TIP3    H280069   6.033   1.502  10.422  0.4112 -0.6466  1.0725
19552TIP3   OH280070   5.158   2.761  14.858  0.2295 -0.3649  0.3274
19552TIP3    H180071   5.181   2.724  14.773  0.3863 -1.3236  0.7799
19552TIP3    H280072   5.093   2.700  14.893  1.2184 -0.7466  1.5072
19553TIP3   OH280073   4.518   5.528   0.352  0.7439 -0.7513  0.0530
19553TIP3    H180074   4.470   5.498   0.430 -1.1100 -0.5547 -0.9848
19553TIP3    H280075   4.565   5.606   0.382  0.2963 -0.8515  1.0534
19554TIP3   OH280076   6.582   1.608   1.607  0.4045 -0.3664 -0.3280
19554TIP3    H180077   6.498   1.633   1.645  1.1848  0.1133  1.1135
19554TIP3    H280078   6.581   1.512   1.606 -0.0510 -0.3632 -0.0749
19555TIP3   OH280079   2.808   5.321  13.852 -0.3402  0.2045 -0.2764
19555TIP3    H180080   2.876   5.260  13.882 -1.4915 -1.2614 -0.5592
19555TIP3    H280081   2.770   5.277  13.775  0.2013  2.2624 -1.7631
19556TIP3   OH280082   3.920   4.976  11.918  0.0102 -0.5274  0.5215
19556TIP3    H180083   3.959   4.959  11.832  0.9103 -1.2144  1.0569
19556TIP3    H280084   3.933   5.069  11.933 -0.6675 -0.2854 -0.3367
19557TIP3   OH280085   5.193   4.002  16.529 -0.1420  0.0793  0.6524
19557TIP3    H180086   5.181   3.914  16.494  1.5721  1.0260 -2.5795
19557TIP3    H280087   5.169   4.060  16.456  1.2567  2.2177  1.8264
19558TIP3   OH280088   0.862   0.390   5.770 -0.2098 -0.7176  0.6000
19558TIP3    H180089   0.851   0.463   5.831  1.4604 -1.5958  1.9886
19558TIP3    H280090   0.920   0.424   5.702 -0.2592 -0.4438  0.6939
19559TIP3   OH280091   0.107   3.435   5.067 -0.6311 -0.8645 -0.2550
19559TIP3    H180092   0.106   3.476   4.980 -2.1825 -1.8072 -0.7077
19559TIP3    H280093   0.173   3.366   5.059 -0.4032 -0.6214 -0.5220
19560TIP3   OH280094   0.693   5.198  16.996  0.4312  0.7261  0.5271
19560TIP3    H180095   0.650   5.208  17.081 -2.8339  2.5010 -1.2109
19560TIP3    H280096   0.695   5.103  16.982 -1.6102  0.5303  1.3501
19561TIP3   OH280097   0.130   2.120  12.947 -1.1377  0.1123 -0.1129
19561TIP3    H180098   0.153   2.033  12.979 -1.7326 -0.4599 -1.2234
19561TIP3    H280099   0.041   2.135  12.980 -1.6952 -0.4164 -1.3544
19562TIP3   OH280100   0.156   2.233  14.988  0.0189  0.1224 -0.2715
19562TIP3    H180101   0.198   2.294  15.049  0.8057 -0.2834 -0.4015
19562TIP3    H280102   0.069   2.217  15.026  0.7850 -0.7505  1.1818
19563TIP3   OH280103   6.010   6.456   2.736  0.0791  0.0417 -0.8611
19563TIP3    H180104   6.052   6.370   2.732  2.3776  1.0113  0.8798
19563TIP3    H280105   6.077   6.517   2.705 -1.5023  1.2147 -2.0274
19564TIP3   OH280106   6.619   2.225  14.297  0.1998  0.0600 -0.4013
19564TIP3    H180107   6.635   2.233  14.391 -1.3093 -2.1014  0.0892
19564TIP3    H280108   6.684   2.281  14.256  1.2381  0.5960  1.9214
19565TIP3   OH280109   4.642   5.089   1.122  0.0158 -0.2700  0.2539
19565TIP3    H180110   4.679   5.135   1.197 -1.5747  0.6257  0.5269
19565TIP3    H280111   4.718   5.063   1.069  0.9933  2.8327  0.0208
19566TIP3   OH280112   2.705   4.416   1.652 -0.5233 -0.6156  0.2747
19566TIP3    H180113   2.793   4.435   1.621 -1.6946 -0.1512 -3.0347
19566TIP3    H280114   2.712   4.331   1.695  1.5224 -0.5837  0.0533
19567TIP3   OH280115   1.482   2.157  12.135  0.0990  0.4567 -0.5865
19567TIP3    H180116   1.559   2.137  12.082  0.7155 -1.1225  0.8577
19567TIP3    H280117   1.486   2.094  12.207 -1.7173  1.3651  0.3286
19568TIP3   OH280118   0.737   5.136  12.911 -0.5662  0.4274  0.5041
19568TIP3    H180119   0.756   5.081  12.835 -1.2478 -1.5842  1.7567
19568TIP3    H280120   0.688   5.080  12.970  2.0883  1.1413  3.5707
19569TIP3   OH280121   4.363   2.397  16.645 -0.1740  0.6392 -0.4586
19569TIP3    H180122   4.452   2.431  16.630  0.1590 -0.2286 -0.4710
19569TIP3    H280123   4.320   2.405  16.560 -0.0726  0.9582 -0.4785
19570TIP3   OH280124   0.375   6.118   1.472  0.6399 -0.0113  0.0337
19570TIP3    H180125   0.407   6.159   1.391 -0.4298  0.0216 -0.3876
19570TIP3    H280126   0.310   6.054   1.442 -0.9338  1.1060  0.9452
19571TIP3   OH280127   1.056   6.616  13.364 -0.2207 -0.1635  0.3725
19571TIP3    H180128   1.061   6.686  13.429  1.1985  1.3580 -1.3349
19571TIP3    H280129   0.988   6.646  13.303  0.1515 -0.4291 -0.1743
19572TIP3   OH280130   4.395   4.161   4.381  0.3448  0.0177  0.6371
19572TIP3    H180131   4.451   4.185   4.307  0.7845 -0.2563  0.8826
19572TIP3    H280132   4.366   4.245   4.417  1.1391  0.1714  0.9237
19573TIP3   OH280133   6.270   6.282  11.427  0.0767 -0.1242 -0.2506
19573TIP3    H180134   6.257   6.254  11.518 -2.6544 -1.1684 -0.9128
19573TIP3    H280135   6.358   6.318  11.425  1.1586 -2.5270  2.2052
19574TIP3   OH280136   5.127   5.117   1.165  0.3418  0.2932  0.8703
19574TIP3    H180137   5.151   5.176   1.094  1.4338 -2.0923 -0.8240
19574TIP3    H280138   5.209   5.101   1.211  0.7151 -2.3092 -0.6061
19575TIP3   OH280139   2.295   4.662   5.980 -0.0339  0.0493 -0.1288
19575TIP3    H180140   2.254   4.714   6.050  1.2684  0.1706  0.5471
19575TIP3    H280141   2.356   4.604   6.025  0.8299  0.1389 -1.1656
19576TIP3   OH280142   0.378   4.964  14.841  0.1073 -0.0378  0.1092
19576TIP3    H180143   0.338   4.979  14.756  0.4513 -0.5709 -0.1521
19576TIP3    H280144   0.306   4.933  14.896 -0.2286  0.8328  0.1637
19577TIP3   OH280145   2.634   1.781   2.256 -0.3430  0.2955 -0.6377
19577TIP3    H180146   2.705   1.843   2.271  2.0603 -1.9295 -2.3722
19577TIP3    H280147   2.636   1.725   2.334  0.2032 -0.1052 -0.9326
19578TIP3   OH280148   0.932   2.744   5.849 -0.1573  0.0468  0.3063
19578TIP3    H180149   0.850   2.794   5.857 -0.7433 -0.9012  0.2954
19578TIP3    H280150   0.997   2.797   5.895 -0.4768  1.4789 -0.8213
19579TIP3   OH280151   6.756   1.897  15.637 -0.3843  0.9519 -0.7703
19579TIP3    H180152   6.682   1.938  15.681 -0.3344  0.2884 -0.0472
19579TIP3    H280153   6.745   1.920  15.545 -1.0691  1.4872 -0.5619
19580TIP3   OH280154   1.547   2.521   4.262  0.1763  0.2224  0.1729
19580TIP3    H180155   1.549   2.427   4.279  1.2825  0.4319  1.2462
19580TIP3    H280156   1.600   2.532   4.183  0.1555 -0.0333  0.1224
19581TIP3   OH280157   1.887   2.143  14.716 -0.9091 -0.1842  0.4261
19581TIP3    H180158   1.807   2.195  14.726  0.3797  1.7783  0.8787
19581TIP3    H280159   1.957   2.199  14.749  0.6661 -1.8916  0.1236
19582TIP3   OH280160   6.552   4.671  15.888  0.1419  0.0920  0.0200
19582TIP3    H180161   6.647   4.665  15.900  0.3371  0.1278 -1.3568
19582TIP3    H280162   6.517   4.597  15.936  1.0985 -1.6068 -1.8248
19583TIP3   OH280163   6.119   3.639  16.102 -1.0607 -0.0078  0.1673
19583TIP3    H180164   6.076   3.556  16.117  1.1972 -1.2806 -0.1886
19583TIP3    H280165   6.149   3.668  16.188 -0.0585 -0.5894  0.0243
19584TIP3   OH280166   4.051   6.347  16.367 -0.1096 -0.0627  1.0427
19584TIP3    H180167   4.101   6.387  16.438 -0.1232  0.1397  0.9392
19584TIP3    H280168   4.113   6.289  16.323  0.5908  1.6178 -0.2648
19585TIP3   OH280169   5.010   3.349  16.196 -0.2219 -0.1150  0.1489
19585TIP3    H180170   4.953   3.302  16.257  0.0612 -0.4869  0.1282
19585TIP3    H280171   5.053   3.416  16.251  0.3097 -0.6873  0.4411
19586TIP3   OH280172   5.350   3.916   1.435  0.1263 -0.3021  0.5385
19586TIP3    H180173   5.394   3.855   1.493 -0.7261 -0.7508  0.7283
19586TIP3    H280174   5.302   3.860   1.374  0.9313  0.1625 -0.5354
19587TIP3   OH280175   6.077   5.077   3.637 -0.2745 -0.1889  0.0659
19587TIP3    H180176   6.114   5.021   3.705  0.4666  0.1275 -0.0745
19587TIP3    H280177   6.151   5.101   3.582 -0.6713  0.5097 -0.1740
19588TIP3   OH280178   2.134   5.124  14.082  0.3971 -0.0682 -0.3761
19588TIP3    H180179   2.052   5.174  14.076  0.0441 -0.5048  0.7940
19588TIP3    H280180   2.112   5.039  14.044  0.4020 -0.0812 -0.3493
19589TIP3   OH280181   4.561   4.194   3.600 -0.1101  0.2204  0.2081
19589TIP3    H180182   4.630   4.259   3.603 -0.1670  0.2763  0.3274
19589TIP3    H280183   4.597   4.122   3.547 -0.6957  1.0779 -1.3808
19590TIP3   OH280184   2.858   5.038   5.560 -0.0630  0.3646 -0.0881
19590TIP3    H180185   2.833   5.026   5.651  0.9357 -0.4651  0.0829
19590TIP3    H280186   2.784   5.005   5.510 -0.0807 -0.3737  0.4232
19591TIP3   OH280187   4.993   0.246  15.783  0.0332  0.2416 -0.6824
19591TIP3    H180188   4.996   0.153  15.807 -0.6994  0.6141  0.9235
19591TIP3    H280189   5.084   0.269  15.764  0.1079 -0.9967 -1.8560
19592TIP3   OH280190   4.699   6.611   3.586  0.0944 -0.3359 -0.0250
19592TIP3    H180191   4.612   6.650   3.593  0.4724  0.3085  1.1264
19592TIP3    H280192   4.683   6.516   3.594 -0.7555 -0.4095 -2.2348
19593TIP3   OH280193   0.625   6.528   2.937  0.5928 -0.1377 -0.5495
19593TIP3    H180194   0.542   6.564   2.906  0.8050 -0.0266 -0.9897
19593TIP3    H280195   0.692   6.583   2.896  0.9028 -0.6721 -0.7755
19594TIP3   OH280196   4.384   0.515  10.896 -0.2918  0.0468 -0.4934
19594TIP3    H180197   4.315   0.581  10.901 -2.3625 -2.0130 -0.8902
19594TIP3    H280198   4.388   0.478  10.984  0.2460  0.1150 -0.4903
19595TIP3   OH280199   0.828   1.030   4.728 -0.8353  0.1983 -0.3640
19595TIP3    H180200   0.875   0.950   4.704 -1.4445  0.2978 -1.9669
19595TIP3    H280201   0.822   1.026   4.823  1.7982 -0.1472 -0.1789
19596TIP3   OH280202   1.190   6.175  16.433  0.3695 -0.2448  0.0308
19596TIP3    H180203   1.160   6.085  16.444 -0.2945 -0.0193  0.0730
19596TIP3    H280204   1.255   6.171  16.362 -1.2921 -0.3984 -1.5163
19597TIP3   OH280205   4.117   1.658   0.862 -0.2602  0.0394 -0.3330
19597TIP3    H180206   4.205   1.634   0.890  0.6147  1.6024 -1.6475
19597TIP3    H280207   4.119   1.651   0.767 -1.2126  1.1934 -0.4536
19598TIP3   OH280208   1.859   0.227  15.068 -0.1344 -0.5244 -0.0379
19598TIP3    H180209   1.837   0.270  15.151  2.0181  1.3935 -0.3977
19598TIP3    H280210   1.776   0.224  15.020 -0.6640  1.9436  0.6243
19599TIP3   OH280211   6.016   5.826   2.877 -0.1623 -0.4304 -0.0893
19599TIP3    H180212   6.067   5.755   2.838  0.4766  0.0280 -0.0930
19599TIP3    H280213   6.066   5.853   2.954 -1.7582 -1.8002  1.4879
19600TIP3   OH280214   3.101   0.268   2.773  0.0224  0.2383  0.1066
19600TIP3    H180215   3.058   0.353   2.767 -0.2404 -0.0531 -2.3770
19600TIP3    H280216   3.148   0.258   2.690  1.7084 -1.1665  1.1811
19601TIP3   OH280217   5.072   5.536   1.600 -0.2956 -0.8934  0.4435
19601TIP3    H180218   5.141   5.597   1.571  0.0986 -1.8138 -0.5683
19601TIP3    H280219   4.990   5.581   1.579 -0.0314  0.1669  1.5626
19602TIP3   OH280220   4.883   0.891   0.873  0.4198  0.4478  0.5210
19602TIP3    H180221   4.878   0.912   0.967  1.4023 -1.3746  1.0228
19602TIP3    H280222   4.975   0.865   0.860 -0.0390 -0.6371 -0.6302
19603TIP3   OH280223   1.828   2.571  16.513 -0.5041 -0.1563 -0.2094
19603TIP3    H180224   1.800   2.592  16.424  0.5146  0.2158 -0.4461
19603TIP3    H280225   1.856   2.654  16.550  1.3282 -0.6908 -0.3533
19604TIP3   OH280226   3.769   4.067  14.461  0.2999  0.6417 -0.1736
19604TIP3    H180227   3.679   4.096  14.477  0.7853  1.8774  0.3568
19604TIP3    H280228   3.819   4.101  14.536  1.5719  1.6604 -1.4573
19605TIP3   OH280229   2.396   2.280   5.425 -0.3534  0.0020  0.1557
19605TIP3    H180230   2.410   2.203   5.479  1.4360  1.3193  1.6250
19605TIP3    H280231   2.424   2.254   5.338  0.0789 -1.0416  0.6013
19606TIP3   OH280232   5.406   4.429  17.236  0.0617 -0.2525 -0.3787
19606TIP3    H180233   5.390   4.383  17.154 -0.1811 -0.2457 -0.3332
19606TIP3    H280234   5.320   4.457  17.266  0.2796  0.9347 -0.8217
19607TIP3   OH280235   0.276   1.200  15.478 -0.2937  0.0584 -0.6614
19607TIP3    H180236   0.182   1.192  15.461 -0.4454  0.4516  0.0098
19607TIP3    H280237   0.292   1.294  15.480  0.3209  0.0000 -1.8926
19608TIP3   OH280238   4.696   1.193   5.639  0.4913  0.0074  0.0124
19608TIP3    H180239   4.784   1.192   5.600  0.0820 -0.1323 -0.9045
19608TIP3    H280240   4.704   1.134   5.715  1.7086  1.5329  1.1012
19609TIP3   OH280241   5.351   0.453   5.352  0.2291  0.4408  0.4868
19609TIP3    H180242   5.425   0.491   5.400  0.0575  0.3776  0.7971
19609TIP3    H280243   5.384   0.443   5.263  0.0905  1.8570  0.2687
19610TIP3   OH280244   0.631   4.339   3.701  0.0175 -0.1393 -0.8150
19610TIP3    H180245   0.686   4.409   3.666  0.2312 -0.5479 -1.2971
19610TIP3    H280246   0.544   4.378   3.707  0.0623  0.0617 -1.4202
19611TIP3   OH280247   1.514   4.591   1.952  0.0718 -0.3054 -0.4691
19611TIP3    H180248   1.538   4.682   1.972  0.5308 -0.6427  0.5796
19611TIP3    H280249   1.587   4.558   1.901  0.7634 -0.6217  0.7052
19612TIP3   OH280250   1.759   0.525   3.652 -0.2467 -0.6956 -0.1406
19612TIP3    H180251   1.754   0.600   3.593 -0.0888 -0.0421  0.6915
19612TIP3    H280252   1.704   0.548   3.727 -0.6770 -1.6490 -0.1451
19613TIP3   OH280253   6.386   3.087   5.604  0.1239 -0.2407 -0.4057
19613TIP3    H180254   6.349   3.164   5.646  1.9896  0.4794 -0.0394
19613TIP3    H280255   6.452   3.055   5.666  0.0993 -1.5051 -1.0156
19614TIP3   OH280256   3.195   5.919  13.554 -0.1093  0.3883 -0.4322
19614TIP3    H180257   3.283   5.893  13.583 -0.3301  1.2428  1.0094
19614TIP3    H280258   3.210   5.993  13.496  0.0519  1.3954  0.8646
19615TIP3   OH280259   3.271   4.687  16.078 -0.2027  0.2987 -0.6402
19615TIP3    H180260   3.351   4.667  16.128  0.3148  0.9529 -1.1938
19615TIP3    H280261   3.290   4.771  16.036  0.3769 -1.3827 -3.9423
19616TIP3   OH280262   0.331   0.441   4.204  0.2933 -0.0899  0.4663
19616TIP3    H180263   0.301   0.498   4.133 -0.2444  0.9117  1.4897
19616TIP3    H280264   0.359   0.361   4.159 -2.4355 -0.4754 -0.6654
19617TIP3   OH280265   2.688   1.674   3.509 -0.0255 -0.3598  0.2023
19617TIP3    H180266   2.717   1.623   3.584  0.6015 -0.0696  0.1648
19617TIP3    H280267   2.690   1.612   3.436  1.4685 -0.1153  0.0065
19618TIP3   OH280268   3.376   6.498   0.268  0.0540  0.2961  0.3488
19618TIP3    H180269   3.288   6.514   0.303  0.0781 -1.3822  1.2458
19618TIP3    H280270   3.369   6.413   0.225  0.0945  2.2000 -3.6401
19619TIP3   OH280271   2.591   5.243  12.088 -0.6176 -0.1128  0.0512
19619TIP3    H180272   2.568   5.300  12.015 -0.7941 -0.2824 -0.0248
19619TIP3    H280273   2.524   5.261  12.154  0.8284  1.7375  1.0904
19620TIP3   OH280274   6.220   1.404   0.093  0.3247 -0.1482  0.4690
19620TIP3    H180275   6.204   1.313   0.119 -0.7531 -0.4755 -1.2176
19620TIP3    H280276   6.151   1.454   0.135 -0.3309 -0.4179 -0.2717
19621TIP3   OH280277   2.905   0.291   0.953  0.1200  0.7879 -0.4042
19621TIP3    H180278   2.825   0.343   0.948  0.1291  1.0017  1.3908
19621TIP3    H280279   2.917   0.275   1.046  1.5323 -0.2504 -0.7504
19622TIP3   OH280280   6.599   3.982  11.798 -0.5256  0.4825  0.2964
19622TIP3    H180281   6.506   3.958  11.792 -0.5181  0.2710  0.9398
19622TIP3    H280282   6.601   4.058  11.855 -0.1856 -0.2903  1.3298
19623TIP3   OH280283   3.695   1.308   5.099  0.1418  0.0123  0.2748
19623TIP3    H180284   3.621   1.249   5.112  0.2079 -0.4675 -1.5058
19623TIP3    H280285   3.708   1.348   5.185 -1.9718 -0.1219  0.6851
19624TIP3   OH280286   5.538   4.499   2.177 -0.1421  0.3443 -0.2188
19624TIP3    H180287   5.481   4.575   2.166  1.4302  1.7898  1.1685
19624TIP3    H280288   5.567   4.477   2.089  0.8895  2.5904 -0.4798
19625TIP3   OH280289   1.267   4.572   3.666  0.2148 -0.5818  0.3889
19625TIP3    H180290   1.220   4.611   3.740 -0.6541 -1.0497  0.0977
19625TIP3    H280291   1.356   4.606   3.673 -0.0201 -0.1349  1.2909
19626TIP3   OH280292   6.186   6.244  11.165 -0.1372 -0.0880  0.2819
19626TIP3    H180293   6.195   6.158  11.125 -0.9727  0.1395 -0.3940
19626TIP3    H280294   6.218   6.232  11.255  0.3246 -0.9505  0.0059
19627TIP3   OH280295   1.345   6.451  13.021 -0.0733  0.4699  0.1739
19627TIP3    H180296   1.379   6.492  12.941 -0.0848  1.2924  0.5860
19627TIP3    H280297   1.378   6.507  13.092 -0.7354  0.2043  0.6878
19628TIP3   OH280298   6.208   3.138  14.140  0.0913 -0.5613  0.1745
19628TIP3    H180299   6.193   3.158  14.232  1.5823 -0.4328  0.3932
19628TIP3    H280300   6.281   3.193  14.114 -0.4300 -0.4626 -1.1442
19629TIP3   OH280301   2.147   4.419   3.531  0.3567  1.2306  0.0012
19629TIP3    H180302   2.119   4.508   3.555 -3.7192  0.0020  0.2997
19629TIP3    H280303   2.242   4.424   3.525  0.4199  5.0112  2.5164
19630TIP3   OH280304   6.648   5.486  13.764 -0.3308 -0.6109 -0.8804
19630TIP3    H180305   6.715   5.552  13.748  0.3208 -1.1013 -0.2260
19630TIP3    H280306   6.628   5.451  13.678 -0.4940  0.2582 -1.2043
19631TIP3   OH280307   4.231   5.550  15.741  0.2392  0.4131 -0.0582
19631TIP3    H180308   4.325   5.569  15.736  0.4970 -0.8364  0.0239
19631TIP3    H280309   4.213   5.540  15.834  0.3201 -0.7997 -0.1650
19632TIP3   OH280310   0.363   2.488  11.215  0.1819 -0.0102  0.3582
19632TIP3    H180311   0.282   2.535  11.197  1.1540 -0.0952 -5.0323
19632TIP3    H280312   0.340   2.396  11.201  0.5582 -0.2865  1.5482
19633TIP3   OH280313   0.594   2.213   3.740 -0.2413 -0.5349 -0.4046
19633TIP3    H180314   0.686   2.189   3.742 -0.5067 -1.4416  2.4794
19633TIP3    H280315   0.590   2.296   3.788 -0.8643 -0.1595 -1.0842
19634TIP3   OH280316   1.494   1.019  11.213 -0.3599 -0.0572  0.2894
19634TIP3    H180317   1.435   0.978  11.276  0.3534  0.2343  1.1589
19634TIP3    H280318   1.572   0.963  11.214 -0.1502  0.2307  0.0520
19635TIP3   OH280319   2.880   2.443   3.793 -0.3181  0.3355  0.6198
19635TIP3    H180320   2.959   2.397   3.765 -2.2968 -3.5818  1.1875
19635TIP3    H280321   2.854   2.400   3.874 -3.1832  1.3917  0.3277
19636TIP3   OH280322   4.095   4.881  16.296  0.5531  0.3875  0.8519
19636TIP3    H180323   4.098   4.803  16.241  2.6023  0.9947  0.0342
19636TIP3    H280324   4.010   4.877  16.340  0.1949 -1.7351  0.0154
19637TIP3   OH280325   2.651   5.891   4.536  0.0425 -0.1600 -0.4350
19637TIP3    H180326   2.717   5.834   4.497 -0.2854  0.0254 -1.2789
19637TIP3    H280327   2.691   5.979   4.532 -0.2076 -0.0648 -0.8410
19638TIP3   OH280328   4.961   3.946  14.493 -0.2421  0.0147  0.3795
19638TIP3    H180329   5.034   4.005  14.513  0.4790 -0.4093 -1.0038
19638TIP3    H280330   4.966   3.931  14.399 -1.9634 -0.2351  0.2981
19639TIP3   OH280331   4.881   6.456  12.356 -0.1181  0.2542 -0.0532
19639TIP3    H180332   4.883   6.427  12.265 -0.0966 -2.1674  0.6939
19639TIP3    H280333   4.851   6.380  12.405  0.0373  1.4779  2.0038
19640TIP3   OH280334   5.331   4.751   1.638  0.0639  0.1788  0.5357
19640TIP3    H180335   5.301   4.841   1.626  2.0821  0.8390  0.3080
19640TIP3    H280336   5.300   4.704   1.561 -2.5156  0.2470  1.4894
19641TIP3   OH280337   2.227   5.602   3.602  0.1481 -0.4838 -0.2365
19641TIP3    H180338   2.207   5.680   3.550  0.1501 -0.8980 -0.8697
19641TIP3    H280339   2.163   5.537   3.571 -0.6312 -0.3769  1.1236
19642TIP3   OH280340   4.847   3.809   4.993 -0.1689 -0.2397  0.7225
19642TIP3    H180341   4.871   3.782   5.081  0.6900 -0.7097  0.3529
19642TIP3    H280342   4.819   3.728   4.950  3.7483 -0.9028 -0.8283
19643TIP3   OH280343   3.171   3.417  13.794 -0.4040 -0.1734  0.5171
19643TIP3    H180344   3.114   3.485  13.758  0.8527  0.8040  0.3386
19643TIP3    H280345   3.121   3.336  13.785 -2.1515  0.7968  1.2391
19644TIP3   OH280346   2.078   3.190  12.638  0.4933 -0.2655  0.0660
19644TIP3    H180347   2.054   3.145  12.719  0.5721 -0.3419  0.0464
19644TIP3    H280348   2.173   3.178  12.631  0.7025  0.9016  0.6819
19645TIP3   OH280349   6.365   0.758  16.678  0.0026 -0.0872 -0.2745
19645TIP3    H180350   6.390   0.810  16.603  0.4103  0.9190  0.5490
19645TIP3    H280351   6.277   0.726  16.657  0.4016 -0.4337 -1.4821
19646TIP3   OH280352   0.404   4.149  16.331 -0.1523  0.0008 -0.1020
19646TIP3    H180353   0.385   4.080  16.268  1.7658 -0.8431  0.2173
19646TIP3    H280354   0.344   4.220  16.307 -1.9994 -1.6538 -0.5809
19647TIP3   OH280355   4.748   1.031   1.170  0.3436  0.0607  0.5040
19647TIP3    H180356   4.679   1.008   1.108  1.8727 -0.0074 -1.2153
19647TIP3    H280357   4.762   0.951   1.221  1.9473 -1.2164 -1.8717
19648TIP3   OH280358   0.215   5.072  15.166  0.4061  0.4238 -0.4907
19648TIP3    H180359   0.271   5.091  15.241  0.6456  0.1104 -0.5911
19648TIP3    H280360   0.198   5.158  15.127 -1.0402  0.7650  0.8514
19649TIP3   OH280361   1.072   5.885  10.277 -1.0633 -0.0026 -0.7616
19649TIP3    H180362   1.047   5.817  10.215 -0.9463 -0.3351 -0.4466
19649TIP3    H280363   1.164   5.867  10.296 -0.5930  1.1639 -1.8532
19650TIP3   OH280364   1.895   4.749  12.122  0.4850 -0.0211 -0.3736
19650TIP3    H180365   1.807   4.711  12.120 -0.0922  1.3334 -2.4197
19650TIP3    H280366   1.888   4.822  12.183  0.3838 -0.3546  0.0143
19651TIP3   OH280367   0.208   3.167   0.200  0.1707  0.8790  0.0799
19651TIP3    H180368   0.141   3.167   0.269  1.4082  3.1500  1.3491
19651TIP3    H280369   0.248   3.080   0.205 -1.8249 -0.0654  0.1253
19652TIP3   OH280370   2.118   3.645  14.678 -0.3979  0.8432  0.3052
19652TIP3    H180371   2.040   3.628  14.624  0.0844  1.8055 -0.7204
19652TIP3    H280372   2.185   3.587  14.641 -0.4022  0.6116  0.6615
19653TIP3   OH280373   5.713   3.521   0.284 -0.1712  0.2141 -0.2569
19653TIP3    H180374   5.670   3.551   0.204 -3.5918  1.2769  1.8621
19653TIP3    H280375   5.685   3.430   0.295  0.8116 -0.1328 -0.6011
19654TIP3   OH280376   1.350   2.234   4.975  0.4860 -0.2557 -0.1771
19654TIP3    H180377   1.269   2.283   4.983  0.1519 -0.9558  0.9790
19654TIP3    H280378   1.401   2.280   4.909 -0.4912  0.6910 -0.2702
19655TIP3   OH280379   5.148   5.751  12.561 -0.0768 -0.2313 -0.0678
19655TIP3    H180380   5.190   5.830  12.594 -1.2405  0.4568 -0.2080
19655TIP3    H280381   5.066   5.781  12.522  0.2190 -1.3182 -1.5654
19656TIP3   OH280382   5.710   1.981   1.940 -0.6433  0.8626 -0.6089
19656TIP3    H180383   5.661   1.928   1.876 -1.9705  1.2350  0.0787
19656TIP3    H280384   5.643   2.033   1.983  0.1152 -0.0565  1.7484
19657TIP3   OH280385   5.633   0.135   4.075  0.3044  0.2468  0.2523
19657TIP3    H180386   5.701   0.108   4.013 -0.3775  1.9606 -1.2959
19657TIP3    H280387   5.681   0.163   4.153  1.3418  0.7411 -0.5503
19658TIP3   OH280388   2.486   0.725   1.878 -0.3362  0.5487 -0.1792
19658TIP3    H180389   2.549   0.687   1.817 -1.6963  0.2199 -1.4265
19658TIP3    H280390   2.421   0.768   1.822 -0.1845  2.5572  1.1299
19659TIP3   OH280391   0.996   5.637  11.447 -0.1954 -0.5246 -0.2914
19659TIP3    H180392   1.028   5.572  11.509  2.9462  1.1010 -0.0989
19659TIP3    H280393   0.988   5.590  11.364  1.8289 -1.2435 -0.1055
19660TIP3   OH280394   3.178   6.204  10.379 -0.0351 -0.3847 -0.3042
19660TIP3    H180395   3.097   6.166  10.346  0.2921 -0.7429 -0.7061
19660TIP3    H280396   3.175   6.295  10.352  0.3149 -0.7203 -1.4861
19661TIP3   OH280397   4.170   2.710   1.762 -0.0524  0.1942 -0.6682
19661TIP3    H180398   4.146   2.742   1.676 -0.0194 -0.7887 -1.0519
19661TIP3    H280399   4.207   2.786   1.807 -1.0737  0.9703 -1.1271
19662TIP3   OH280400   1.196   4.302  16.237 -0.4132  0.2932 -0.2678
19662TIP3    H180401   1.154   4.377  16.196 -1.8912 -0.6100 -0.4821
19662TIP3    H280402   1.125   4.258  16.283  0.7367 -0.1236  1.1237
19663TIP3   OH280403   5.623   2.226  17.204 -0.6315  0.1402 -0.1601
19663TIP3    H180404   5.621   2.321  17.208 -1.7003  0.0616  1.4325
19663TIP3    H280405   5.595   2.205  17.115 -0.2038  1.3063 -0.5731
19664TIP3   OH280406   5.982   4.099   4.026 -0.7322  0.1245 -0.6130
19664TIP3    H180407   5.929   4.136   3.956  1.1404  3.2788 -0.4599
19664TIP3    H280408   5.965   4.155   4.102 -0.4681 -1.4361  0.6308
19665TIP3   OH280409   5.157   4.564  17.060  0.2276  0.2565  0.6655
19665TIP3    H180410   5.229   4.612  17.020 -0.3976  0.8936  0.2839
19665TIP3    H280411   5.078   4.602  17.020 -0.2900 -0.7976  0.6752
19666TIP3   OH280412   0.696   3.823   3.275  0.5038  0.3857  0.3178
19666TIP3    H180413   0.771   3.776   3.238  0.4426 -0.4822  1.2609
19666TIP3    H280414   0.725   3.851   3.362  0.2558  1.3987  0.0814
19667TIP3   OH280415   3.234   6.389  11.071 -0.4691 -0.0645  0.7406
19667TIP3    H180416   3.271   6.341  11.144 -0.7735  0.4570  1.2429
19667TIP3    H280417   3.177   6.454  11.111 -1.4866 -0.4824 -0.0048
19668TIP3   OH280418   1.059   5.332   0.740 -0.5924  0.0280 -0.0482
19668TIP3    H180419   1.058   5.237   0.746  2.7821 -0.0412  0.3033
19668TIP3    H280420   1.000   5.362   0.809 -0.6040 -1.7664  0.7337
19669TIP3   OH280421   3.870   4.296   1.853 -0.4458 -0.0631 -0.3693
19669TIP3    H180422   3.859   4.209   1.815 -0.6307 -0.1715 -0.0704
19669TIP3    H280423   3.801   4.303   1.919 -0.6063  0.4145 -0.5802
19670TIP3   OH280424   1.553   6.508  13.917 -0.0922  0.2739 -0.0126
19670TIP3    H180425   1.548   6.582  13.857  2.1130  1.4632  1.2223
19670TIP3    H280426   1.478   6.520  13.976 -1.8016 -0.4667 -1.9704
19671TIP3   OH280427   3.919   2.323   2.162  0.6391 -0.0915  0.1785
19671TIP3    H180428   3.841   2.286   2.204  0.8153 -0.7586 -0.0888
19671TIP3    H280429   3.947   2.393   2.222 -0.2651  0.2693  0.1908
19672TIP3   OH280430   1.811   4.410   5.423  0.0684 -0.1972 -0.0787
19672TIP3    H180431   1.728   4.432   5.463 -0.3741  0.0411 -1.1051
19672TIP3    H280432   1.876   4.420   5.493 -0.9082 -1.5695  1.0528
19673TIP3   OH280433   0.534   5.828  15.312  0.3556 -0.3289  0.1862
19673TIP3    H180434   0.511   5.756  15.253  0.6515 -0.4852  0.2611
19673TIP3    H280435   0.476   5.815  15.388  1.7717 -1.6541  1.0709
19674TIP3   OH280436   0.742   5.190   4.075  0.1636  0.2609 -0.9989
19674TIP3    H180437   0.647   5.201   4.063  0.1992  1.8042 -0.0438
19674TIP3    H280438   0.754   5.185   4.170  1.0169 -0.1997 -1.1288
19675TIP3   OH280439   4.007   2.620   0.679 -0.4679 -0.7068  0.0719
19675TIP3    H180440   3.926   2.647   0.724 -0.8049 -2.2986  0.4819
19675TIP3    H280441   4.051   2.563   0.742  0.7607 -0.2146 -0.3294
19676TIP3   OH280442   5.790   0.963  14.742  0.3379 -0.4127 -0.0294
19676TIP3    H180443   5.777   0.885  14.687 -0.9086 -1.9861  2.4086
19676TIP3    H280444   5.869   0.943  14.792 -0.2756 -0.3642  0.9743
19677TIP3   OH280445   4.993   1.011  12.990 -0.0514 -0.3226  0.6911
19677TIP3    H180446   4.925   0.962  13.036  1.6143 -1.2852  2.2114
19677TIP3    H280447   5.025   0.951  12.923 -0.0942 -0.1787  0.5409
19678TIP3   OH280448   1.121   0.085  14.603  0.1805 -0.2877  0.0898
19678TIP3    H180449   1.140   0.147  14.532 -0.2242  0.0283  0.2564
19678TIP3    H280450   1.083   0.009  14.558 -1.4670  0.5016  0.0936
19679TIP3   OH280451   4.915   3.379  14.753 -0.1519 -0.1051 -1.0156
19679TIP3    H180452   4.945   3.367  14.663 -0.1357 -0.1450 -1.0057
19679TIP3    H280453   4.820   3.393  14.745  0.2070  2.3623 -1.2380
19680TIP3   OH280454   3.562   1.793  14.545  0.2068 -0.2014  0.2118
19680TIP3    H180455   3.520   1.787  14.631 -2.3073 -1.3162 -1.0380
19680TIP3    H280456   3.518   1.867  14.503  2.0072  0.8693  0.1559
19681TIP3   OH280457   1.482   5.628   0.646 -0.1777  0.9631  0.1462
19681TIP3    H180458   1.521   5.713   0.662  2.1677  0.3064 -1.8546
19681TIP3    H280459   1.388   5.641   0.662  0.0932  3.9756 -0.5081
19682TIP3   OH280460   0.897   4.351  11.423 -0.4280 -0.1862  0.0880
19682TIP3    H180461   0.962   4.421  11.421 -1.3119  0.6155 -0.8488
19682TIP3    H280462   0.893   4.326  11.515  0.6853  0.2360  0.2684
19683TIP3   OH280463   0.816   1.798  11.980 -0.0528 -0.3454  0.4421
19683TIP3    H180464   0.761   1.727  11.947 -0.5171 -0.1019  0.6827
19683TIP3    H280465   0.803   1.870  11.918  0.4000 -0.4627  0.2095
19684TIP3   OH280466   2.384   6.756  14.319 -0.1936  0.3383  0.0627
19684TIP3    H180467   2.367   6.720  14.406  1.7742 -0.1948  0.2516
19684TIP3    H280468   2.379   6.851  14.331  2.1676  0.3500  1.2577
19685TIP3   OH280469   4.384   2.864  12.272  0.2423 -0.0135  0.5521
19685TIP3    H180470   4.323   2.920  12.321 -1.4418  0.3345 -1.8417
19685TIP3    H280471   4.366   2.775  12.303 -0.2191  0.2919  1.1688
19686TIP3   OH280472   4.068   0.280  14.205 -0.4786 -0.2783  0.2212
19686TIP3    H180473   3.990   0.335  14.203 -0.8266 -0.7324 -3.5575
19686TIP3    H280474   4.034   0.191  14.194  0.4602 -0.6707  0.4284
19687TIP3   OH280475   6.423   1.719  15.583  0.6447  0.2006 -0.6160
19687TIP3    H180476   6.338   1.673  15.587  1.6390 -1.5285  1.8433
19687TIP3    H280477   6.411   1.796  15.639  1.3186 -1.1883  1.4940
19688TIP3   OH280478   0.401   4.447  15.556  0.1432 -0.2210  0.7206
19688TIP3    H180479   0.310   4.416  15.556  0.1129 -0.1642  2.5390
19688TIP3    H280480   0.394   4.540  15.578  0.6468 -0.2152  0.8528
19689TIP3   OH280481   4.232   6.763  15.191  0.6207  0.1840  0.4041
19689TIP3    H180482   4.327   6.755  15.199  0.5587  1.1159  2.4198
19689TIP3    H280483   4.210   6.710  15.114  2.6022 -1.3035  0.8091
19690TIP3   OH280484   1.054   4.755  14.592  0.3813 -0.0360  0.6320
19690TIP3    H180485   0.976   4.774  14.539  1.1464  2.4902  0.3719
19690TIP3    H280486   1.023   4.755  14.682 -0.3152 -1.2457  0.4163
19691TIP3   OH280487   2.311   1.766  12.903 -0.3040 -0.2371  0.2025
19691TIP3    H180488   2.398   1.753  12.942 -1.0000 -0.6925  1.6301
19691TIP3    H280489   2.276   1.844  12.946 -0.1783  0.5773 -1.1506
19692TIP3   OH280490   3.494   5.627  16.613  0.2842  0.2153  0.6503
19692TIP3    H180491   3.514   5.701  16.671 -0.2633  0.1325  0.9475
19692TIP3    H280492   3.399   5.630  16.603  0.3613  0.1378 -0.1257
19693TIP3   OH280493   1.753   2.822  15.199 -0.1939 -0.0463  0.2028
19693TIP3    H180494   1.835   2.775  15.213 -1.6616 -2.8178 -0.0273
19693TIP3    H280495   1.695   2.789  15.268 -1.4135  1.1327 -0.2461
19694TIP3   OH280496   5.461   4.593  11.576 -0.1846  0.3266  0.7804
19694TIP3    H180497   5.482   4.566  11.486 -2.7445  0.7960 -0.0030
19694TIP3    H280498   5.367   4.576  11.584 -0.4738  2.6452  2.5487
19695TIP3   OH280499   1.930   5.093   0.152 -0.8494  0.0006 -0.5606
19695TIP3    H180500   1.849   5.129   0.115 -0.2632  2.7318  0.6567
19695TIP3    H280501   1.961   5.162   0.211  2.3314 -1.0228 -0.9746
19696TIP3   OH280502   0.261   2.896   2.401 -1.2077 -0.1043 -0.1226
19696TIP3    H180503   0.285   2.858   2.486 -1.2454  1.2742  0.5223
19696TIP3    H280504   0.288   2.831   2.337  2.1564  0.3733  0.7091
19697TIP3   OH280505   0.073   5.057  12.767 -0.0467  0.5315 -0.3321
19697TIP3    H180506   0.101   5.128  12.709  0.0048  0.8345  0.0575
19697TIP3    H280507   0.039   5.102  12.845  0.5601  0.1205  0.1779
19698TIP3   OH280508   5.257   2.489  12.367  0.4256 -0.1489 -0.6361
19698TIP3    H180509   5.315   2.514  12.295  0.6101 -0.5552 -0.6300
19698TIP3    H280510   5.311   2.434  12.423 -0.0193 -0.6881 -0.7311
19699TIP3   OH280511   3.533   1.904   3.807 -0.1949  0.3607 -0.2526
19699TIP3    H180512   3.497   1.878   3.891 -2.1890 -0.4096 -1.3197
19699TIP3    H280513   3.625   1.878   3.811 -0.3761 -0.0547  1.5101
19700TIP3   OH280514   1.415   1.251   3.329  0.1873 -0.1754  0.0444
19700TIP3    H180515   1.432   1.340   3.296 -0.3588 -0.2070 -0.3330
19700TIP3    H280516   1.491   1.201   3.302  1.2237  0.5275  1.6090
19701TIP3   OH280517   1.656   4.883   5.194 -0.1585 -0.3405 -0.1116
19701TIP3    H180518   1.607   4.886   5.112 -0.2814 -1.9042 -0.0964
19701TIP3    H280519   1.732   4.829   5.175  0.8973  0.9830  0.2448
19702TIP3   OH280520   0.861   1.966   1.960  0.2377  0.3372 -0.1628
19702TIP3    H180521   0.820   2.052   1.961 -2.6420 -0.9755 -0.6454
19702TIP3    H280522   0.908   1.963   1.876  0.7056  1.5622  0.0455
19703TIP3   OH280523   1.662   6.368   2.173  0.0939 -0.2319 -0.0364
19703TIP3    H180524   1.654   6.376   2.078 -0.1771 -0.3494 -0.0225
19703TIP3    H280525   1.663   6.458   2.205  0.1452 -0.1934 -0.1477
19704TIP3   OH280526   1.265   3.468   4.979  0.3868  0.4151  0.3086
19704TIP3    H180527   1.205   3.420   5.037  1.3137 -1.5273 -0.3069
19704TIP3    H280528   1.214   3.483   4.899  0.3239 -0.1434  0.2452
19705TIP3   OH280529   6.626   3.324  13.823 -0.1132  0.2576  0.1682
19705TIP3    H180530   6.542   3.280  13.830  1.1755 -2.4729 -0.9008
19705TIP3    H280531   6.683   3.262  13.777  2.3920  2.1670  0.5337
19706TIP3   OH280532   5.139   5.391  14.679 -0.4662 -0.2345 -0.2030
19706TIP3    H180533   5.227   5.413  14.709 -0.8559 -0.0761  0.8367
19706TIP3    H280534   5.145   5.301  14.649  0.4895  0.3625 -1.8809
19707TIP3   OH280535   6.084   0.074   0.834  0.4952  0.0801  0.5846
19707TIP3    H180536   6.051   0.024   0.760  0.8150  2.3537 -1.1426
19707TIP3    H280537   6.170   0.105   0.807  0.4970  1.1948  1.7743
19708TIP3   OH280538   5.475   1.673  13.566  0.2955  0.3459  0.3331
19708TIP3    H180539   5.476   1.769  13.571  2.2211  0.2985  1.1242
19708TIP3    H280540   5.518   1.644  13.646 -0.3566 -1.1917  0.1429
19709TIP3   OH280541   5.166   1.350   2.797  0.3141 -0.2573  0.2813
19709TIP3    H180542   5.124   1.288   2.738  0.5609  1.0738 -1.3275
19709TIP3    H280543   5.095   1.406   2.828  0.3215 -0.4091  0.5768
19710TIP3   OH280544   3.506   0.451   2.063 -0.4136  0.5021  0.4716
19710TIP3    H180545   3.457   0.525   2.099 -0.5829  0.4425  0.3650
19710TIP3    H280546   3.454   0.422   1.988 -0.2802  0.3584  0.4348
19711TIP3   OH280547   6.252   1.446   6.113  0.0745 -0.6673 -0.5665
19711TIP3    H180548   6.227   1.527   6.156 -1.1375 -1.3560  0.0693
19711TIP3    H280549   6.319   1.471   6.049 -1.7862  1.1571 -1.8420
19712TIP3   OH280550   2.209   3.614  13.889  0.2195 -0.3243  0.2286
19712TIP3    H180551   2.115   3.595  13.883 -0.0240  1.1278 -0.8754
19712TIP3    H280552   2.240   3.608  13.798  0.9508  0.3697  0.4362
19713TIP3   OH280553   3.977   3.834   2.991 -0.3175 -1.0670 -0.5725
19713TIP3    H180554   3.938   3.771   3.051 -0.7347 -0.5274 -0.2734
19713TIP3    H280555   4.038   3.783   2.939 -1.0722 -1.8333 -0.7225
19714TIP3   OH280556   1.428   2.119   5.862 -0.1772 -0.9707 -0.0791
19714TIP3    H180557   1.341   2.130   5.901  0.3239 -0.4142  0.8882
19714TIP3    H280558   1.467   2.046   5.911  0.2674 -0.5880  0.1402
19715TIP3   OH280559   1.158   3.469   1.723  0.2670 -0.0574  0.0894
19715TIP3    H180560   1.168   3.439   1.633 -0.9412  0.5028 -0.2520
19715TIP3    H280561   1.241   3.511   1.743  0.7115 -0.5775 -0.6084
19716TIP3   OH280562   5.772   3.132   6.152 -0.2268 -0.1996 -0.6733
19716TIP3    H180563   5.677   3.134   6.162 -0.1732  0.0040 -0.1647
19716TIP3    H280564   5.802   3.072   6.220  0.2197  1.8705  1.0360
19717TIP3   OH280565   3.940   3.859   2.071  0.5500 -0.3654 -0.2772
19717TIP3    H180566   3.960   3.787   2.130 -0.2297 -1.8313 -1.7670
19717TIP3    H280567   4.000   3.848   1.998  1.1432  1.1207 -0.0343
19718TIP3   OH280568   6.332   4.305  12.923  0.0526 -0.3541  0.0486
19718TIP3    H180569   6.335   4.270  13.012  1.5266  1.5495  0.7729
19718TIP3    H280570   6.250   4.354  12.920 -0.3087 -0.9372  0.1292
19719TIP3   OH280571   2.452   5.777   4.406  0.1141  0.5843 -0.0583
19719TIP3    H180572   2.510   5.721   4.355 -1.2124  0.8547 -1.9431
19719TIP3    H280573   2.510   5.838   4.452  1.4425 -0.9350  0.2922
19720TIP3   OH280574   5.414   0.865   0.298  0.2643  0.5623 -0.1362
19720TIP3    H180575   5.426   0.923   0.223 -2.4654  0.8260 -0.4007
19720TIP3    H280576   5.461   0.785   0.274  0.7288  1.2107 -1.4475
19721TIP3   OH280577   0.539   4.599   1.417 -0.3696  0.1185  0.6144
19721TIP3    H180578   0.484   4.668   1.453 -0.2368  0.6853 -0.2538
19721TIP3    H280579   0.500   4.518   1.449 -1.9215  0.4920 -0.2783
19722TIP3   OH280580   2.589   6.725  12.834  0.0504 -0.0554 -0.1278
19722TIP3    H180581   2.622   6.732  12.924 -1.0913 -2.8352  0.5517
19722TIP3    H280582   2.663   6.753  12.779  0.8666  1.3479  1.6382
19723TIP3   OH280583   6.728   4.028   2.993 -0.5280 -0.3820  0.1950
19723TIP3    H180584   6.779   4.031   3.074  0.7543 -1.3704 -0.5512
19723TIP3    H280585   6.767   4.095   2.938 -2.2469  1.2015  0.8497
19724TIP3   OH280586   1.323   2.042   3.546 -0.6314 -0.5236 -0.6284
19724TIP3    H180587   1.397   1.986   3.523 -0.8833 -0.2714 -2.1171
19724TIP3    H280588   1.309   2.027   3.639 -0.0541 -2.1809 -0.7979
19725TIP3   OH280589   5.803   2.733  11.341  0.1812  0.1763 -0.0950
19725TIP3    H180590   5.866   2.805  11.333  1.4970 -1.0086 -0.6665
19725TIP3    H280591   5.857   2.654  11.337 -1.2674 -0.8498  0.3075
19726TIP3   OH280592   5.510   2.686   5.947  0.0843 -0.6865  0.4230
19726TIP3    H180593   5.427   2.722   5.917 -1.0866 -1.8763  2.1205
19726TIP3    H280594   5.537   2.744   6.018  1.5094  0.5896 -1.1230
19727TIP3   OH280595   2.922   1.341  12.097 -0.5361 -0.2256  0.3137
19727TIP3    H180596   2.900   1.271  12.159 -0.7229 -0.6197 -0.1971
19727TIP3    H280597   2.919   1.299  12.011 -0.9035  0.4707 -0.0179
19728TIP3   OH280598   2.102   6.067  16.508  0.3604  0.2363  0.2333
19728TIP3    H180599   2.084   6.156  16.477  0.2219  0.7607  1.7507
19728TIP3    H280600   2.197   6.057  16.498  0.1513 -0.0769 -1.5240
19729TIP3   OH280601   3.472   3.786   4.959  0.2032 -0.1387  0.2876
19729TIP3    H180602   3.456   3.846   4.886  2.3131 -0.4202 -0.4652
19729TIP3    H280603   3.391   3.786   5.009 -2.9235 -3.0870 -4.3050
19730TIP3   OH280604   5.185   5.232   4.818  0.8411 -0.3038 -0.0797
19730TIP3    H180605   5.212   5.226   4.909  3.2588 -1.7317 -0.8267
19730TIP3    H280606   5.236   5.304   4.782 -0.3098  0.4404 -0.2692
19731TIP3   OH280607   0.148   5.037   3.632  0.5070  0.3028  0.3609
19731TIP3    H180608   0.212   5.034   3.562  1.7031 -0.0465  1.4456
19731TIP3    H280609   0.195   5.076   3.706 -0.2720 -0.7200  1.4192
19732TIP3   OH280610   5.902   2.697  15.069  0.8095  0.8016  0.5397
19732TIP3    H180611   5.881   2.781  15.027 -0.5030 -0.1414 -0.7539
19732TIP3    H280612   5.912   2.636  14.996  1.5080 -0.2381  1.4816
19733TIP3   OH280613   6.383   5.727   1.637  0.1478 -0.4160 -0.4548
19733TIP3    H180614   6.405   5.673   1.713 -0.0303 -0.8388 -0.7018
19733TIP3    H280615   6.369   5.815   1.673  2.3907 -0.1034 -0.3129
19734TIP3   OH280616   2.011   1.660   5.938  0.8645  0.0073  0.4293
19734TIP3    H180617   2.065   1.730   5.975 -2.4738  1.5708  2.5644
19734TIP3    H280618   1.962   1.702   5.867  0.9305 -0.8863 -0.1579
19735TIP3   OH280619   2.823   3.798  14.471  0.0293 -0.5518 -0.0408
19735TIP3    H180620   2.866   3.766  14.551 -0.0541 -1.7079 -0.4576
19735TIP3    H280621   2.739   3.834  14.502  0.0247 -0.9430  0.4067
19736TIP3   OH280622   0.520   2.545  16.978 -0.0229 -0.4264  0.3435
19736TIP3    H180623   0.560   2.471  16.933  0.5767 -1.1405  1.9904
19736TIP3    H280624   0.567   2.551  17.061 -0.5436  1.3668  0.5456
19737TIP3   OH280625   1.858   6.304   0.385 -0.4357 -0.0586  0.1870
19737TIP3    H180626   1.786   6.298   0.322 -0.6361 -0.1103  0.4206
19737TIP3    H280627   1.914   6.230   0.365 -1.0855 -0.7228  0.8002
19738TIP3   OH280628   2.098   3.235   1.756 -0.2197 -0.2353  1.1736
19738TIP3    H180629   2.012   3.241   1.714  0.3105  0.5580  0.2061
19738TIP3    H280630   2.083   3.176   1.830 -1.2314 -1.3763  0.0907
19739TIP3   OH280631   3.300   1.875   5.180 -0.1522  0.5800  0.1386
19739TIP3    H180632   3.207   1.894   5.175  0.0220  2.4836  2.9298
19739TIP3    H280633   3.307   1.806   5.247  0.2044 -1.9310 -2.3861
19740TIP3   OH280634   4.160   3.776  13.126  0.3515 -0.3762 -0.0097
19740TIP3    H180635   4.157   3.868  13.100  1.5352  0.5343  2.8927
19740TIP3    H280636   4.253   3.755  13.130  0.1863 -0.7946  2.2280
19741TIP3   OH280637   6.446   0.350   6.237 -0.3368  0.2291 -0.0789
19741TIP3    H180638   6.362   0.305   6.240  0.4231 -1.2367 -0.4463
19741TIP3    H280639   6.449   0.401   6.318 -1.1654 -0.4600  0.3931
19742TIP3   OH280640   2.588   4.438   3.760  0.0040 -0.3942 -0.1970
19742TIP3    H180641   2.575   4.361   3.816  0.6578  0.1550  0.7303
19742TIP3    H280642   2.671   4.421   3.715 -1.3045 -1.5526 -2.2085
19743TIP3   OH280643   3.140   0.788   2.721  0.1782  0.1297  0.8845
19743TIP3    H180644   3.113   0.776   2.812 -0.3953  4.9616  1.4966
19743TIP3    H280645   3.235   0.798   2.725  0.1515  0.3562  0.9806
19744TIP3   OH280646   4.707   2.163   6.069  0.6500  0.1114  0.0464
19744TIP3    H180647   4.651   2.239   6.054 -1.7332 -1.7952 -1.1488
19744TIP3    H280648   4.688   2.137   6.159  0.5013  0.1938  0.0396
19745TIP3   OH280649   3.090   5.260   0.025 -0.0006 -0.0113 -0.5196
19745TIP3    H180650   3.051   5.282  -0.059 -1.8187 -0.9732  0.0583
19745TIP3    H280651   3.016   5.255   0.086  1.2417  0.2915  1.0656
19746TIP3   OH280652   5.029   1.398  12.747  0.1801 -0.5758 -0.0780
19746TIP3    H180653   5.080   1.449  12.684 -0.3746  0.5560  0.3533
19746TIP3    H280654   5.023   1.311  12.709  1.5344 -0.4378 -0.6280
19747TIP3   OH280655   0.811   5.142   1.150  0.1474 -0.0135 -0.6731
19747TIP3    H180656   0.875   5.212   1.140 -1.5923  1.3558 -2.5529
19747TIP3    H280657   0.818   5.115   1.242  0.4168  3.0087  0.2266
19748TIP3   OH280658   4.376   2.051   4.114  0.3135 -0.5832 -0.1301
19748TIP3    H180659   4.446   2.105   4.150  0.0162 -0.8085  0.8149
19748TIP3    H280660   4.320   2.031   4.189 -0.1056 -1.4014 -0.6449
19749TIP3   OH280661   6.051   4.655   5.261 -0.0247  0.3573 -0.4644
19749TIP3    H180662   6.115   4.629   5.327 -0.4958  1.3988  0.3945
19749TIP3    H280663   6.084   4.737   5.225 -0.7244  0.7511 -0.2224
19750TIP3   OH280664   0.423   2.210   3.248 -0.0190 -0.4872 -0.4623
19750TIP3    H180665   0.362   2.139   3.266 -0.7555  0.2804  0.0698
19750TIP3    H280666   0.372   2.290   3.260  1.1080  0.1616  0.0766
19751TIP3   OH280667   0.811   0.296   1.209 -0.0573 -0.2939 -0.1261
19751TIP3    H180668   0.906   0.308   1.202 -0.1917 -0.3919 -2.5056
19751TIP3    H280669   0.795   0.289   1.303  2.4358 -1.3725  0.2617
19752TIP3   OH280670   6.327   3.675  12.977 -0.1641 -0.1132 -0.3785
19752TIP3    H180671   6.296   3.765  12.962 -1.1809  0.1878  3.0113
19752TIP3    H280672   6.253   3.620  12.952 -0.3009  0.1166 -0.4858
19753TIP3   OH280673   0.117   3.473   2.218 -0.3674  0.7301 -0.0316
19753TIP3    H180674   0.027   3.470   2.185  0.1254  0.0083 -1.3396
19753TIP3    H280675   0.130   3.564   2.243 -1.8110  0.6291  1.1573
19754TIP3   OH280676   5.793   0.725   5.228 -0.2097  0.2643 -0.0063
19754TIP3    H180677   5.813   0.816   5.252  2.5988 -0.3189  0.0435
19754TIP3    H280678   5.877   0.680   5.234 -0.2959 -1.0922 -5.9341
19755TIP3   OH280679   6.196   6.428   2.319  0.5855 -0.9274  0.8569
19755TIP3    H180680   6.247   6.362   2.367 -0.5245 -2.5631 -0.1867
19755TIP3    H280681   6.123   6.379   2.281  0.6943  0.5849 -1.3916
19756TIP3   OH280682   6.488   3.639  11.295  0.7522  0.1793  0.6591
19756TIP3    H180683   6.451   3.715  11.251  1.7130  0.3340  0.1216
19756TIP3    H280684   6.448   3.640  11.383 -1.0137 -0.0278 -0.1237
19757TIP3   OH280685   4.750   1.478  14.986 -0.7796  0.2494 -0.3017
19757TIP3    H180686   4.808   1.517  15.052  0.2485 -1.7174 -0.0038
19757TIP3    H280687   4.810   1.432  14.926 -2.0073 -2.0522  0.1729
19758TIP3   OH280688   1.948   1.301   1.213 -0.0367 -0.4289  0.1993
19758TIP3    H180689   1.991   1.282   1.129  1.0903 -0.6271  0.8087
19758TIP3    H280690   2.014   1.348   1.264 -0.7782 -0.1429  0.9124
19759TIP3   OH280691   6.328   4.905   4.953  0.0253  0.0603 -0.6506
19759TIP3    H180692   6.403   4.876   4.902  0.1603 -1.3966  0.3188
19759TIP3    H280693   6.360   4.979   5.004  0.0833  1.0645 -2.1062
19760TIP3   OH280694   4.609   4.182   2.581 -0.5210  0.2328 -0.5207
19760TIP3    H180695   4.686   4.219   2.624 -0.9346  0.2376  0.2296
19760TIP3    H280696   4.598   4.097   2.622 -1.1047  0.3671 -0.3958
19761TIP3   OH280697   5.481   4.866  15.582  0.4996  0.1692 -0.5399
19761TIP3    H180698   5.458   4.794  15.523 -1.3155 -0.8186  1.3269
19761TIP3    H280699   5.454   4.945  15.536 -1.8364 -0.6568 -0.6302
19762TIP3   OH280700   4.035   1.911  10.562 -0.1856 -0.6685  0.5923
19762TIP3    H180701   4.077   1.991  10.530 -0.9149 -0.1191  0.9740
19762TIP3    H280702   4.068   1.842  10.505 -0.1354  0.0285 -0.2381
19763TIP3   OH280703   2.197   2.395  14.029  0.5791 -0.3395  0.3334
19763TIP3    H180704   2.194   2.484  14.065 -0.3051 -0.7789  1.3609
19763TIP3    H280705   2.137   2.397  13.955 -0.0690 -0.2924  0.8547
19764TIP3   OH280706   1.123   1.180  14.254 -0.1580  0.0970  0.3602
19764TIP3    H180707   1.052   1.241  14.275  0.4819  0.9326  0.1101
19764TIP3    H280708   1.161   1.214  14.173  0.9507  0.0111  0.8397
19765TIP3   OH280709   1.530   6.469  11.498  0.4603  0.2221  0.8824
19765TIP3    H180710   1.508   6.484  11.406  1.8485  1.9983  0.8148
19765TIP3    H280711   1.618   6.431  11.496 -0.0523 -1.0142  1.4184
19766TIP3   OH280712   5.731   4.133   0.829 -0.2999  0.2490  0.2759
19766TIP3    H180713   5.780   4.201   0.784 -0.2434 -0.3154 -0.5189
19766TIP3    H280714   5.658   4.112   0.770 -0.7736  0.1922  0.8776
19767TIP3   OH280715   0.746   2.883  13.984  0.8811  0.4906  0.1692
19767TIP3    H180716   0.724   2.797  13.948  2.3441 -0.0868  0.6028
19767TIP3    H280717   0.838   2.895  13.961  0.1436  2.8934 -1.7428
19768TIP3   OH280718   1.170   0.802  15.698 -0.6942 -0.1770  0.5679
19768TIP3    H180719   1.201   0.870  15.639 -1.3809 -0.6423 -0.3396
19768TIP3    H280720   1.238   0.796  15.766  0.1217  0.3359 -0.1886
19769TIP3   OH280721   4.104   4.036   5.383  0.1512  0.2967  0.2530
19769TIP3    H180722   4.039   4.080   5.437 -1.0080 -0.4936 -0.4638
19769TIP3    H280723   4.150   4.107   5.337 -0.1688  0.8575  0.7926
19770TIP3   OH280724   5.596   6.262  11.639  0.1344  0.1116  0.3646
19770TIP3    H180725   5.628   6.298  11.556 -1.8545 -0.8714 -0.8588
19770TIP3    H280726   5.620   6.328  11.704  1.1135  1.2241 -1.0807
19771TIP3   OH280727   3.704   3.083   5.702  0.8769 -0.3407  0.3094
19771TIP3    H180728   3.748   3.016   5.755 -0.1121  0.5758  2.3404
19771TIP3    H280729   3.753   3.164   5.720 -0.1637  0.2047  0.7146
19772TIP3   OH280730   6.055   1.894  15.734 -0.4948 -0.0437  0.2432
19772TIP3    H180731   6.025   1.963  15.794  1.2308 -2.0293  3.5671
19772TIP3    H280732   5.989   1.826  15.741  0.5416 -0.9787  1.2538
19773TIP3   OH280733   1.321   5.321   5.939  0.3107 -0.3280 -0.3570
19773TIP3    H180734   1.278   5.406   5.932  0.0866 -0.4377 -0.2930
19773TIP3    H280735   1.251   5.259   5.956  0.2575 -0.7759 -2.0688
19774TIP3   OH280736   5.421   0.390   2.284 -0.0906 -0.3861 -0.3575
19774TIP3    H180737   5.386   0.451   2.348  1.1316 -1.4289  1.3668
19774TIP3    H280738   5.347   0.334   2.261 -0.4126 -0.3564  0.5868
19775TIP3   OH280739   2.737   3.476   0.721 -0.1873 -0.0547 -0.2736
19775TIP3    H180740   2.664   3.448   0.665  0.1440 -0.9172 -0.2809
19775TIP3    H280741   2.699   3.543   0.778 -0.4904  0.9341 -1.6206
19776TIP3   OH280742   6.166   6.508  14.335 -0.1227  0.7808 -0.2848
19776TIP3    H180743   6.227   6.578  14.311  0.1741  0.1945 -1.2462
19776TIP3    H280744   6.201   6.472  14.416  1.2664 -0.1012 -1.2652
19777TIP3   OH280745   4.011   6.541   0.175  0.1035  0.5462 -0.0573
19777TIP3    H180746   4.034   6.482   0.246 -0.8201 -1.3831 -1.2974
19777TIP3    H280747   3.995   6.483   0.100  0.9892  2.5029 -1.8240
19778TIP3   OH280748   3.292   4.289   4.805  0.6832 -0.3611  0.5486
19778TIP3    H180749   3.340   4.365   4.772  0.2463  0.0033  0.7542
19778TIP3    H280750   3.361   4.225   4.825  0.9608 -0.5514 -0.9510
19779TIP3   OH280751   4.179   5.350  11.391 -0.3275 -0.0017  0.0225
19779TIP3    H180752   4.241   5.415  11.357  0.5677 -1.1385 -0.5860
19779TIP3    H280753   4.211   5.266  11.356 -0.8454 -0.9005  1.6637
19780TIP3   OH280754   0.840   4.275  10.669  0.1464  0.4188 -0.3599
19780TIP3    H180755   0.773   4.241  10.727  1.1515 -0.6320  0.2040
19780TIP3    H280756   0.825   4.230  10.585  0.8061 -0.6385  0.0768
19781TIP3   OH280757   6.543   4.008  13.252 -0.1100  0.2103  0.1422
19781TIP3    H180758   6.465   4.011  13.196  0.5963  3.1916 -0.8148
19781TIP3    H280759   6.602   3.947  13.208 -0.7996  0.1384 -0.6951
19782TIP3   OH280760   5.432   6.478  12.543 -0.0858  0.0132 -0.2377
19782TIP3    H180761   5.408   6.394  12.504 -0.4055 -0.3594  0.7233
19782TIP3    H280762   5.357   6.500  12.599 -0.1027  1.0556 -0.6588
19783TIP3   OH280763   2.572   4.317  15.637 -0.0745  0.1154  0.0037
19783TIP3    H180764   2.505   4.383  15.653 -1.2725 -0.9508 -0.5018
19783TIP3    H280765   2.654   4.356  15.669 -1.2393  0.7073  2.3217
19784TIP3   OH280766   6.536   2.951  11.617  0.6892  0.2178  0.1714
19784TIP3    H180767   6.473   3.014  11.583 -2.0831 -1.5282  1.8703
19784TIP3    H280768   6.547   2.974  11.709  2.6864  0.5811 -0.1258
19785TIP3   OH280769   4.228   0.158   5.847 -0.1365  0.4553 -0.2296
19785TIP3    H180770   4.285   0.223   5.888  1.7196 -0.6616 -0.9990
19785TIP3    H280771   4.213   0.190   5.759 -0.4820  0.6109 -0.1149
19786TIP3   OH280772   1.800   5.839  16.709  0.6914 -0.0847 -0.5130
19786TIP3    H180773   1.722   5.791  16.736  0.6574  0.7274  0.8988
19786TIP3    H280774   1.793   5.846  16.614 -1.9694  1.7114 -0.2273
19787TIP3   OH280775   1.618   1.405   1.697 -0.4623 -0.6848 -0.1980
19787TIP3    H180776   1.696   1.363   1.731  0.4801  1.2948  0.1738
19787TIP3    H280777   1.559   1.411   1.772  0.1635  0.3510  0.2302
19788TIP3   OH280778   1.360   0.934   1.318  0.7284 -0.8425 -0.5426
19788TIP3    H180779   1.421   0.883   1.371  1.5404 -1.3251 -1.8982
19788TIP3    H280780   1.333   0.874   1.248 -0.1563 -0.1645 -0.7861
19789TIP3   OH280781   5.886   5.629  12.941  0.2684  0.0758 -0.4404
19789TIP3    H180782   5.891   5.695  12.871  0.5431  0.1998 -0.3038
19789TIP3    H280783   5.921   5.550  12.902  0.4842  0.1631 -0.4246
19790TIP3   OH280784   6.300   1.575  15.904 -0.5237  0.0894  0.4628
19790TIP3    H180785   6.335   1.509  15.843  0.9110  1.0067  0.2678
19790TIP3    H280786   6.242   1.526  15.962 -1.1177 -0.9771 -1.0031
19791TIP3   OH280787   0.172   0.338   0.930 -0.1224  0.4176  0.0797
19791TIP3    H180788   0.230   0.383   0.992 -1.3366 -0.9260  2.2621
19791TIP3    H280789   0.217   0.256   0.910  0.2625  0.8439 -0.8543
19792TIP3   OH280790   2.368   4.921  12.948  0.9274 -0.4007  0.3005
19792TIP3    H180791   2.380   4.845  12.891  0.1747  0.0026 -0.4039
19792TIP3    H280792   2.447   4.973  12.937  1.0616 -0.6409  0.1227
19793TIP3   OH280793   4.182   1.851  15.165  0.3743 -0.9202 -0.2054
19793TIP3    H180794   4.128   1.819  15.237 -2.1910 -0.3339 -1.7950
19793TIP3    H280795   4.185   1.779  15.102 -1.4627  0.2066 -1.6539
19794TIP3   OH280796   4.781   0.103  16.242 -0.0322  0.0897 -1.0051
19794TIP3    H180797   4.788   0.012  16.268 -0.7613 -0.0767 -1.3634
19794TIP3    H280798   4.813   0.153  16.317 -2.8550 -0.3518  0.5504
19795TIP3   OH280799   5.179   3.712  13.610  0.2839 -0.3549 -0.2951
19795TIP3    H180800   5.095   3.667  13.616  1.4889 -3.0243 -2.1077
19795TIP3    H280801   5.194   3.723  13.516  1.7317  0.5036  0.0128
19796TIP3   OH280802   0.966   0.970  14.023 -0.6142 -0.4514 -0.0318
19796TIP3    H180803   1.011   1.034  13.968 -0.3881  0.3029  1.0037
19796TIP3    H280804   0.874   0.995  14.019 -0.5327 -0.0980  0.3278
19797TIP3   OH280805   1.078   1.078  14.791  0.1139 -0.3509 -0.1717
19797TIP3    H180806   1.081   1.111  14.880 -0.1269  1.1044 -0.6804
19797TIP3    H280807   1.140   1.133  14.743 -0.3183 -0.6184 -1.0533
19798TIP3   OH280808   1.241   3.510   0.370  0.1138 -0.1210  0.1076
19798TIP3    H180809   1.261   3.565   0.445  1.4611 -1.3337  0.6550
19798TIP3    H280810   1.149   3.484   0.383  0.4309 -0.5870  1.5073
19799TIP3   OH280811   2.110   6.718   3.523  0.9253  0.2593  0.7500
19799TIP3    H180812   2.061   6.749   3.447 -0.7229  2.3797  2.6146
19799TIP3    H280813   2.066   6.636   3.548  0.8485  0.0825  0.0570
19800TIP3   OH280814   5.965   6.383  11.101 -0.5429  0.5053  0.9718
19800TIP3    H180815   5.921   6.327  11.037  0.3211  1.2077 -0.2588
19800TIP3    H280816   6.037   6.329  11.133  0.4046  0.9444 -0.3522
19801TIP3   OH280817   0.702   3.221   2.108  0.1598 -0.1506 -0.3306
19801TIP3    H180818   0.743   3.274   2.039 -0.7151  3.5320  1.8281
19801TIP3    H280819   0.608   3.230   2.092 -0.0223 -2.8927 -1.1514
19802TIP3   OH280820   5.661   6.295  16.175  0.8063  0.2187  0.3093
19802TIP3    H180821   5.723   6.236  16.131  0.6624 -0.8901  1.5591
19802TIP3    H280822   5.605   6.328  16.105  2.6896  1.0952 -0.8250
19803TIP3   OH280823   3.551   4.623  16.118  0.2553  0.1974 -0.1733
19803TIP3    H180824   3.503   4.561  16.173  0.6501  0.2990  0.2869
19803TIP3    H280825   3.543   4.587  16.030  0.5884 -0.5731  0.1041
19804TIP3   OH280826   5.080   4.758  15.193  0.2504 -0.3880  0.4798
19804TIP3    H180827   5.092   4.700  15.268  0.8912 -0.2663  0.4691
19804TIP3    H280828   5.077   4.846  15.230 -0.8129 -0.4206  0.5051
19805TIP3   OH280829   0.506   6.427  12.858  0.5248  0.2021 -0.6015
19805TIP3    H180830   0.423   6.458  12.893  0.5817 -1.8759  1.5047
19805TIP3    H280831   0.564   6.504  12.863 -0.5915  1.0047  0.1726
19806TIP3   OH280832   5.492   6.296   1.850  0.2046 -0.1032 -0.0084
19806TIP3    H180833   5.487   6.284   1.755  2.1733  1.2367 -0.3236
19806TIP3    H280834   5.543   6.221   1.881 -1.9011 -1.4569  0.2280
19807TIP3   OH280835   2.846   5.440  13.079  0.0481  0.2505  0.2589
19807TIP3    H180836   2.786   5.450  13.005 -0.9750 -2.1172  0.7295
19807TIP3    H280837   2.846   5.527  13.121  0.3493  1.5124 -2.2408
19808TIP3   OH280838   3.297   6.371   2.722 -0.0052  0.6091  0.5898
19808TIP3    H180839   3.377   6.394   2.674  0.0161  0.3066  0.4763
19808TIP3    H280840   3.329   6.327   2.801 -0.0355  1.2308  0.9556
19809TIP3   OH280841   2.239   1.423   3.643 -0.0119 -0.1863 -0.4834
19809TIP3    H180842   2.328   1.432   3.675 -0.3117 -0.3835  0.4353
19809TIP3    H280843   2.229   1.492   3.578  0.7669 -0.0886 -0.5016
19810TIP3   OH280844   6.680   4.647  14.073 -0.0638  0.1951 -0.2582
19810TIP3    H180845   6.631   4.570  14.045  1.9203 -1.1726 -0.0979
19810TIP3    H280846   6.627   4.721  14.045 -2.4299 -1.2345  0.3350
19811TIP3   OH280847   0.441   2.545   0.308 -0.1946 -0.0135  0.1512
19811TIP3    H180848   0.365   2.510   0.353 -0.8157  0.1340 -0.7723
19811TIP3    H280849   0.460   2.482   0.239 -0.0446  0.4169 -0.2067
19812TIP3   OH280850   5.214   0.753   5.968  0.1557 -0.3095  0.1635
19812TIP3    H180851   5.154   0.827   5.978  1.5553  0.9977 -0.8406
19812TIP3    H280852   5.210   0.732   5.874  0.7820 -0.6238  0.2071
19813TIP3   OH280853   5.946   1.256  15.834  0.4007  0.1800 -0.2729
19813TIP3    H180854   6.030   1.253  15.787  0.3163 -1.9908 -0.3630
19813TIP3    H280855   5.968   1.230  15.924 -0.3008 -1.4086 -0.5419
19814TIP3   OH280856   0.110   3.611   0.857  0.2424  0.5657 -0.6279
19814TIP3    H180857   0.116   3.700   0.823  0.3547 -0.6554 -3.9178
19814TIP3    H280858   0.096   3.556   0.780  0.8400 -2.3602  1.2677
19815TIP3   OH280859   4.353   1.019   5.929  0.2338 -0.1310  0.3305
19815TIP3    H180860   4.383   1.106   5.954 -0.1254 -0.1375  0.7882
19815TIP3    H280861   4.433   0.968   5.920  0.6588  0.9081 -2.5300
19816TIP3   OH280862   0.927   0.868   0.345  0.0017  0.0465 -0.0333
19816TIP3    H180863   0.965   0.950   0.374 -1.6027  0.4679  0.9254
19816TIP3    H280864   0.998   0.823   0.299  1.9254  0.3654  2.5461
19817TIP3   OH280865   6.033   1.820   4.571  0.2026 -0.0917 -0.2205
19817TIP3    H180866   6.099   1.830   4.640 -1.1577  0.9130  0.9554
19817TIP3    H280867   6.027   1.906   4.530 -1.1367  0.1173  0.3892
19818TIP3   OH280868   3.092   2.438   2.042 -0.7088  0.5443 -0.0054
19818TIP3    H180869   3.034   2.396   1.980 -1.4487  2.6388 -0.7727
19818TIP3    H280870   3.060   2.528   2.049 -0.2715  0.5309  2.9298
19819TIP3   OH280871   6.733   2.490  16.028  0.3406 -0.5641 -0.1027
19819TIP3    H180872   6.699   2.455  15.946  1.5233 -0.0553 -0.8164
19819TIP3    H280873   6.770   2.414  16.073  3.6524 -0.1412 -2.0183
19820TIP3   OH280874   6.237   2.443  16.535 -0.0205 -0.1835 -0.0266
19820TIP3    H180875   6.314   2.440  16.592  0.9528  2.0643 -1.1616
19820TIP3    H280876   6.175   2.500  16.581  0.5163  1.1141 -0.8887
19821TIP3   OH280877   1.519   3.348   0.563  0.0020  0.0562 -0.7094
19821TIP3    H180878   1.521   3.389   0.649  0.3497 -0.2786 -0.5567
19821TIP3    H280879   1.588   3.391   0.513 -1.1843  1.3078 -1.3136
19822TIP3   OH280880   6.480   0.109   4.885 -0.9696  0.4005  0.2968
19822TIP3    H180881   6.551   0.084   4.944 -0.6573  0.9484  0.1614
19822TIP3    H280882   6.470   0.034   4.827  1.7326  1.5712 -1.7813
19823TIP3   OH280883   2.024   4.303  12.450  0.2102  0.0304  0.1095
19823TIP3    H180884   2.053   4.370  12.513 -0.6964 -0.3436  0.9332
19823TIP3    H280885   1.972   4.242  12.502 -0.3555 -0.4168 -0.9649
19824TIP3   OH280886   5.025   6.775   4.286 -0.3771  0.0755  0.2900
19824TIP3    H180887   5.059   6.754   4.199 -0.3302 -0.3874  0.4211
19824TIP3    H280888   5.103   6.788   4.340 -0.4063  0.1531  0.3141
19825TIP3   OH280889   3.073   3.894  14.845 -0.6893  0.4597 -0.4014
19825TIP3    H180890   3.151   3.946  14.826 -1.0114  1.5498  1.1533
19825TIP3    H280891   3.095   3.806  14.815 -0.4139  1.6215 -3.7819
19826TIP3   OH280892   4.787   4.488   4.724  0.2620 -0.1720 -0.4364
19826TIP3    H180893   4.726   4.561   4.737 -0.5877 -1.0623  0.6719
19826TIP3    H280894   4.779   4.466   4.631  1.2621  1.7858 -0.9973
19827TIP3   OH280895   0.321   6.312  12.544 -0.5423 -0.4173 -0.2494
19827TIP3    H180896   0.283   6.249  12.606 -1.3281 -0.1081 -0.4095
19827TIP3    H280897   0.261   6.386  12.546 -1.1879 -0.8523 -2.1921
19828TIP3   OH280898   2.678   6.758   5.955  0.3660 -1.1391  0.4036
19828TIP3    H180899   2.596   6.800   5.981  1.3072  0.1230  1.4544
19828TIP3    H280900   2.739   6.831   5.944  1.3586 -2.0634 -0.3423
19829TIP3   OH280901   1.041   5.566  16.590 -0.5073  0.1867  0.0997
19829TIP3    H180902   0.972   5.630  16.571 -0.9241  0.9962  3.8589
19829TIP3    H280903   0.994   5.489  16.621  0.1647 -0.2709 -0.0263
19830TIP3   OH280904   0.001   2.392  12.220 -0.2657 -0.4661 -0.0265
19830TIP3    H180905   0.039   2.363  12.137  0.2155 -1.4999  0.5381
19830TIP3    H280906  -0.022   2.483  12.206  0.7592 -0.3449 -0.9792
19831TIP3   OH280907   1.798   2.314   1.628 -0.4574 -0.2664  0.1152
19831TIP3    H180908   1.823   2.347   1.541  0.1183 -0.8872  0.0427
19831TIP3    H280909   1.704   2.296   1.621 -0.1412 -1.6125 -0.8024
19832TIP3   OH280910   0.862   4.186   2.575  0.5054 -0.0618 -0.0104
19832TIP3    H180911   0.790   4.179   2.513 -0.1223 -0.7400  0.7844
19832TIP3    H280912   0.936   4.216   2.523  0.3219 -1.8532 -1.3354
19833TIP3   OH280913   1.560   4.437  12.399  0.0143 -0.0324  0.4266
19833TIP3    H180914   1.475   4.480  12.408  1.1005  1.9076  1.7009
19833TIP3    H280915   1.588   4.422  12.489  0.6208 -1.4900  0.0014
19834TIP3   OH280916   6.687   6.240   4.815  0.4511  0.0826  0.8083
19834TIP3    H180917   6.777   6.208   4.813  0.8289  1.1097  0.8606
19834TIP3    H280918   6.695   6.331   4.846 -0.7332 -0.2443  2.1170
19835TIP3   OH280919   0.835   5.229  15.240 -0.2250  0.0996 -0.0162
19835TIP3    H180920   0.784   5.309  15.232  0.1019  0.4050  0.8497
19835TIP3    H280921   0.921   5.259  15.272 -0.0859 -0.5862  0.2553
19836TIP3   OH280922   2.897   5.616  15.042 -0.3534  0.2624 -0.4748
19836TIP3    H180923   2.991   5.594  15.039 -0.4005  0.1965 -2.6163
19836TIP3    H280924   2.863   5.566  15.116  0.7710 -1.9982 -1.4281
19837TIP3   OH280925   3.067   5.860  14.370  0.4624 -0.0471  0.3680
19837TIP3    H180926   3.081   5.950  14.402  0.9857  0.5269 -1.4257
19837TIP3    H280927   3.150   5.816  14.385  0.5714  0.0944  0.1747
19838TIP3   OH280928   3.698   5.034  15.119  0.5557 -1.0409  0.1615
19838TIP3    H180929   3.671   5.002  15.205 -0.1365 -1.7133 -0.3004
19838TIP3    H280930   3.669   4.966  15.058 -2.6932  1.3211 -1.0559
19839TIP3   OH280931   1.563   5.923  14.084 -0.2434 -0.0532 -0.0532
19839TIP3    H180932   1.614   5.980  14.141 -1.7107  0.6154  0.6097
19839TIP3    H280933   1.537   5.979  14.011 -0.9578 -0.1084  0.1618
19840TIP3   OH280934   4.203   0.598  14.943  0.4249 -0.1197  0.2023
19840TIP3    H180935   4.260   0.580  15.018  1.1319 -0.5764 -0.4295
19840TIP3    H280936   4.259   0.646  14.882  0.1938 -0.7295 -0.4971
19841TIP3   OH280937   6.112   2.616  13.367 -0.4104 -0.1196 -0.0710
19841TIP3    H180938   6.046   2.675  13.331 -1.1723 -0.9749 -0.1067
19841TIP3    H280939   6.195   2.645  13.328 -0.9460  0.1909 -0.9754
19842TIP3   OH280940   2.525   4.310   0.627 -0.1717 -0.2051  0.2377
19842TIP3    H180941   2.584   4.297   0.702  1.7176 -3.0644 -1.6582
19842TIP3    H280942   2.583   4.328   0.553 -1.9277  0.8769 -0.9194
19843TIP3   OH280943   2.149   6.569  13.182 -0.0774 -0.1839  0.3396
19843TIP3    H180944   2.109   6.656  13.180 -0.4950 -0.3926 -0.7259
19843TIP3    H280945   2.231   6.579  13.133 -0.7156 -0.6644 -0.8531
19844TIP3   OH280946   1.997   1.355   6.178 -0.1616 -0.2506  0.2217
19844TIP3    H180947   1.982   1.318   6.265 -3.3859  1.1369  0.3283
19844TIP3    H280948   1.994   1.450   6.192  0.5018 -0.0153 -1.1956
19845TIP3   OH280949   5.963   5.240  15.282  0.2229 -0.2544 -0.0479
19845TIP3    H180950   5.977   5.242  15.376  2.0881 -0.0456 -0.3059
19845TIP3    H280951   6.000   5.156  15.254  0.3167 -0.0060 -0.6856
19846TIP3   OH280952   6.567   5.991  11.685 -0.1426  0.1294 -0.3743
19846TIP3    H180953   6.498   5.955  11.629 -0.1463 -0.7520  0.1827
19846TIP3    H280954   6.588   5.919  11.745  0.5719  0.7275  0.0888
19847TIP3   OH280955   0.049   6.644   5.891 -0.6528  0.0389 -0.0452
19847TIP3    H180956   0.001   6.578   5.941 -0.3694  0.8974  1.3769
19847TIP3    H280957  -0.016   6.710   5.868 -0.1578  1.2695  1.9969
19848TIP3   OH280958   5.882   2.347   5.618  0.0158 -0.1758 -0.0304
19848TIP3    H180959   5.815   2.364   5.551  0.1145  0.8002  0.1148
19848TIP3    H280960   5.941   2.422   5.613  1.7356 -1.5439 -0.8956
19849TIP3   OH280961   3.650   3.847   3.014  0.0693  0.1225  0.4147
19849TIP3    H180962   3.728   3.885   2.972  0.8540 -2.0027 -0.1490
19849TIP3    H280963   3.685   3.777   3.069 -1.3664 -0.1057  1.0537
19850TIP3   OH280964   0.033   0.219  16.806 -0.6581 -0.0290 -0.3439
19850TIP3    H180965   0.113   0.166  16.814 -0.8235 -0.7922 -3.1922
19850TIP3    H280966   0.062   0.308  16.823  0.6184 -0.4416 -0.2675
19851TIP3   OH280967   2.316   3.076  16.532 -0.1022  0.2147  0.0688
19851TIP3    H180968   2.406   3.065  16.562  0.4079  0.5416 -1.3232
19851TIP3    H280969   2.271   3.119  16.605  0.7993 -0.1706  0.8604
19852TIP3   OH280970   3.734   4.694   5.766  0.0251 -0.2430  0.0203
19852TIP3    H180971   3.706   4.632   5.834 -3.2684  0.9496 -0.1604
19852TIP3    H280972   3.681   4.671   5.690  0.2112  1.5317 -0.6588
19853TIP3   OH280973   3.915   5.916  13.901 -0.4444  0.3927 -0.2435
19853TIP3    H180974   4.008   5.901  13.918 -0.5497  1.3260  1.3034
19853TIP3    H280975   3.871   5.838  13.935 -0.4769  1.3523  1.9894
19854TIP3   OH280976   1.796   2.209   3.498  0.0578 -0.0165  0.1097
19854TIP3    H180977   1.788   2.240   3.588  1.1490  0.3928  0.0771
19854TIP3    H280978   1.713   2.233   3.457  0.5170  2.0597  0.3393
19855TIP3   OH280979   1.419   3.342   5.334  0.6438  0.1213  0.4569
19855TIP3    H180980   1.334   3.300   5.348  0.5945  0.1238  0.1766
19855TIP3    H280981   1.469   3.278   5.283  0.6787  0.2742  0.2996
19856TIP3   OH280982   2.360   4.393  13.840 -0.8301 -0.2234 -0.7460
19856TIP3    H180983   2.415   4.346  13.777 -0.7818 -1.0369 -0.1000
19856TIP3    H280984   2.393   4.483  13.838  2.8070 -1.3866  2.0985
19857TIP3   OH280985   2.258   6.527   0.491  0.0697  0.0277 -0.0496
19857TIP3    H180986   2.288   6.609   0.452  0.6579 -0.6758 -1.0897
19857TIP3    H280987   2.166   6.521   0.466  0.1705  0.1008 -0.4399
19858TIP3   OH280988   6.181   4.589   3.101  0.2757 -0.9578  0.1717
19858TIP3    H180989   6.203   4.676   3.067 -0.6362 -0.0868  1.7073
19858TIP3    H280990   6.088   4.578   3.080  0.2605 -1.3382  0.4342
19859TIP3   OH280991   0.189   1.848  12.288  0.9837 -0.2482  0.3237
19859TIP3    H180992   0.119   1.808  12.339  1.0627 -1.2305 -0.3206
19859TIP3    H280993   0.268   1.799  12.312  1.4207  0.7541  0.9331
19860TIP3   OH280994   5.126   4.659   5.993  0.0397 -0.8056 -0.4698
19860TIP3    H180995   5.122   4.737   6.049  0.1115 -1.7124  0.8010
19860TIP3    H280996   5.211   4.666   5.949  0.5448 -0.7647  0.5083
19861TIP3   OH280997   2.985   0.756  14.577  0.3478  0.3450  0.6235
19861TIP3    H180998   2.959   0.667  14.550  0.8046  0.1616  0.7816
19861TIP3    H280999   2.948   0.766  14.664  0.4674  0.2352  0.6870
19862TIP3   OH281000   4.691   4.795  16.818  0.0578  0.0383 -0.8452
19862TIP3    H181001   4.747   4.814  16.893  0.1911 -1.5465 -0.5375
19862TIP3    H281002   4.752   4.781  16.746 -0.0102 -0.1647 -0.8647
19863TIP3   OH281003   4.882   1.604  16.198 -0.1148 -0.0302 -0.5259
19863TIP3    H181004   4.861   1.545  16.271  1.1188 -0.5475 -0.5819
19863TIP3    H281005   4.870   1.551  16.120  2.2729 -0.6191 -0.5236
19864TIP3   OH281006   0.030   4.214   4.380 -0.4262 -0.2979 -0.5177
19864TIP3    H181007   0.112   4.242   4.421 -2.2559  1.3028  2.2504
19864TIP3    H281008  -0.039   4.258   4.431 -3.0465 -1.9609 -2.4501
19865TIP3   OH281009   5.337   5.478  13.091 -0.7271  1.1317  0.0652
19865TIP3    H181010   5.354   5.441  13.177  1.3408  0.6953 -0.5126
19865TIP3    H281011   5.421   5.514  13.063 -1.8602  3.1504 -0.8838
19866TIP3   OH281012   0.485   0.986  13.826  0.3041 -0.2499  0.4708
19866TIP3    H181013   0.437   0.961  13.905  0.3113 -0.9819  0.2410
19866TIP3    H281014   0.416   1.013  13.765  0.4682  3.9471  1.9578
19867TIP3   OH281015   4.319   3.502  14.796  0.0399 -0.0110  0.4061
19867TIP3    H181016   4.373   3.569  14.755 -0.2384  0.2125  0.3982
19867TIP3    H281017   4.283   3.451  14.723 -0.5078  0.4274  0.3614
19868TIP3   OH281018   0.013   3.301  16.581 -0.5334  1.0585 -0.1124
19868TIP3    H181019  -0.028   3.228  16.533  2.0284 -0.1875 -0.5170
19868TIP3    H281020  -0.034   3.305  16.664 -0.8113 -1.0175 -0.1411
19869TIP3   OH281021   5.289   6.443   5.084  0.0490 -0.2902 -0.1135
19869TIP3    H181022   5.197   6.447   5.113 -0.5850 -0.6033 -2.0188
19869TIP3    H281023   5.296   6.510   5.016  1.6785  0.8478  1.1547
19870TIP3   OH281024   6.592   0.247  12.865 -0.1594 -0.2462  0.1482
19870TIP3    H181025   6.531   0.256  12.938 -2.2953  0.5321 -1.6966
19870TIP3    H281026   6.559   0.173  12.815  1.1230 -0.5891 -0.2196
19871TIP3   OH281027   2.009   3.211   5.117 -0.0672 -0.7070  0.0178
19871TIP3    H181028   2.059   3.175   5.044  0.6032 -0.6257  0.4310
19871TIP3    H281029   2.025   3.306   5.112 -0.7331 -0.6093 -0.2598
19872TIP3   OH281030   4.935   0.758  15.725 -0.5318 -0.9087  0.4882
19872TIP3    H181031   4.975   0.703  15.659  1.0971  0.9840 -0.1640
19872TIP3    H281032   4.846   0.773  15.693 -0.1418 -0.9947 -0.6552
19873TIP3   OH281033   0.218   4.109   2.343 -0.3554  0.7736  0.3795
19873TIP3    H181034   0.264   4.058   2.276  0.5165 -0.6140  2.0008
19873TIP3    H281035   0.276   4.184   2.360 -0.1286  0.6297  0.2462
19874TIP3   OH281036   6.028   0.044   2.557  0.1948 -0.3757  0.7746
19874TIP3    H181037   6.068  -0.025   2.504 -1.9563 -0.0926 -1.2561
19874TIP3    H281038   6.053   0.126   2.513 -0.5068 -0.0723  0.9327
19875TIP3   OH281039   4.040   2.832  13.447 -0.5413 -0.5571  0.0806
19875TIP3    H181040   4.123   2.807  13.406  0.0220 -0.2358  1.0008
19875TIP3    H281041   3.978   2.838  13.375  0.8956  1.9808 -0.9734
19876TIP3   OH281042   5.590   0.347   4.666  0.1360 -0.1835 -0.1368
19876TIP3    H181043   5.650   0.338   4.740 -1.2288 -0.5556  0.9534
19876TIP3    H281044   5.624   0.421   4.616  1.9111 -0.8423  0.0455
19877TIP3   OH281045   1.410   5.869   3.798  0.0330 -0.5456 -0.0127
19877TIP3    H181046   1.411   5.890   3.891 -1.9917 -0.5859  0.0375
19877TIP3    H281047   1.407   5.774   3.794 -1.1094 -0.5022 -0.1088
19878TIP3   OH281048   4.922   4.594  15.015 -0.2829 -0.2515  0.0627
19878TIP3    H181049   4.958   4.629  15.096 -1.2432  1.3226 -0.1754
19878TIP3    H281050   4.981   4.522  14.992  0.2206 -0.4724  1.9381
19879TIP3   OH281051   0.306   3.682   1.093  0.1594 -0.0347  0.1960
19879TIP3    H181052   0.228   3.693   1.038  0.1213  3.8523  0.9133
19879TIP3    H281053   0.344   3.598   1.064 -2.1690 -0.1372 -2.8075
19880TIP3   OH281054   3.711   6.603   1.482 -0.4625 -0.4133 -0.5493
19880TIP3    H181055   3.638   6.628   1.538 -1.8670 -1.8906 -1.6794
19880TIP3    H281056   3.774   6.561   1.541 -1.7693 -1.6534  0.0022
19881TIP3   OH281057   5.281   0.910  13.091  0.6396 -0.0398  0.5176
19881TIP3    H181058   5.239   0.996  13.093  2.5973  0.9299  2.6724
19881TIP3    H281059   5.324   0.906  13.006 -1.4532  0.0781 -0.5803
19882TIP3   OH281060   2.836   4.512   5.526 -0.3882 -0.0886  0.0462
19882TIP3    H181061   2.886   4.484   5.603  0.7661  0.7185 -0.3922
19882TIP3    H281062   2.769   4.445   5.515 -1.0313  0.1568  2.2028
19883TIP3   OH281063   0.689   4.866   0.079  0.0427  0.2668  0.1654
19883TIP3    H181064   0.765   4.813   0.053  1.3661  0.6852  3.0485
19883TIP3    H281065   0.725   4.954   0.090 -1.3370  0.9356 -0.5565
19884TIP3   OH281066   1.695   1.345  14.355 -0.3894  0.0234 -0.2337
19884TIP3    H181067   1.781   1.312  14.330 -0.9103 -2.0662  0.7077
19884TIP3    H281068   1.637   1.316  14.284 -0.5637  0.3368 -0.2211
19885TIP3   OH281069   3.874   1.766  14.932  0.0617 -0.1111  0.5277
19885TIP3    H181070   3.789   1.783  14.972 -0.2833  0.2035 -0.3299
19885TIP3    H281071   3.863   1.789  14.840  0.6557 -1.4261  0.1042
19886TIP3   OH281072   4.761   5.094   3.551 -0.0763 -0.1947  0.2653
19886TIP3    H181073   4.768   5.100   3.455 -0.2339  0.1406  0.2752
19886TIP3    H281074   4.825   5.156   3.584 -1.3440  1.0774  0.3653
19887TIP3   OH281075   4.680   4.986  15.076 -0.0605  0.1082  0.3582
19887TIP3    H181076   4.607   5.005  15.135  0.0454 -1.7037  1.0921
19887TIP3    H281077   4.758   4.997  15.131 -0.0267 -3.3658  1.1210
19888TIP3   OH281078   6.225   2.845  14.170  0.5587  0.4057  0.4558
19888TIP3    H181079   6.242   2.814  14.081 -0.4536 -0.4030  0.5375
19888TIP3    H281080   6.246   2.939  14.166  2.9283 -0.1000  0.0202
19889TIP3   OH281081   1.680   6.660   2.620  0.3503 -0.0864 -0.5693
19889TIP3    H181082   1.677   6.751   2.652  2.0498 -0.2713  0.1900
19889TIP3    H281083   1.774   6.641   2.613  0.0188 -2.0845  0.1369
19890TIP3   OH281084   1.839   2.225  13.084  0.0827  0.1312  0.2179
19890TIP3    H181085   1.785   2.148  13.100 -0.8246  0.6944 -0.1122
19890TIP3    H281086   1.921   2.207  13.131 -0.7781 -0.2575  1.5775
19891TIP3   OH281087   2.217   5.844  16.090  0.4008 -0.6415 -0.2580
19891TIP3    H181088   2.307   5.842  16.059  0.5460  0.8205  0.0413
19891TIP3    H281089   2.175   5.912  16.038  0.4766  1.3910  2.2254
19892TIP3   OH281090   2.416   0.080  10.930  0.1063  0.3651 -0.4725
19892TIP3    H181091   2.491   0.136  10.910 -0.1772  0.4081 -1.4895
19892TIP3    H281092   2.370   0.125  11.001  1.4419 -0.0477  0.6634
19893TIP3   OH281093   6.608   1.200  14.497 -0.2344 -0.0958  0.3138
19893TIP3    H181094   6.593   1.112  14.530 -1.3915  0.0654  0.2547
19893TIP3    H281095   6.533   1.217  14.439  1.3027 -0.0659 -1.7434
19894TIP3   OH281096   0.390   2.780   5.002  0.3581  0.8134  0.2262
19894TIP3    H181097   0.397   2.728   4.922  0.4560  1.0202  0.0990
19894TIP3    H281098   0.338   2.727   5.061 -0.6480  1.1238 -0.3658
19895TIP3   OH281099   2.437   1.171   4.507  0.4165 -0.0526 -0.8263
19895TIP3    H181100   2.400   1.163   4.594 -0.3608 -0.1177 -1.1556
19895TIP3    H281101   2.432   1.265   4.487  0.5170 -0.0479 -0.8290
19896TIP3   OH281102   5.766   5.827  15.136  0.0831 -0.1236 -0.0421
19896TIP3    H181103   5.730   5.900  15.186  1.0597  1.4343 -1.5671
19896TIP3    H281104   5.763   5.856  15.045  1.7653 -1.4137 -0.5348
19897TIP3   OH281105   3.473   6.452  17.129 -0.5098 -0.6333 -0.1808
19897TIP3    H181106   3.537   6.395  17.087  1.7915  0.6355  1.4499
19897TIP3    H281107   3.447   6.403  17.208 -0.6597 -0.6381 -0.2348
19898TIP3   OH281108   1.350   4.663   5.490 -0.1724  0.2925 -0.4483
19898TIP3    H181109   1.405   4.726   5.443  1.5770 -1.8146 -1.3412
19898TIP3    H281110   1.412   4.606   5.536 -1.8208  1.7487  3.8195
19899TIP3   OH281111   0.960   5.421  14.660 -0.0710  0.4939  0.2724
19899TIP3    H181112   1.052   5.445  14.672 -0.5073  1.4608  1.9179
19899TIP3    H281113   0.937   5.374  14.740 -0.5839 -1.1480 -0.8192
19900TIP3   OH281114   3.269   4.008   5.607  0.3392 -0.6641 -0.3552
19900TIP3    H181115   3.214   3.931   5.590  0.1125 -0.4508 -0.5891
19900TIP3    H281116   3.240   4.039   5.693 -1.4504  0.7550 -1.4392
19901TIP3   OH281117   4.519   2.472   4.638  0.3903 -0.3054  0.0684
19901TIP3    H181118   4.591   2.412   4.618  0.2168 -0.2795 -0.6724
19901TIP3    H281119   4.441   2.416   4.644 -0.2563  0.1027 -3.3599
19902TIP3   OH281120   5.017   3.754  15.015  0.0417  0.0486 -0.0207
19902TIP3    H181121   5.075   3.754  15.091  0.3822 -2.9229 -0.1961
19902TIP3    H281122   4.929   3.742  15.051  0.0190  0.3338  0.0148
19903TIP3   OH281123   6.366   3.069  12.190  0.0875  0.3985 -0.1300
19903TIP3    H181124   6.428   3.097  12.258  0.5208  1.3994 -0.9337
19903TIP3    H281125   6.370   3.137  12.124 -2.4006  0.8367  0.1191
19904TIP3   OH281126   4.152   4.624  16.114 -0.2137  0.3096  0.6300
19904TIP3    H181127   4.064   4.603  16.145 -0.5942  2.0647  0.8016
19904TIP3    H281128   4.141   4.646  16.021  0.3552 -1.3623  0.1533
19905TIP3   OH281129   5.179   3.732  15.214  0.6320 -0.3619  0.1374
19905TIP3    H181130   5.235   3.654  15.205  2.9045  1.1446  0.8451
19905TIP3    H281131   5.198   3.766  15.301  1.7508  2.5383 -1.1765
19906TIP3   OH281132   2.164   1.783   2.065  0.2325  0.1570 -0.0897
19906TIP3    H181133   2.103   1.714   2.093  0.2215  0.3781  0.4470
19906TIP3    H281134   2.231   1.784   2.134 -0.3362  1.3947  0.4553
19907TIP3   OH281135   2.948   3.524  13.499 -0.3875  0.1059 -0.5044
19907TIP3    H181136   2.924   3.575  13.421 -2.6638  1.2224  0.8514
19907TIP3    H281137   2.963   3.590  13.566 -1.6011 -0.9172  0.8163
19908TIP3   OH281138   3.903   6.495  13.374 -0.4790  0.8063 -0.2641
19908TIP3    H181139   3.924   6.583  13.343  2.7614  0.3442  0.4012
19908TIP3    H281140   3.932   6.437  13.303  0.5063  0.1370  0.6552
19909TIP3   OH281141   2.663   0.084   2.476 -0.5695 -0.1441  0.0826
19909TIP3    H181142   2.647   0.054   2.386 -2.3819  0.5648  0.1593
19909TIP3    H281143   2.738   0.032   2.505 -1.1406 -1.7263 -1.1901
19910TIP3   OH281144   6.543   3.361   5.705  0.1721 -0.1524 -0.1584
19910TIP3    H181145   6.545   3.338   5.798 -1.1186 -0.3297 -0.1689
19910TIP3    H281146   6.450   3.364   5.683  0.4375  1.0154 -1.1712
19911TIP3   OH281147   3.879   2.209  15.783 -0.4839 -0.6642 -0.1647
19911TIP3    H181148   3.809   2.222  15.718  0.6282  1.6703 -0.9445
19911TIP3    H281149   3.837   2.160  15.853 -2.6277 -0.2715 -1.1216
19912TIP3   OH281150   6.489   4.514  11.092  0.4855  0.2612 -0.3553
19912TIP3    H181151   6.508   4.523  10.999 -1.9803 -2.5086 -1.2292
19912TIP3    H281152   6.468   4.421  11.103  1.1181  0.4582  3.0472
19913TIP3   OH281153   4.728   6.764  15.858 -0.2311  0.7837  0.1772
19913TIP3    H181154   4.695   6.846  15.824  0.3976  1.2366  0.6451
19913TIP3    H281155   4.718   6.771  15.953  1.5792  1.1215  0.3701
19914TIP3   OH281156   1.003   6.263   3.614 -0.5882  0.4009 -0.2259
19914TIP3    H181157   0.921   6.257   3.662 -1.0280 -2.3298 -1.2538
19914TIP3    H281158   0.979   6.307   3.532 -0.6044  1.4163  0.3097
19915TIP3   OH281159   2.946   4.650  14.584  0.0072  0.4161  0.4825
19915TIP3    H181160   2.971   4.596  14.659  0.6902  1.4855  1.0473
19915TIP3    H281161   2.938   4.589  14.511  1.1004 -0.3994  1.0344
19916TIP3   OH281162   2.224   4.709  14.400  0.0431 -0.1370  0.2013
19916TIP3    H181163   2.174   4.775  14.448 -1.2329  0.2829 -1.6621
19916TIP3    H281164   2.212   4.731  14.308  1.8782 -1.3468 -0.3592
19917TIP3   OH281165   5.637   0.878  12.602 -0.9337 -0.1069  0.3268
19917TIP3    H181166   5.698   0.911  12.537 -1.6319 -0.0455 -0.2970
19917TIP3    H281167   5.693   0.837  12.669 -0.1005  1.8076  0.8214
19918TIP3   OH281168   4.850   4.028  13.705  0.0475  0.1126 -0.3612
19918TIP3    H181169   4.810   3.940  13.707  0.1352  0.0834  0.3749
19918TIP3    H281170   4.941   4.012  13.683 -0.3138  0.1675 -1.9211
19919TIP3   OH281171   5.766   5.655   0.861  0.2983 -0.1907  0.3214
19919TIP3    H181172   5.811   5.736   0.885  2.2311 -1.2899  0.5139
19919TIP3    H281173   5.835   5.588   0.860 -0.7550 -1.3384 -2.4118
19920TIP3   OH281174   4.658   4.011  15.349  0.4094 -0.1931 -0.1575
19920TIP3    H181175   4.754   4.007  15.346  0.3486 -2.2099  0.0259
19920TIP3    H281176   4.632   4.023  15.258  0.7965 -1.0725 -0.3925
19921TIP3   OH281177   0.638   5.726  11.678  0.2137 -0.3527 -0.5322
19921TIP3    H181178   0.688   5.771  11.610 -2.0324  0.5454 -1.6813
19921TIP3    H281179   0.634   5.635  11.649  1.2503 -0.4443 -0.3850
19922TIP3   OH281180   5.278   4.953   2.514 -0.7181  0.3149 -0.7848
19922TIP3    H181181   5.366   4.927   2.489  0.6953  0.3690  3.6788
19922TIP3    H281182   5.282   5.048   2.523 -1.0841  0.2779 -0.1509
19923TIP3   OH281183   3.791   0.022   4.119 -0.3794 -0.2453  0.4329
19923TIP3    H181184   3.869   0.066   4.151 -0.8113  0.1774  0.9156
19923TIP3    H281185   3.785  -0.058   4.170 -0.7900  0.1887  1.0821
19924TIP3   OH281186   2.497   0.782  15.945  0.1669  0.5419 -0.2550
19924TIP3    H181187   2.466   0.869  15.971  0.0070  0.1853  0.7588
19924TIP3    H281188   2.568   0.763  16.006 -0.8501 -0.7211  0.5647
19925TIP3   OH281189   1.138   4.941  17.008  0.0698  0.3294  0.4304
19925TIP3    H181190   1.163   4.862  16.960  1.4674  1.6040 -1.0010
19925TIP3    H281191   1.043   4.949  16.993  0.0346 -0.7118  0.0453
19926TIP3   OH281192   1.761   6.036   4.713 -0.0853  0.3009 -0.3304
19926TIP3    H181193   1.757   6.042   4.809 -0.5185 -0.1269 -0.3215
19926TIP3    H281194   1.685   6.086   4.683  0.0081  0.3701 -0.4522
19927TIP3   OH281195   0.903   3.129  13.468 -0.2069 -0.0800 -0.2557
19927TIP3    H181196   0.885   3.114  13.561 -1.2320 -0.2956 -0.4789
19927TIP3    H281197   0.858   3.211  13.447  2.1638  1.3254  0.0338
19928TIP3   OH281198   0.549   4.227   3.939  0.2726  0.3016  0.3988
19928TIP3    H181199   0.603   4.270   3.873 -0.8284  1.0143 -0.0494
19928TIP3    H281200   0.463   4.269   3.931 -0.4764 -1.1071  0.8016
19929TIP3   OH281201   4.542   5.714   4.852 -0.4736 -0.3585  0.0510
19929TIP3    H181202   4.573   5.775   4.919  1.1815 -0.9644 -0.1177
19929TIP3    H281203   4.621   5.691   4.803 -1.4199 -1.0536 -1.1747
19930TIP3   OH281204   1.602   0.180  13.833 -0.1908 -0.3387 -0.6810
19930TIP3    H181205   1.577   0.132  13.912  2.8593 -1.1767 -0.1858
19930TIP3    H281206   1.610   0.113  13.766 -1.3464  0.2071 -1.3938
19931TIP3   OH281207   3.044   2.477   5.067 -0.0772  0.1217  0.6832
19931TIP3    H181208   3.020   2.429   5.147  0.8647 -0.0820  0.8516
19931TIP3    H281209   2.962   2.515   5.037 -0.4119  0.3863  1.8765
19932TIP3   OH281210   5.114   5.412   1.263 -0.2544 -0.4627 -0.1811
19932TIP3    H181211   5.181   5.449   1.206 -0.1679 -0.0518  0.1866
19932TIP3    H281212   5.051   5.483   1.277 -0.5597 -0.7226 -0.2018
19933TIP3   OH281213   3.187   0.165   3.312 -0.0208  0.0441  0.4251
19933TIP3    H181214   3.227   0.191   3.395 -0.0024 -0.8958  0.7095
19933TIP3    H281215   3.225   0.080   3.292 -2.8052 -1.4852  1.3489
19934TIP3   OH281216   5.147   5.262   1.486 -0.0263 -0.1351 -0.1857
19934TIP3    H181217   5.117   5.334   1.541  2.1355 -0.2373  1.1697
19934TIP3    H281218   5.140   5.296   1.397 -2.5968  0.3925  0.1787
19935TIP3   OH281219   0.604   5.962   1.556 -0.2949  0.0222  0.4017
19935TIP3    H181220   0.541   6.033   1.568 -0.9595 -0.2819 -1.2906
19935TIP3    H281221   0.673   6.000   1.502  0.7941  0.2304  1.9059
19936TIP3   OH281222   3.417   0.400   3.930  0.7653 -0.0669 -0.1763
19936TIP3    H181223   3.328   0.375   3.907  0.5925  0.7135 -0.3697
19936TIP3    H281224   3.455   0.321   3.971 -0.5537  0.1207  1.4546
19937TIP3   OH281225   6.231   2.871   5.865 -0.3926 -0.2635  0.5168
19937TIP3    H181226   6.305   2.885   5.924 -0.4039 -0.0826  0.4874
19937TIP3    H281227   6.187   2.956   5.861  0.2359  0.0303 -0.6105
19938TIP3   OH281228   4.431   3.801  11.377 -0.1935  1.0082 -0.1374
19938TIP3    H181229   4.462   3.718  11.340 -0.4388 -0.3024  2.4662
19938TIP3    H281230   4.433   3.787  11.471 -0.3789  3.9496  0.3568
19939TIP3   OH281231   2.574   5.508   3.614 -0.2362 -0.3347  0.7481
19939TIP3    H181232   2.574   5.595   3.574  0.8746 -0.6209  0.1082
19939TIP3    H281233   2.528   5.452   3.551  0.3275 -0.4998  0.4703
19940TIP3   OH281234   4.064   3.795  16.728  0.2388 -0.1157  0.1638
19940TIP3    H181235   4.089   3.886  16.714  0.0277 -0.2188 -0.9537
19940TIP3    H281236   4.040   3.791  16.821  0.6550  0.8590  0.3242
19941TIP3   OH281237   2.493   0.470   5.768  0.1754  0.0989  0.7377
19941TIP3    H181238   2.469   0.539   5.829  0.0628 -0.9745  1.9393
19941TIP3    H281239   2.588   0.464   5.776  0.1208 -0.3085  1.1135
19942TIP3   OH281240   2.468   0.693  12.382  0.3436 -0.5030  0.3688
19942TIP3    H181241   2.478   0.787  12.397  0.3523 -0.1468 -1.7377
19942TIP3    H281242   2.507   0.653  12.460 -0.1183  1.2343  1.5217
19943TIP3   OH281243   0.993   6.293  15.159  0.0369  0.8708 -0.3430
19943TIP3    H181244   0.968   6.206  15.192 -1.4045 -0.0328 -3.5868
19943TIP3    H281245   0.996   6.282  15.064  1.7059  3.9359 -0.6937
19944TIP3   OH281246   4.413   1.113   4.713  0.2816  0.0554 -0.2935
19944TIP3    H181247   4.329   1.135   4.754 -0.2194 -1.4006 -0.5187
19944TIP3    H281248   4.468   1.190   4.728 -1.3616  1.3687 -0.8725
19945TIP3   OH281249   4.403   6.344   5.323  0.0571  0.5043  0.5008
19945TIP3    H181250   4.481   6.294   5.347 -0.7987 -0.9153  0.3829
19945TIP3    H281251   4.353   6.285   5.268 -0.3333  2.0051 -0.7828
19946TIP3   OH281252   6.648   5.661   3.844 -0.2907  0.4501  0.3583
19946TIP3    H181253   6.651   5.756   3.849  0.1999  0.3318  2.9228
19946TIP3    H281254   6.589   5.635   3.915 -0.2544 -1.1680 -0.1878
19947TIP3   OH281255   4.674   1.887  11.731 -0.1241  0.3353 -0.6393
19947TIP3    H181256   4.764   1.903  11.704 -0.1649  1.3430 -0.1529
19947TIP3    H281257   4.679   1.808  11.785  0.6803  1.2229  0.6085
19948TIP3   OH281258   0.212   1.113   3.329  0.0556  0.6272  0.7169
19948TIP3    H181259   0.123   1.078   3.331  0.4315 -0.2987  1.4718
19948TIP3    H281260   0.252   1.083   3.411  0.9466  1.3449  0.5541
19949TIP3   OH281261   3.996   6.552   3.255  1.1555  0.1009  0.5843
19949TIP3    H181262   4.015   6.622   3.317 -0.0981  0.3816  0.6718
19949TIP3    H281263   3.912   6.577   3.216 -1.1557 -3.1187  3.2011
19950TIP3   OH281264   0.235   0.560   2.346 -0.7077  0.1590 -0.1372
19950TIP3    H181265   0.248   0.467   2.329  0.5975  0.5437 -1.3318
19950TIP3    H281266   0.168   0.587   2.284 -1.1928 -0.0017  0.3089
19951TIP3   OH281267   5.693   4.577  14.437  0.0756  0.8202 -0.0460
19951TIP3    H181268   5.777   4.608  14.405  0.5563 -0.8020 -0.3806
19951TIP3    H281269   5.714   4.516  14.507 -0.7822 -0.1435 -0.6023
19952TIP3   OH281270   0.062   1.069  11.108 -1.0987 -0.1819 -0.4692
19952TIP3    H181271   0.015   0.998  11.064 -0.4895 -1.9950  1.6993
19952TIP3    H281272  -0.006   1.123  11.148 -1.5350  0.0539 -1.5233
19953TIP3   OH281273   0.685   3.026   4.833 -0.3196 -0.1544 -0.1616
19953TIP3    H181274   0.693   2.933   4.852 -0.3073 -0.4098 -1.3693
19953TIP3    H281275   0.603   3.052   4.874 -0.3007 -0.6876  0.2212
19954TIP3   OH281276   1.114   0.662   4.352 -0.4657  0.2036  0.1917
19954TIP3    H181277   1.054   0.631   4.419 -0.7485  0.8295  0.2338
19954TIP3    H281278   1.057   0.699   4.284 -0.1080  1.5572  0.6116
19955TIP3   OH281279   2.494   0.695  11.604  0.0128 -0.1696  0.0754
19955TIP3    H181280   2.400   0.680  11.592 -0.3276  1.9381 -0.0841
19955TIP3    H281281   2.507   0.786  11.578  2.5651 -1.1839 -2.4197
19956TIP3   OH281282   4.997   6.439  14.797 -0.2896  0.2197 -0.0221
19956TIP3    H181283   5.082   6.482  14.789 -0.1401 -0.3972 -2.0157
19956TIP3    H281284   4.939   6.507  14.831  0.4415  1.3928 -1.0716
19957LIG     O181285   3.474   2.971  16.204  0.4467 -0.5731 -0.5153
19957LIG     O281286   3.218   3.469  16.506  0.0020 -0.0334  0.8900
19957LIG     O381287   3.124   3.204  16.402 -0.0522  0.2728  0.7658
19957LIG     O481288   3.285   3.708  16.509 -0.3780  0.1081 -0.5238
19957LIG     O581289   3.244   2.971  16.073  0.5605  0.0008  0.1101
19957LIG     O681290   3.387   3.947  16.503  0.6395  0.1343 -0.2133
19957LIG      N81291   3.449   3.004  16.508  0.3299  0.0248  0.2441
19957LIG     C181292   3.485   3.244  16.434  0.0706 -1.0315  1.0081
19957LIG     C281293   3.338   3.274  16.455  0.0738  0.6574  0.0534
19957LIG     C381294   3.545   3.333  16.321 -0.5160  0.0171 -0.3863
19957LIG     C481295   3.494   3.097  16.394 -0.2677  0.9721  0.4454
19957LIG     C581296   3.533   3.485  16.345  0.1909  0.4580  0.5694
19957LIG     C681297   3.322   3.427  16.456  0.3329 -0.6243 -0.0131
19957LIG     C781298   3.421   3.533  16.414  0.4896  0.1230  0.1851
19957LIG     C881299   3.240   3.199  16.364 -0.3122  0.1343  0.0913
19957LIG     C981300   3.416   3.065  16.273  0.2957  0.0035 -0.6316
19957LIG    C1081301   3.288   3.110  16.255 -0.2706  0.1214 -0.3027
19957LIG    C1181302   3.633   3.569  16.310 -1.3474  0.1830 -1.0713
19957LIG    C1281303   3.404   3.669  16.443 -0.5950 -0.2186 -0.6972
19957LIG    C1381304   3.630   3.707  16.348  0.1628 -0.2063  1.2577
19957LIG    C1481305   3.512   3.759  16.414  0.6280 -0.1070 -0.7151
19957LIG    C1581306   3.753   3.524  16.227 -0.1022 -0.5648 -0.3880
19957LIG    C1681307   3.196   3.046  16.153  0.3481 -0.6052 -0.3253
19957LIG    C1781308   3.505   3.896  16.443 -0.1336  0.1394 -0.2734
19957LIG    C1881309   3.738   3.793  16.331 -0.2517 -0.6400 -0.2273
19957LIG    C1981310   3.610   3.987  16.418  0.2677  0.0374 -0.4131
19957LIG    C2081311   3.732   3.927  16.373 -0.6639  0.2075 -0.1107
19957LIG    C2181312   3.047   3.076  16.152  0.6331 -0.2827  0.8948
19957LIG    C2281313   3.559   3.022  16.103  0.5768 -0.2489  0.2898
19957LIG    C2381314   3.611   4.131  16.443  0.3454 -0.2323  0.3584
19957LIG     H181315   3.554   3.261  16.519 -0.7766  0.7560  1.3683
19957LIG     H281316   3.315   3.238  16.557  0.2947  2.1894  0.6598
19957LIG     H381317   3.491   3.311  16.226 -2.1726 -1.2248  0.8271
19957LIG     H481318   3.650   3.297  16.309 -0.8551 -1.2073  0.2890
19957LIG     H581319   3.600   3.076  16.371 -0.0674  1.5794  0.8030
19957LIG     H681320   3.472   2.907  16.487 -0.6210  0.1860 -1.6914
19957LIG     H781321   3.504   3.028  16.589  2.0529 -0.5011 -0.7527
19957LIG     H881322   3.715   3.441  16.164  1.5697 -0.8880 -0.9970
19957LIG     H981323   3.833   3.477  16.289  0.4352 -0.7069 -1.1852
19957LIG    H1081324   3.796   3.609  16.170  2.4330 -1.1372  0.5956
19957LIG    H1181325   3.829   3.765  16.281  0.7913 -2.8824  2.7239
19957LIG    H1281326   3.251   3.630  16.553  1.1975  0.4251  1.3344
19957LIG    H1381327   3.817   3.992  16.353 -0.2376 -0.0309  0.8711
19957LIG    H1481328   3.019   3.183  16.153  1.0588 -0.1655  0.2288
19957LIG    H1581329   2.995   3.036  16.241 -1.5993  0.7986  0.1122
19957LIG    H1681330   3.014   3.030  16.056 -0.4388  0.5300  0.8774
19957LIG    H1781331   3.610   2.946  16.041 -0.7905 -1.1628  0.2542
19957LIG    H1881332   3.641   3.082  16.149 -0.4939  1.2584  0.2579
19957LIG    H1981333   3.501   3.076  16.025  1.5049  1.1818  0.5686
19957LIG    H2081334   3.614   4.151  16.552 -1.8642  1.9802  0.0676
19957LIG    H2181335   3.519   4.180  16.403  1.4859  1.3058 -0.4552
19957LIG    H2281336   3.701   4.172  16.393  0.7590 -0.7452  0.6839
19957LIG    H2381337   3.329   3.871  16.512  0.9917 -0.0799  0.2849
   6.78697   6.78697  17.23950
